<event>
 6    1  0.1028026E-006  0.6716321E+03  0.7818608E-02  0.9767014E-01
         -2   -1    0    0    0  501 -0.00000000000E+00  0.00000000000E+00  0.19136276369E+03  0.19136276369E+03  0.00000000000E+00 0.  1.
          2   -1    0    0  501    0  0.00000000000E+00 -0.00000000000E+00 -0.58931219186E+03  0.58931219186E+03  0.00000000000E+00 0. -1.
         23    2    1    2    0    0  0.16706347646E+03  0.20570675188E+03 -0.43058371756E+03  0.51367220317E+03  0.90726630874E+02 0.  0.
         13    1    3    3    0    0  0.38919042741E+02  0.42084897291E+01 -0.85359096171E+02  0.93907287112E+02  0.00000000000E+00 0. -1.
        -13    1    3    3    0    0  0.12814443372E+03  0.20149826215E+03 -0.34522462138E+03  0.41976491606E+03  0.00000000000E+00 0.  1.
         22    1    1    2    0    0 -0.16706347646E+03 -0.20570675188E+03  0.32634289389E+02  0.26700275238E+03  0.00000000000E+00 0.  1.
<mgrwt>
<rscale>  0 0.67163207E+03</rscale>
<asrwt>0</asrwt>
<pdfrwt beam="1">  1        2 0.90663414E-01 0.67163207E+03</pdfrwt>
<pdfrwt beam="2">  1       -2 0.29440425E-01 0.67163207E+03</pdfrwt>
<totfact> 0.54153670E+02</totfact>
</mgrwt>
</event>
<event>
 6    1  0.1028026E-006  0.2411582E+04  0.7818608E-02  0.8435180E-01
          1   -1    0    0  501    0  0.00000000000E+00  0.00000000000E+00  0.97687813829E+03  0.97687813829E+03  0.00000000000E+00 0. -1.
         -1   -1    0    0    0  501 -0.00000000000E+00 -0.00000000000E+00 -0.14883447930E+04  0.14883447930E+04  0.00000000000E+00 0.  1.
         23    2    1    2    0    0  0.98550847666E+03 -0.49036070509E+03 -0.75543854486E+03  0.13377466070E+04  0.84841091298E+02 0.  0.
         13    1    3    3    0    0  0.68106932475E+03 -0.37099090089E+03 -0.49949666132E+03  0.92248934321E+03  0.00000000000E+00 0. -1.
        -13    1    3    3    0    0  0.30443915191E+03 -0.11936980420E+03 -0.25594188354E+03  0.41525726378E+03  0.00000000000E+00 0.  1.
         22    1    1    2    0    0 -0.98550847666E+03  0.49036070509E+03  0.24397189015E+03  0.11274763243E+04  0.00000000000E+00 0. -1.
<mgrwt>
<rscale>  0 0.24115816E+04</rscale>
<asrwt>0</asrwt>
<pdfrwt beam="1">  1        1 0.15028894E+00 0.24115816E+04</pdfrwt>
<pdfrwt beam="2">  1       -1 0.22897612E+00 0.24115816E+04</pdfrwt>
<totfact> 0.13542698E+00</totfact>
</mgrwt>
</event>
<event>
 6    1  0.1028026E-006  0.3329828E+04  0.7818608E-02  0.8155347E-01
         -1   -1    0    0    0  501 -0.00000000000E+00  0.00000000000E+00  0.11719071860E+04  0.11719071860E+04  0.00000000000E+00 0.  1.
          1   -1    0    0  501    0  0.00000000000E+00 -0.00000000000E+00 -0.23653222201E+04  0.23653222201E+04  0.00000000000E+00 0. -1.
         23    2    1    2    0    0 -0.14493548193E+04 -0.61759515314E+03 -0.29477867670E+02  0.15784535402E+04  0.92700963622E+02 0.  0.
         13    1    3    3    0    0 -0.65843969235E+03 -0.24936513622E+03 -0.49225179611E+02  0.70579665480E+03  0.00000000000E+00 0.  1.
        -13    1    3    3    0    0 -0.79091512691E+03 -0.36823001692E+03  0.19747311941E+02  0.87265688542E+03  0.00000000000E+00 0. -1.
         22    1    1    2    0    0  0.14493548193E+04  0.61759515314E+03 -0.11639371665E+04  0.19587758659E+04  0.00000000000E+00 0. -1.
<mgrwt>
<rscale>  0 0.33298277E+04</rscale>
<asrwt>0</asrwt>
<pdfrwt beam="1">  1        1 0.36389572E+00 0.33298277E+04</pdfrwt>
<pdfrwt beam="2">  1       -1 0.18029342E+00 0.33298277E+04</pdfrwt>
<totfact> 0.28763701E-01</totfact>
</mgrwt>
</event>
<event>
 6    1  0.1028026E-006  0.1224455E+04  0.7818608E-02  0.9091716E-01
          2   -1    0    0  501    0  0.00000000000E+00  0.00000000000E+00  0.17635517929E+04  0.17635517929E+04  0.00000000000E+00 0. -1.
         -2   -1    0    0    0  501 -0.00000000000E+00 -0.00000000000E+00 -0.21253856421E+03  0.21253856421E+03  0.00000000000E+00 0.  1.
         23    2    1    2    0    0 -0.54543800824E+03 -0.24551496810E+02  0.12158294282E+04  0.13354238472E+04  0.83727272863E+02 0.  0.
         13    1    3    3    0    0 -0.19984186329E+03  0.20480210709E+02  0.37971948451E+03  0.42958479521E+03  0.00000000000E+00 0. -1.
        -13    1    3    3    0    0 -0.34559614496E+03 -0.45031707519E+02  0.83610994372E+03  0.90583905197E+03  0.00000000000E+00 0.  1.
         22    1    1    2    0    0  0.54543800824E+03  0.24551496810E+02  0.33518380043E+03  0.64066650989E+03  0.00000000000E+00 0. -1.
<mgrwt>
<rscale>  0 0.12244554E+04</rscale>
<asrwt>0</asrwt>
<pdfrwt beam="1">  1        2 0.27131565E+00 0.12244554E+04</pdfrwt>
<pdfrwt beam="2">  1       -2 0.32698242E-01 0.12244554E+04</pdfrwt>
<totfact> 0.77673988E+01</totfact>
</mgrwt>
</event>
<event>
 6    1  0.1028026E-006  0.2498710E+04  0.7818608E-02  0.8403445E-01
          2   -1    0    0  501    0  0.00000000000E+00  0.00000000000E+00  0.27177947151E+04  0.27177947151E+04  0.00000000000E+00 0. -1.
         -2   -1    0    0    0  501 -0.00000000000E+00 -0.00000000000E+00 -0.57432160690E+03  0.57432160690E+03  0.00000000000E+00 0.  1.
         23    2    1    2    0    0  0.12223761783E+04  0.15886226429E+03  0.81818147272E+03  0.14821885170E+04  0.89560801283E+02 0.  0.
         11    1    3    3    0    0  0.82093834215E+03  0.78617007621E+02  0.58434467135E+03  0.10107319578E+04  0.00000000000E+00 0. -1.
        -11    1    3    3    0    0  0.40143783619E+03  0.80245256664E+02  0.23383680138E+03  0.47145655921E+03  0.00000000000E+00 0.  1.
         22    1    1    2    0    0 -0.12223761783E+04 -0.15886226429E+03  0.13252916354E+04  0.18099278050E+04  0.00000000000E+00 0. -1.
<mgrwt>
<rscale>  0 0.24987102E+04</rscale>
<asrwt>0</asrwt>
<pdfrwt beam="1">  1        2 0.41812226E+00 0.24987102E+04</pdfrwt>
<pdfrwt beam="2">  1       -2 0.88357172E-01 0.24987102E+04</pdfrwt>
<totfact> 0.25484046E+00</totfact>
</mgrwt>
</event>
<event>
 6    1  0.1028026E-006  0.3454243E+04  0.7818608E-02  0.8124720E-01
         -1   -1    0    0    0  501 -0.00000000000E+00  0.00000000000E+00  0.15067058817E+04  0.15067058817E+04  0.00000000000E+00 0.  1.
          1   -1    0    0  501    0  0.00000000000E+00 -0.00000000000E+00 -0.19797817488E+04  0.19797817488E+04  0.00000000000E+00 0. -1.
         23    2    1    2    0    0 -0.16946870611E+03 -0.14238875173E+04 -0.12064020935E+04  0.18759154780E+04  0.86472917008E+02 0.  0.
         13    1    3    3    0    0 -0.13713960735E+03 -0.85270387072E+03 -0.75587464702E+03  0.11477184520E+04  0.00000000000E+00 0. -1.
        -13    1    3    3    0    0 -0.32329098763E+02 -0.57118364656E+03 -0.45052744647E+03  0.72819702605E+03  0.00000000000E+00 0.  1.
         22    1    1    2    0    0  0.16946870611E+03  0.14238875173E+04  0.73332622639E+03  0.16105721525E+04  0.00000000000E+00 0.  1.
<mgrwt>
<rscale>  0 0.34542431E+04</rscale>
<asrwt>0</asrwt>
<pdfrwt beam="1">  1        1 0.30458181E+00 0.34542431E+04</pdfrwt>
<pdfrwt beam="2">  1       -1 0.23180090E+00 0.34542431E+04</pdfrwt>
<totfact> 0.23133205E-01</totfact>
</mgrwt>
</event>
<event>
 6    1  0.1028026E-006  0.3107356E+04  0.7818608E-02  0.8213722E-01
          2   -1    0    0  501    0  0.00000000000E+00  0.00000000000E+00  0.18856152592E+04  0.18856152592E+04  0.00000000000E+00 0. -1.
         -2   -1    0    0    0  501 -0.00000000000E+00 -0.00000000000E+00 -0.12801740447E+04  0.12801740447E+04  0.00000000000E+00 0.  1.
         23    2    1    2    0    0  0.12532479818E+04 -0.62893688045E+03  0.98156899304E+03  0.17140096341E+04  0.90328480148E+02 0.  0.
         13    1    3    3    0    0  0.68428702533E+03 -0.39231083002E+03  0.53894999926E+03  0.95531336330E+03  0.00000000000E+00 0. -1.
        -13    1    3    3    0    0  0.56896095648E+03 -0.23662605043E+03  0.44261899378E+03  0.75869627084E+03  0.00000000000E+00 0.  1.
         22    1    1    2    0    0 -0.12532479818E+04  0.62893688045E+03 -0.37612777853E+03  0.14517796697E+04  0.00000000000E+00 0.  1.
<mgrwt>
<rscale>  0 0.31073562E+04</rscale>
<asrwt>0</asrwt>
<pdfrwt beam="1">  1        2 0.29009466E+00 0.31073562E+04</pdfrwt>
<pdfrwt beam="2">  1       -2 0.19694985E+00 0.31073562E+04</pdfrwt>
<totfact> 0.91430756E-01</totfact>
</mgrwt>
</event>
<event>
 6    1  0.1028026E-006  0.1850315E+04  0.7818608E-02  0.8679991E-01
         -2   -1    0    0    0  501 -0.00000000000E+00  0.00000000000E+00  0.20336127320E+04  0.20336127320E+04  0.00000000000E+00 0.  1.
          2   -1    0    0  501    0  0.00000000000E+00 -0.00000000000E+00 -0.42088482678E+03  0.42088482678E+03  0.00000000000E+00 0. -1.
         23    2    1    2    0    0  0.30350572037E+03  0.52023223600E+03 -0.11950052931E+03  0.62054754554E+03  0.89674846593E+02 0.  0.
         11    1    3    3    0    0  0.27516601610E+03  0.43504516082E+03 -0.12779232861E+03  0.53038807267E+03  0.00000000000E+00 0. -1.
        -11    1    3    3    0    0  0.28339704261E+02  0.85187075173E+02  0.82917993000E+01  0.90159472879E+02  0.00000000000E+00 0.  1.
         22    1    1    2    0    0 -0.30350572037E+03 -0.52023223600E+03  0.17322284345E+04  0.18339500132E+04  0.00000000000E+00 0.  1.
<mgrwt>
<rscale>  0 0.18503154E+04</rscale>
<asrwt>0</asrwt>
<pdfrwt beam="1">  1        2 0.64751513E-01 0.18503154E+04</pdfrwt>
<pdfrwt beam="2">  1       -2 0.31286349E+00 0.18503154E+04</pdfrwt>
<totfact> 0.18739612E+00</totfact>
</mgrwt>
</event>
<event>
 6    1  0.1028026E-006  0.1921054E+04  0.7818608E-02  0.8644447E-01
          1   -1    0    0  501    0  0.00000000000E+00  0.00000000000E+00  0.12950966469E+04  0.12950966469E+04  0.00000000000E+00 0. -1.
         -1   -1    0    0    0  501 -0.00000000000E+00 -0.00000000000E+00 -0.71238828080E+03  0.71238828080E+03  0.00000000000E+00 0.  1.
         23    2    1    2    0    0  0.72681117397E+03 -0.39845026520E+03 -0.21017878214E+03  0.86045087142E+03  0.95830502588E+02 0.  0.
         13    1    3    3    0    0  0.30326309268E+03 -0.11306286758E+03 -0.83444523296E+02  0.33423749621E+03  0.00000000000E+00 0.  1.
        -13    1    3    3    0    0  0.42354808129E+03 -0.28538739762E+03 -0.12673425884E+03  0.52621337521E+03  0.00000000000E+00 0. -1.
         22    1    1    2    0    0 -0.72681117397E+03  0.39845026520E+03  0.79288714828E+03  0.11470340563E+04  0.00000000000E+00 0. -1.
<mgrwt>
<rscale>  0 0.19210535E+04</rscale>
<asrwt>0</asrwt>
<pdfrwt beam="1">  1        1 0.19924564E+00 0.19210535E+04</pdfrwt>
<pdfrwt beam="2">  1       -1 0.10959820E+00 0.19210535E+04</pdfrwt>
<totfact> 0.65566645E+00</totfact>
</mgrwt>
</event>
<event>
 6    1  0.1028026E-006  0.2760897E+04  0.7818608E-02  0.8315512E-01
          1   -1    0    0  501    0  0.00000000000E+00  0.00000000000E+00  0.18074025645E+04  0.18074025645E+04  0.00000000000E+00 0. -1.
         -1   -1    0    0    0  501 -0.00000000000E+00 -0.00000000000E+00 -0.10543517920E+04  0.10543517920E+04  0.00000000000E+00 0.  1.
         23    2    1    2    0    0  0.37834027387E+03  0.39440203273E+03  0.16892099334E+04  0.17777394577E+04  0.90736179333E+02 0.  0.
         13    1    3    3    0    0  0.91267128764E+02  0.15556014102E+03  0.52717291064E+03  0.55717135962E+03  0.00000000000E+00 0.  1.
        -13    1    3    3    0    0  0.28707314510E+03  0.23884189171E+03  0.11620370227E+04  0.12205680981E+04  0.00000000000E+00 0. -1.
         22    1    1    2    0    0 -0.37834027387E+03 -0.39440203273E+03 -0.93615916091E+03  0.10840148988E+04  0.00000000000E+00 0.  1.
<mgrwt>
<rscale>  0 0.27608971E+04</rscale>
<asrwt>0</asrwt>
<pdfrwt beam="1">  1        1 0.27806193E+00 0.27608971E+04</pdfrwt>
<pdfrwt beam="2">  1       -1 0.16220797E+00 0.27608971E+04</pdfrwt>
<totfact> 0.98371645E-01</totfact>
</mgrwt>
</event>
<event>
 6    1  0.1028026E-006  0.9830126E+03  0.7818608E-02  0.9327375E-01
         -1   -1    0    0    0  501 -0.00000000000E+00  0.00000000000E+00  0.15587923272E+03  0.15587923272E+03  0.00000000000E+00 0.  1.
          1   -1    0    0  501    0  0.00000000000E+00 -0.00000000000E+00 -0.15497794706E+04  0.15497794706E+04  0.00000000000E+00 0. -1.
         23    2    1    2    0    0 -0.15228431854E+03  0.12618461198E+02 -0.15058072941E+04  0.15162572026E+04  0.90722424453E+02 0.  0.
         13    1    3    3    0    0 -0.60154863855E+02  0.47956225143E+02 -0.54645761996E+03  0.55184629888E+03  0.00000000000E+00 0.  1.
        -13    1    3    3    0    0 -0.92129454680E+02 -0.35337763946E+02 -0.95934967416E+03  0.96441090376E+03  0.00000000000E+00 0. -1.
         22    1    1    2    0    0  0.15228431854E+03 -0.12618461198E+02  0.11190705623E+03  0.18940150070E+03  0.00000000000E+00 0.  1.
<mgrwt>
<rscale>  0 0.98301258E+03</rscale>
<asrwt>0</asrwt>
<pdfrwt beam="1">  1        1 0.23842762E+00 0.98301258E+03</pdfrwt>
<pdfrwt beam="2">  1       -1 0.23981419E-01 0.98301258E+03</pdfrwt>
<totfact> 0.91261920E+01</totfact>
</mgrwt>
</event>
<event>
 6    1  0.1028026E-006  0.1065722E+04  0.7818608E-02  0.9239261E-01
          1   -1    0    0  501    0  0.00000000000E+00  0.00000000000E+00  0.18866630394E+04  0.18866630394E+04  0.00000000000E+00 0. -1.
         -1   -1    0    0    0  501 -0.00000000000E+00 -0.00000000000E+00 -0.15049883298E+03  0.15049883298E+03  0.00000000000E+00 0.  1.
         23    2    1    2    0    0 -0.49971307788E+03 -0.16848440912E+03  0.79541951899E+03  0.95869039697E+03  0.91076395049E+02 0.  0.
         11    1    3    3    0    0 -0.33433000676E+03 -0.12730173361E+03  0.46281614002E+03  0.58496244688E+03  0.00000000000E+00 0. -1.
        -11    1    3    3    0    0 -0.16538307112E+03 -0.41182675505E+02  0.33260337897E+03  0.37372795009E+03  0.00000000000E+00 0.  1.
         22    1    1    2    0    0  0.49971307788E+03  0.16848440912E+03  0.94074468743E+03  0.10784714754E+04  0.00000000000E+00 0. -1.
<mgrwt>
<rscale>  0 0.10657215E+04</rscale>
<asrwt>0</asrwt>
<pdfrwt beam="1">  1        1 0.29025584E+00 0.10657215E+04</pdfrwt>
<pdfrwt beam="2">  1       -1 0.23153668E-01 0.10657215E+04</pdfrwt>
<totfact> 0.56875362E+01</totfact>
</mgrwt>
</event>
<event>
 6    1  0.1028026E-006  0.2136285E+04  0.7818608E-02  0.8545426E-01
         -2   -1    0    0    0  501 -0.00000000000E+00  0.00000000000E+00  0.69842385111E+03  0.69842385111E+03  0.00000000000E+00 0.  1.
          2   -1    0    0  501    0  0.00000000000E+00 -0.00000000000E+00 -0.16335763384E+04  0.16335763384E+04  0.00000000000E+00 0. -1.
         23    2    1    2    0    0 -0.21869577447E+03  0.10309294198E+04 -0.64452359246E+03  0.12387900245E+04  0.92448652172E+02 0.  0.
         11    1    3    3    0    0 -0.17972263146E+03  0.94849687314E+03 -0.57051464198E+03  0.11213534230E+04  0.00000000000E+00 0.  1.
        -11    1    3    3    0    0 -0.38973143008E+02  0.82432546653E+02 -0.74008950477E+02  0.11743660151E+03  0.00000000000E+00 0. -1.
         22    1    1    2    0    0  0.21869577447E+03 -0.10309294198E+04 -0.29062889487E+03  0.10932101650E+04  0.00000000000E+00 0.  1.
<mgrwt>
<rscale>  0 0.21362853E+04</rscale>
<asrwt>0</asrwt>
<pdfrwt beam="1">  1        2 0.25131944E+00 0.21362853E+04</pdfrwt>
<pdfrwt beam="2">  1       -2 0.10744982E+00 0.21362853E+04</pdfrwt>
<totfact> 0.68243369E+00</totfact>
</mgrwt>
</event>
<event>
 6    1  0.1028026E-006  0.2124201E+04  0.7818608E-02  0.8550657E-01
          2   -1    0    0  501    0  0.00000000000E+00  0.00000000000E+00  0.51520681686E+03  0.51520681686E+03  0.00000000000E+00 0. -1.
         -2   -1    0    0    0  501 -0.00000000000E+00 -0.00000000000E+00 -0.21895237200E+04  0.21895237200E+04  0.00000000000E+00 0.  1.
         23    2    1    2    0    0  0.61147735609E+03  0.85732936929E+03 -0.99451885752E+03  0.14513177608E+04  0.91308708848E+02 0.  0.
         11    1    3    3    0    0  0.28330349661E+03  0.47454203246E+03 -0.53099578494E+03  0.76642516620E+03  0.00000000000E+00 0. -1.
        -11    1    3    3    0    0  0.32817385948E+03  0.38278733683E+03 -0.46352307258E+03  0.68489259457E+03  0.00000000000E+00 0.  1.
         22    1    1    2    0    0 -0.61147735609E+03 -0.85732936929E+03 -0.67979804566E+03  0.12534127761E+04  0.00000000000E+00 0. -1.
<mgrwt>
<rscale>  0 0.21242011E+04</rscale>
<asrwt>0</asrwt>
<pdfrwt beam="1">  1        2 0.79262588E-01 0.21242011E+04</pdfrwt>
<pdfrwt beam="2">  1       -2 0.33684980E+00 0.21242011E+04</pdfrwt>
<totfact> 0.10305505E+00</totfact>
</mgrwt>
</event>
<event>
 6    1  0.1680775E-006  0.3460564E+04  0.7818608E-02  0.8123200E-01
         -2   -1    0    0    0  501 -0.00000000000E+00  0.00000000000E+00  0.12699500108E+04  0.12699500108E+04  0.00000000000E+00 0.  1.
          2   -1    0    0  501    0  0.00000000000E+00 -0.00000000000E+00 -0.23574748481E+04  0.23574748481E+04  0.00000000000E+00 0. -1.
         23    2    1    2    0    0  0.11178487826E+01 -0.12677627847E+04 -0.17764694792E+04  0.21845567265E+04  0.96023709349E+02 0.  0.
         13    1    3    3    0    0  0.40803332249E+02 -0.98003997971E+03 -0.13617563166E+04  0.16782501421E+04  0.00000000000E+00 0.  1.
        -13    1    3    3    0    0 -0.39685483466E+02 -0.28772280500E+03 -0.41471316260E+03  0.50630658434E+03  0.00000000000E+00 0. -1.
         22    1    1    2    0    0 -0.11178487826E+01  0.12677627847E+04  0.68894464187E+03  0.14428681324E+04  0.00000000000E+00 0.  1.
<mgrwt>
<rscale>  0 0.34605637E+04</rscale>
<asrwt>0</asrwt>
<pdfrwt beam="1">  1        2 0.36268843E+00 0.34605637E+04</pdfrwt>
<pdfrwt beam="2">  1       -2 0.19537693E+00 0.34605637E+04</pdfrwt>
<totfact> 0.49456674E-01</totfact>
</mgrwt>
</event>
<event>
 6    1  0.1028026E-006  0.6183620E+03  0.7818608E-02  0.9868026E-01
         -2   -1    0    0    0  501 -0.00000000000E+00  0.00000000000E+00  0.53275664723E+02  0.53275664723E+02  0.00000000000E+00 0.  1.
          2   -1    0    0  501    0  0.00000000000E+00 -0.00000000000E+00 -0.17943068193E+04  0.17943068193E+04  0.00000000000E+00 0. -1.
         23    2    1    2    0    0  0.59102786810E+02 -0.22332755303E+03 -0.14724501612E+04  0.14933169264E+04  0.92291007068E+02 0.  0.
         13    1    3    3    0    0  0.22360392540E+02 -0.33804727973E+02 -0.51533844474E+03  0.51692983994E+03  0.00000000000E+00 0. -1.
        -13    1    3    3    0    0  0.36742394270E+02 -0.18952282505E+03 -0.95711171646E+03  0.97638708642E+03  0.00000000000E+00 0.  1.
         22    1    1    2    0    0 -0.59102786810E+02  0.22332755303E+03 -0.26858099342E+03  0.35426555770E+03  0.00000000000E+00 0. -1.
<mgrwt>
<rscale>  0 0.61836199E+03</rscale>
<asrwt>0</asrwt>
<pdfrwt beam="1">  1        2 0.27604725E+00 0.61836199E+03</pdfrwt>
<pdfrwt beam="2">  1       -2 0.81962548E-02 0.61836199E+03</pdfrwt>
<totfact> 0.84410825E+02</totfact>
</mgrwt>
</event>
<event>
 6    1  0.1028026E-006  0.1770050E+04  0.7818608E-02  0.8722391E-01
         -2   -1    0    0    0  501 -0.00000000000E+00  0.00000000000E+00  0.56949782836E+03  0.56949782836E+03  0.00000000000E+00 0.  1.
          2   -1    0    0  501    0  0.00000000000E+00 -0.00000000000E+00 -0.13753678678E+04  0.13753678678E+04  0.00000000000E+00 0. -1.
         23    2    1    2    0    0  0.55070097082E+02 -0.38847980188E+03  0.46484521005E+03  0.61495347449E+03  0.90207729294E+02 0.  0.
         11    1    3    3    0    0 -0.21171233210E+02 -0.14263202320E+03  0.14637687750E+03  0.20547093572E+03  0.00000000000E+00 0.  1.
        -11    1    3    3    0    0  0.76241330292E+02 -0.24584777868E+03  0.31846833254E+03  0.40948253877E+03  0.00000000000E+00 0. -1.
         22    1    1    2    0    0 -0.55070097082E+02  0.38847980188E+03 -0.12707152495E+04  0.13299122217E+04  0.00000000000E+00 0. -1.
<mgrwt>
<rscale>  0 0.17700497E+04</rscale>
<asrwt>0</asrwt>
<pdfrwt beam="1">  1        2 0.21159505E+00 0.17700497E+04</pdfrwt>
<pdfrwt beam="2">  1       -2 0.87615052E-01 0.17700497E+04</pdfrwt>
<totfact> 0.15905866E+01</totfact>
</mgrwt>
</event>
<event>
 6    1  0.1028026E-006  0.3486161E+04  0.7818608E-02  0.8117077E-01
         -2   -1    0    0    0  501 -0.00000000000E+00  0.00000000000E+00  0.24803316575E+04  0.24803316575E+04  0.00000000000E+00 0.  1.
          2   -1    0    0  501    0  0.00000000000E+00 -0.00000000000E+00 -0.12249693326E+04  0.12249693326E+04  0.00000000000E+00 0. -1.
         23    2    1    2    0    0  0.17123501408E+04  0.28590874260E+02  0.96625721944E+03  0.19684814242E+04  0.91135396297E+02 0.  0.
         13    1    3    3    0    0  0.35916442195E+03  0.13526716242E+02  0.24527308560E+03  0.43513324461E+03  0.00000000000E+00 0. -1.
        -13    1    3    3    0    0  0.13531857188E+04  0.15064158019E+02  0.72098413385E+03  0.15333481796E+04  0.00000000000E+00 0.  1.
         22    1    1    2    0    0 -0.17123501408E+04 -0.28590874260E+02  0.28910510545E+03  0.17368195660E+04  0.00000000000E+00 0. -1.
<mgrwt>
<rscale>  0 0.34861613E+04</rscale>
<asrwt>0</asrwt>
<pdfrwt beam="1">  1        2 0.18845682E+00 0.34861613E+04</pdfrwt>
<pdfrwt beam="2">  1       -2 0.38158949E+00 0.34861613E+04</pdfrwt>
<totfact> 0.14711984E-01</totfact>
</mgrwt>
</event>
<event>
 6    1  0.1028026E-006  0.4467716E+04  0.7818608E-02  0.7916313E-01
         -1   -1    0    0    0  501 -0.00000000000E+00  0.00000000000E+00  0.14314709160E+04  0.14314709160E+04  0.00000000000E+00 0.  1.
          1   -1    0    0  501    0  0.00000000000E+00 -0.00000000000E+00 -0.34860090322E+04  0.34860090322E+04  0.00000000000E+00 0. -1.
         23    2    1    2    0    0  0.15950817071E+04  0.12778035030E+03 -0.27418178705E+04  0.31759384096E+04  0.91684656954E+02 0.  0.
         11    1    3    3    0    0  0.50252436341E+03  0.66020644457E+02 -0.93643909674E+03  0.10648040398E+04  0.00000000000E+00 0.  1.
        -11    1    3    3    0    0  0.10925573436E+04  0.61759705846E+02 -0.18053787738E+04  0.21111343698E+04  0.00000000000E+00 0. -1.
         22    1    1    2    0    0 -0.15950817071E+04 -0.12778035030E+03  0.68727975424E+03  0.17415415386E+04  0.00000000000E+00 0.  1.
<mgrwt>
<rscale>  0 0.44677155E+04</rscale>
<asrwt>0</asrwt>
<pdfrwt beam="1">  1        1 0.53630908E+00 0.44677155E+04</pdfrwt>
<pdfrwt beam="2">  1       -1 0.22022630E+00 0.44677155E+04</pdfrwt>
<totfact> 0.21149828E-02</totfact>
</mgrwt>
</event>
<event>
 6    1  0.1028026E-006  0.1826515E+04  0.7818608E-02  0.8692325E-01
          4   -1    0    0  501    0  0.00000000000E+00  0.00000000000E+00  0.94320281295E+03  0.94320281295E+03  0.00000000000E+00 0. -1.
         -4   -1    0    0    0  501 -0.00000000000E+00 -0.00000000000E+00 -0.88426281205E+03  0.88426281205E+03  0.00000000000E+00 0.  1.
         23    2    1    2    0    0 -0.39529141512E+02 -0.87878712456E+03 -0.20718613182E+03  0.90841585385E+03  0.91999494536E+02 0.  0.
         13    1    3    3    0    0  0.14609938945E+02 -0.46910862992E+03 -0.13982237110E+03  0.48972099449E+03  0.00000000000E+00 0.  1.
        -13    1    3    3    0    0 -0.54139080457E+02 -0.40967849463E+03 -0.67363760726E+02  0.41869485936E+03  0.00000000000E+00 0. -1.
         22    1    1    2    0    0  0.39529141512E+02  0.87878712456E+03  0.26612613272E+03  0.91904977114E+03  0.00000000000E+00 0. -1.
<mgrwt>
<rscale>  0 0.18265149E+04</rscale>
<asrwt>0</asrwt>
<pdfrwt beam="1">  1        4 0.14510812E+00 0.18265149E+04</pdfrwt>
<pdfrwt beam="2">  1       -4 0.13604043E+00 0.18265149E+04</pdfrwt>
<totfact> 0.23612448E-01</totfact>
</mgrwt>
</event>
<event>
 6    1  0.1028026E-006  0.2573784E+04  0.7818608E-02  0.8377161E-01
         -2   -1    0    0    0  501 -0.00000000000E+00  0.00000000000E+00  0.19209263009E+04  0.19209263009E+04  0.00000000000E+00 0.  1.
          2   -1    0    0  501    0  0.00000000000E+00 -0.00000000000E+00 -0.86213140486E+03  0.86213140486E+03  0.00000000000E+00 0. -1.
         23    2    1    2    0    0  0.32361165203E+03 -0.28230549860E+03 -0.77886193145E+03  0.89588958619E+03  0.10757019336E+03 0.  0.
         13    1    3    3    0    0  0.94101139910E+02 -0.86470771760E+02 -0.34088276681E+03  0.36405120465E+03  0.00000000000E+00 0. -1.
        -13    1    3    3    0    0  0.22951051212E+03 -0.19583472684E+03 -0.43797916465E+03  0.53183838154E+03  0.00000000000E+00 0.  1.
         22    1    1    2    0    0 -0.32361165203E+03  0.28230549860E+03  0.18376568275E+04  0.18871681196E+04  0.00000000000E+00 0.  1.
<mgrwt>
<rscale>  0 0.25737839E+04</rscale>
<asrwt>0</asrwt>
<pdfrwt beam="1">  1        2 0.13263560E+00 0.25737839E+04</pdfrwt>
<pdfrwt beam="2">  1       -2 0.29552712E+00 0.25737839E+04</pdfrwt>
<totfact> 0.93416321E-01</totfact>
</mgrwt>
</event>
<event>
 6    1  0.1028026E-006  0.2477608E+04  0.7818608E-02  0.8411006E-01
          1   -1    0    0  501    0  0.00000000000E+00  0.00000000000E+00  0.29002838147E+04  0.29002838147E+04  0.00000000000E+00 0. -1.
         -1   -1    0    0    0  501 -0.00000000000E+00 -0.00000000000E+00 -0.52913300170E+03  0.52913300170E+03  0.00000000000E+00 0.  1.
         23    2    1    2    0    0  0.92696287300E+02 -0.44751201180E+03  0.27784363152E+04  0.28172558223E+04  0.91446203370E+02 0.  0.
         13    1    3    3    0    0  0.17739857901E+02 -0.23749734544E+03  0.16380160555E+04  0.16552390431E+04  0.00000000000E+00 0.  1.
        -13    1    3    3    0    0  0.74956429399E+02 -0.21001466635E+03  0.11404202597E+04  0.11620167792E+04  0.00000000000E+00 0. -1.
         22    1    1    2    0    0 -0.92696287300E+02  0.44751201180E+03 -0.40728550222E+03  0.61216099410E+03  0.00000000000E+00 0.  1.
<mgrwt>
<rscale>  0 0.24776084E+04</rscale>
<asrwt>0</asrwt>
<pdfrwt beam="1">  1        1 0.44619750E+00 0.24776084E+04</pdfrwt>
<pdfrwt beam="2">  1       -1 0.81405079E-01 0.24776084E+04</pdfrwt>
<totfact> 0.94459160E-01</totfact>
</mgrwt>
</event>
<event>
 6    1  0.1028026E-006  0.6215569E+04  0.7818608E-02  0.7664234E-01
         -2   -1    0    0    0  501 -0.00000000000E+00  0.00000000000E+00  0.29929218314E+04  0.29929218314E+04  0.00000000000E+00 0.  1.
          2   -1    0    0  501    0  0.00000000000E+00 -0.00000000000E+00 -0.32270557361E+04  0.32270557361E+04  0.00000000000E+00 0. -1.
         23    2    1    2    0    0 -0.26346228719E+04  0.14815502250E+04 -0.83722857845E+03  0.31377783637E+04  0.92046839343E+02 0.  0.
         13    1    3    3    0    0 -0.11374558896E+04  0.58894105387E+03 -0.34345421690E+03  0.13261290528E+04  0.00000000000E+00 0. -1.
        -13    1    3    3    0    0 -0.14971669823E+04  0.89260917111E+03 -0.49377436155E+03  0.18116493109E+04  0.00000000000E+00 0.  1.
         22    1    1    2    0    0  0.26346228719E+04 -0.14815502250E+04  0.60309467381E+03  0.30821992038E+04  0.00000000000E+00 0. -1.
<mgrwt>
<rscale>  0 0.62155693E+04</rscale>
<asrwt>0</asrwt>
<pdfrwt beam="1">  1        2 0.49647011E+00 0.62155693E+04</pdfrwt>
<pdfrwt beam="2">  1       -2 0.46044951E+00 0.62155693E+04</pdfrwt>
<totfact> 0.24537602E-03</totfact>
</mgrwt>
</event>
<event>
 6    1  0.1028026E-006  0.3074125E+04  0.7818608E-02  0.8222875E-01
         -2   -1    0    0    0  501 -0.00000000000E+00  0.00000000000E+00  0.16095995275E+04  0.16095995275E+04  0.00000000000E+00 0.  1.
          2   -1    0    0  501    0  0.00000000000E+00 -0.00000000000E+00 -0.14677943414E+04  0.14677943414E+04  0.00000000000E+00 0. -1.
         23    2    1    2    0    0  0.13700258299E+04  0.66108309408E+03  0.27445362854E+03  0.15504370126E+04  0.12053424432E+03 0.  0.
         13    1    3    3    0    0  0.30769243110E+03  0.94310044862E+02  0.63549005489E+02  0.32803581026E+03  0.00000000000E+00 0. -1.
        -13    1    3    3    0    0  0.10623333988E+04  0.56677304922E+03  0.21090462305E+03  0.12224012023E+04  0.00000000000E+00 0.  1.
         22    1    1    2    0    0 -0.13700258299E+04 -0.66108309408E+03 -0.13264844246E+03  0.15269568563E+04  0.00000000000E+00 0.  1.
<mgrwt>
<rscale>  0 0.30741250E+04</rscale>
<asrwt>0</asrwt>
<pdfrwt beam="1">  1        2 0.22581451E+00 0.30741250E+04</pdfrwt>
<pdfrwt beam="2">  1       -2 0.24763070E+00 0.30741250E+04</pdfrwt>
<totfact> 0.74856981E-01</totfact>
</mgrwt>
</event>
<event>
 6    1  0.1028026E-006  0.4341761E+04  0.7818608E-02  0.7938941E-01
          1   -1    0    0  501    0  0.00000000000E+00  0.00000000000E+00  0.31248694376E+04  0.31248694376E+04  0.00000000000E+00 0. -1.
         -1   -1    0    0    0  501 -0.00000000000E+00 -0.00000000000E+00 -0.15081337875E+04  0.15081337875E+04  0.00000000000E+00 0.  1.
         23    2    1    2    0    0 -0.14627997591E+04 -0.14706689321E+04  0.14886282277E+04  0.25547679750E+04  0.90416607810E+02 0.  0.
         11    1    3    3    0    0 -0.45020030248E+03 -0.40567212232E+03  0.40486982348E+03  0.72881393864E+03  0.00000000000E+00 0.  1.
        -11    1    3    3    0    0 -0.10125994566E+04 -0.10649968097E+04  0.10837584042E+04  0.18259540364E+04  0.00000000000E+00 0. -1.
         22    1    1    2    0    0  0.14627997591E+04  0.14706689321E+04  0.12810742243E+03  0.20782352500E+04  0.00000000000E+00 0.  1.
<mgrwt>
<rscale>  0 0.43417606E+04</rscale>
<asrwt>0</asrwt>
<pdfrwt beam="1">  1        1 0.48074914E+00 0.43417606E+04</pdfrwt>
<pdfrwt beam="2">  1       -1 0.23202058E+00 0.43417606E+04</pdfrwt>
<totfact> 0.33677498E-02</totfact>
</mgrwt>
</event>
<event>
 6    1  0.1028026E-006  0.9792531E+03  0.7818608E-02  0.9331597E-01
          1   -1    0    0  501    0  0.00000000000E+00  0.00000000000E+00  0.12476838364E+04  0.12476838364E+04  0.00000000000E+00 0. -1.
         -1   -1    0    0    0  501 -0.00000000000E+00 -0.00000000000E+00 -0.19214333897E+03  0.19214333897E+03  0.00000000000E+00 0.  1.
         23    2    1    2    0    0 -0.47540492366E+03 -0.83687071718E+02  0.51887156779E+03  0.71800523926E+03  0.11528422410E+03 0.  0.
         13    1    3    3    0    0 -0.19551715781E+03 -0.79705373941E+02  0.17236045078E+03  0.27255830684E+03  0.00000000000E+00 0. -1.
        -13    1    3    3    0    0 -0.27988776585E+03 -0.39816977764E+01  0.34651111701E+03  0.44544693242E+03  0.00000000000E+00 0.  1.
         22    1    1    2    0    0  0.47540492366E+03  0.83687071718E+02  0.53666892964E+03  0.72182193611E+03  0.00000000000E+00 0.  1.
<mgrwt>
<rscale>  0 0.97925306E+03</rscale>
<asrwt>0</asrwt>
<pdfrwt beam="1">  1        1 0.19195135E+00 0.97925306E+03</pdfrwt>
<pdfrwt beam="2">  1       -1 0.29560514E-01 0.97925306E+03</pdfrwt>
<totfact> 0.10358647E+02</totfact>
</mgrwt>
</event>
<event>
 6    1  0.1028026E-006  0.1653173E+04  0.7818608E-02  0.8788531E-01
          2   -1    0    0  501    0  0.00000000000E+00  0.00000000000E+00  0.21796930761E+04  0.21796930761E+04  0.00000000000E+00 0. -1.
         -2   -1    0    0    0  501 -0.00000000000E+00 -0.00000000000E+00 -0.31345944354E+03  0.31345944354E+03  0.00000000000E+00 0.  1.
         23    2    1    2    0    0 -0.32566892181E+03  0.19115452812E+03 -0.16878387216E+03  0.42339491432E+03  0.90415472740E+02 0.  0.
         11    1    3    3    0    0 -0.17343694339E+03  0.53326661849E+02 -0.97720431705E+02  0.20609072994E+03  0.00000000000E+00 0.  1.
        -11    1    3    3    0    0 -0.15223197843E+03  0.13782786627E+03 -0.71063440451E+02  0.21730418437E+03  0.00000000000E+00 0. -1.
         22    1    1    2    0    0  0.32566892181E+03 -0.19115452812E+03  0.20350175047E+04  0.20697576053E+04  0.00000000000E+00 0. -1.
<mgrwt>
<rscale>  0 0.16531732E+04</rscale>
<asrwt>0</asrwt>
<pdfrwt beam="1">  1        2 0.33533739E+00 0.16531732E+04</pdfrwt>
<pdfrwt beam="2">  1       -2 0.48224531E-01 0.16531732E+04</pdfrwt>
<totfact> 0.20635113E+01</totfact>
</mgrwt>
</event>
<event>
 6    1  0.1028026E-006  0.1856243E+04  0.7818608E-02  0.8676949E-01
          1   -1    0    0  501    0  0.00000000000E+00  0.00000000000E+00  0.12730973407E+04  0.12730973407E+04  0.00000000000E+00 0. -1.
         -1   -1    0    0    0  501 -0.00000000000E+00 -0.00000000000E+00 -0.67662470916E+03  0.67662470916E+03  0.00000000000E+00 0.  1.
         23    2    1    2    0    0 -0.16101665473E+03 -0.72756278138E+03 -0.27915345547E+03  0.79994163247E+03  0.81890168631E+02 0.  0.
         11    1    3    3    0    0 -0.15568343815E+03 -0.53986651877E+03 -0.20700551432E+03  0.59878583313E+03  0.00000000000E+00 0. -1.
        -11    1    3    3    0    0 -0.53332165799E+01 -0.18769626261E+03 -0.72147941150E+02  0.20115579934E+03  0.00000000000E+00 0.  1.
         22    1    1    2    0    0  0.16101665473E+03  0.72756278138E+03  0.87562608700E+03  0.11497804174E+04  0.00000000000E+00 0. -1.
<mgrwt>
<rscale>  0 0.18562426E+04</rscale>
<asrwt>0</asrwt>
<pdfrwt beam="1">  1        1 0.19586113E+00 0.18562426E+04</pdfrwt>
<pdfrwt beam="2">  1       -1 0.10409611E+00 0.18562426E+04</pdfrwt>
<totfact> 0.77152153E+00</totfact>
</mgrwt>
</event>
<event>
 6    1  0.1028026E-006  0.3825479E+04  0.7818608E-02  0.8040709E-01
         -2   -1    0    0    0  501 -0.00000000000E+00  0.00000000000E+00  0.17817719089E+04  0.17817719089E+04  0.00000000000E+00 0.  1.
          2   -1    0    0  501    0  0.00000000000E+00 -0.00000000000E+00 -0.20533335754E+04  0.20533335754E+04  0.00000000000E+00 0. -1.
         23    2    1    2    0    0  0.17378145854E+04 -0.12513673889E+03  0.65270870087E+03  0.18628138099E+04  0.91585510076E+02 0.  0.
         11    1    3    3    0    0  0.11585848194E+04 -0.10590069279E+03  0.39609056925E+03  0.12289920584E+04  0.00000000000E+00 0.  1.
        -11    1    3    3    0    0  0.57922976599E+03 -0.19236046103E+02  0.25661813162E+03  0.63382175157E+03  0.00000000000E+00 0. -1.
         22    1    1    2    0    0 -0.17378145854E+04  0.12513673889E+03 -0.92427036745E+03  0.19722916744E+04  0.00000000000E+00 0. -1.
<mgrwt>
<rscale>  0 0.38254788E+04</rscale>
<asrwt>0</asrwt>
<pdfrwt beam="1">  1        2 0.31589747E+00 0.38254788E+04</pdfrwt>
<pdfrwt beam="2">  1       -2 0.27411876E+00 0.38254788E+04</pdfrwt>
<totfact> 0.22836440E-01</totfact>
</mgrwt>
</event>
<event>
 6    1  0.1028026E-006  0.2825982E+04  0.7818608E-02  0.8295247E-01
         -2   -1    0    0    0  501 -0.00000000000E+00  0.00000000000E+00  0.56682114900E+03  0.56682114900E+03  0.00000000000E+00 0.  1.
          2   -1    0    0  501    0  0.00000000000E+00 -0.00000000000E+00 -0.35223522182E+04  0.35223522182E+04  0.00000000000E+00 0. -1.
         23    2    1    2    0    0 -0.43718037041E+03  0.77596655237E+03 -0.30638149179E+04  0.31919687314E+04  0.91933475814E+02 0.  0.
         13    1    3    3    0    0 -0.22853035104E+03  0.47480702855E+03 -0.16995484225E+04  0.17793629973E+04  0.00000000000E+00 0.  1.
        -13    1    3    3    0    0 -0.20865001936E+03  0.30115952382E+03 -0.13642664954E+04  0.14126057340E+04  0.00000000000E+00 0. -1.
         22    1    1    2    0    0  0.43718037041E+03 -0.77596655237E+03  0.10828384874E+03  0.89720463584E+03  0.00000000000E+00 0.  1.
<mgrwt>
<rscale>  0 0.28259821E+04</rscale>
<asrwt>0</asrwt>
<pdfrwt beam="1">  1        2 0.54190034E+00 0.28259821E+04</pdfrwt>
<pdfrwt beam="2">  1       -2 0.87203254E-01 0.28259821E+04</pdfrwt>
<totfact> 0.77355343E-01</totfact>
</mgrwt>
</event>
<event>
 6    1  0.1028026E-006  0.1357966E+04  0.7818608E-02  0.8984820E-01
          1   -1    0    0  501    0  0.00000000000E+00  0.00000000000E+00  0.12592180280E+04  0.12592180280E+04  0.00000000000E+00 0. -1.
         -1   -1    0    0    0  501 -0.00000000000E+00 -0.00000000000E+00 -0.36611448823E+03  0.36611448823E+03  0.00000000000E+00 0.  1.
         23    2    1    2    0    0  0.14672924602E+03  0.58911407163E+03  0.80406615475E+03  0.10117263584E+04  0.92103105012E+02 0.  0.
         11    1    3    3    0    0  0.15726447615E+03  0.49563845873E+03  0.68157203699E+03  0.85728060682E+03  0.00000000000E+00 0. -1.
        -11    1    3    3    0    0 -0.10535230132E+02  0.93475612901E+02  0.12249411776E+03  0.15444575153E+03  0.00000000000E+00 0.  1.
         22    1    1    2    0    0 -0.14672924602E+03 -0.58911407163E+03  0.89037384990E+02  0.61360615785E+03  0.00000000000E+00 0.  1.
<mgrwt>
<rscale>  0 0.13579661E+04</rscale>
<asrwt>0</asrwt>
<pdfrwt beam="1">  1        1 0.19372585E+00 0.13579661E+04</pdfrwt>
<pdfrwt beam="2">  1       -1 0.56325307E-01 0.13579661E+04</pdfrwt>
<totfact> 0.30191752E+01</totfact>
</mgrwt>
</event>
<event>
 6    1  0.1028026E-006  0.1397168E+04  0.7818608E-02  0.8955871E-01
         -2   -1    0    0    0  501 -0.00000000000E+00  0.00000000000E+00  0.76904029602E+03  0.76904029602E+03  0.00000000000E+00 0.  1.
          2   -1    0    0  501    0  0.00000000000E+00 -0.00000000000E+00 -0.63458243353E+03  0.63458243353E+03  0.00000000000E+00 0. -1.
         23    2    1    2    0    0 -0.11616459849E+03 -0.24415645641E+03  0.71147002829E+03  0.76640249397E+03  0.89869863995E+02 0.  0.
         11    1    3    3    0    0 -0.90419606174E+02 -0.15478176370E+03  0.56629310652E+03  0.59398735849E+03  0.00000000000E+00 0. -1.
        -11    1    3    3    0    0 -0.25744992312E+02 -0.89374692714E+02  0.14517692177E+03  0.17241513548E+03  0.00000000000E+00 0.  1.
         22    1    1    2    0    0  0.11616459849E+03  0.24415645641E+03 -0.57701216580E+03  0.63722023558E+03  0.00000000000E+00 0. -1.
<mgrwt>
<rscale>  0 0.13971678E+04</rscale>
<asrwt>0</asrwt>
<pdfrwt beam="1">  1        2 0.97628067E-01 0.13971678E+04</pdfrwt>
<pdfrwt beam="2">  1       -2 0.11831389E+00 0.13971678E+04</pdfrwt>
<totfact> 0.24794434E+01</totfact>
</mgrwt>
</event>
<event>
 6    1  0.1028026E-006  0.1104366E+04  0.7818608E-02  0.9200947E-01
         -2   -1    0    0    0  501 -0.00000000000E+00  0.00000000000E+00  0.88089030160E+02  0.88089030160E+02  0.00000000000E+00 0.  1.
          2   -1    0    0  501    0  0.00000000000E+00 -0.00000000000E+00 -0.34613368357E+04  0.34613368357E+04  0.00000000000E+00 0. -1.
         23    2    1    2    0    0 -0.23687227428E+03  0.47116924267E+03 -0.12189987708E+04  0.13315670261E+04  0.94888419430E+02 0.  0.
         13    1    3    3    0    0 -0.17823915868E+03  0.33800640525E+03 -0.77038500679E+03  0.85994801376E+03  0.00000000000E+00 0.  1.
        -13    1    3    3    0    0 -0.58633115605E+02  0.13316283741E+03 -0.44861376402E+03  0.47161901232E+03  0.00000000000E+00 0. -1.
         22    1    1    2    0    0  0.23687227428E+03 -0.47116924267E+03 -0.21542490347E+04  0.22178588397E+04  0.00000000000E+00 0. -1.
<mgrwt>
<rscale>  0 0.11043655E+04</rscale>
<asrwt>0</asrwt>
<pdfrwt beam="1">  1        2 0.53251333E+00 0.11043655E+04</pdfrwt>
<pdfrwt beam="2">  1       -2 0.13552159E-01 0.11043655E+04</pdfrwt>
<totfact> 0.36880648E+01</totfact>
</mgrwt>
</event>
<event>
 6    1  0.1028026E-006  0.4507876E+04  0.7818608E-02  0.7909259E-01
         -2   -1    0    0    0  501 -0.00000000000E+00  0.00000000000E+00  0.19378240453E+04  0.19378240453E+04  0.00000000000E+00 0.  1.
          2   -1    0    0  501    0  0.00000000000E+00 -0.00000000000E+00 -0.26216195987E+04  0.26216195987E+04  0.00000000000E+00 0. -1.
         23    2    1    2    0    0  0.11331468574E+04  0.19421097234E+04 -0.48641516958E+03  0.23022837040E+04  0.89991991138E+02 0.  0.
         13    1    3    3    0    0  0.97083321450E+03  0.16854168426E+04 -0.44994764744E+03  0.19963967414E+04  0.00000000000E+00 0.  1.
        -13    1    3    3    0    0  0.16231364290E+03  0.25669288085E+03 -0.36467522142E+02  0.30588696266E+03  0.00000000000E+00 0. -1.
         22    1    1    2    0    0 -0.11331468574E+04 -0.19421097234E+04 -0.19738038382E+03  0.22571599399E+04  0.00000000000E+00 0.  1.
<mgrwt>
<rscale>  0 0.45078764E+04</rscale>
<asrwt>0</asrwt>
<pdfrwt beam="1">  1        2 0.40332609E+00 0.45078764E+04</pdfrwt>
<pdfrwt beam="2">  1       -2 0.29812678E+00 0.45078764E+04</pdfrwt>
<totfact> 0.73027155E-02</totfact>
</mgrwt>
</event>
<event>
 6    1  0.1028026E-006  0.5419686E+03  0.7818608E-02  0.1003370E+00
          1   -1    0    0  501    0  0.00000000000E+00  0.00000000000E+00  0.11325562372E+03  0.11325562372E+03  0.00000000000E+00 0. -1.
         -1   -1    0    0    0  501 -0.00000000000E+00 -0.00000000000E+00 -0.64837838140E+03  0.64837838140E+03  0.00000000000E+00 0.  1.
         23    2    1    2    0    0  0.93815145525E+02  0.15186642010E+03 -0.27903930488E+01  0.20016945813E+03  0.90528087319E+02 0.  0.
         13    1    3    3    0    0  0.59952651509E+02  0.14689025275E+03 -0.23167608755E+02  0.16033653629E+03  0.00000000000E+00 0.  1.
        -13    1    3    3    0    0  0.33862494016E+02  0.49761673493E+01  0.20377215707E+02  0.39832921841E+02  0.00000000000E+00 0. -1.
         22    1    1    2    0    0 -0.93815145525E+02 -0.15186642010E+03 -0.53233236463E+03  0.56146454698E+03  0.00000000000E+00 0.  1.
<mgrwt>
<rscale>  0 0.54196863E+03</rscale>
<asrwt>0</asrwt>
<pdfrwt beam="1">  1        1 0.17423942E-01 0.54196863E+03</pdfrwt>
<pdfrwt beam="2">  1       -1 0.99750521E-01 0.54196863E+03</pdfrwt>
<totfact> 0.30755607E+02</totfact>
</mgrwt>
</event>
<event>
 6    1  0.1028026E-006  0.1893022E+04  0.7818608E-02  0.8658338E-01
         -2   -1    0    0    0  501 -0.00000000000E+00  0.00000000000E+00  0.55140279388E+03  0.55140279388E+03  0.00000000000E+00 0.  1.
          2   -1    0    0  501    0  0.00000000000E+00 -0.00000000000E+00 -0.16247345343E+04  0.16247345343E+04  0.00000000000E+00 0. -1.
         23    2    1    2    0    0 -0.31386483720E+03 -0.79839518226E+03 -0.85838567862E+02  0.86805141016E+03  0.10099003849E+03 0.  0.
         11    1    3    3    0    0 -0.24297111773E+03 -0.54915473454E+03 -0.20693130879E+02  0.60086112554E+03  0.00000000000E+00 0. -1.
        -11    1    3    3    0    0 -0.70893719472E+02 -0.24924044772E+03 -0.65145436983E+02  0.26719028463E+03  0.00000000000E+00 0.  1.
         22    1    1    2    0    0  0.31386483720E+03  0.79839518226E+03 -0.98749317255E+03  0.13080859180E+04  0.00000000000E+00 0.  1.
<mgrwt>
<rscale>  0 0.18930221E+04</rscale>
<asrwt>0</asrwt>
<pdfrwt beam="1">  1        2 0.24995916E+00 0.18930221E+04</pdfrwt>
<pdfrwt beam="2">  1       -2 0.84831200E-01 0.18930221E+04</pdfrwt>
<totfact> 0.12251925E+01</totfact>
</mgrwt>
</event>
<event>
 6    1  0.1028026E-006  0.2800304E+04  0.7818608E-02  0.8303174E-01
          2   -1    0    0  501    0  0.00000000000E+00  0.00000000000E+00  0.15035745455E+04  0.15035745455E+04  0.00000000000E+00 0. -1.
         -2   -1    0    0    0  501 -0.00000000000E+00 -0.00000000000E+00 -0.13038433914E+04  0.13038433914E+04  0.00000000000E+00 0.  1.
         23    2    1    2    0    0 -0.92461422627E+03 -0.64574017951E+03  0.92938455860E+03  0.14641808255E+04  0.90432213451E+02 0.  0.
         11    1    3    3    0    0 -0.35248682496E+03 -0.29486835501E+03  0.40302691549E+03  0.61124872447E+03  0.00000000000E+00 0.  1.
        -11    1    3    3    0    0 -0.57212740131E+03 -0.35087182450E+03  0.52635764312E+03  0.85293210106E+03  0.00000000000E+00 0. -1.
         22    1    1    2    0    0  0.92461422627E+03  0.64574017951E+03 -0.72965340452E+03  0.13432371114E+04  0.00000000000E+00 0.  1.
<mgrwt>
<rscale>  0 0.28003041E+04</rscale>
<asrwt>0</asrwt>
<pdfrwt beam="1">  1        2 0.23131916E+00 0.28003041E+04</pdfrwt>
<pdfrwt beam="2">  1       -2 0.20059129E+00 0.28003041E+04</pdfrwt>
<totfact> 0.14493460E+00</totfact>
</mgrwt>
</event>
<event>
 6    1  0.1028026E-006  0.1890191E+04  0.7818608E-02  0.8659754E-01
          2   -1    0    0  501    0  0.00000000000E+00  0.00000000000E+00  0.35566163838E+04  0.35566163838E+04  0.00000000000E+00 0. -1.
         -2   -1    0    0    0  501 -0.00000000000E+00 -0.00000000000E+00 -0.25113917582E+03  0.25113917582E+03  0.00000000000E+00 0.  1.
         23    2    1    2    0    0  0.76088975334E+03 -0.41000502931E+03  0.24152427237E+04  0.25669595338E+04  0.93949416096E+02 0.  0.
         11    1    3    3    0    0  0.34988670902E+03 -0.23438521106E+03  0.11009874896E+04  0.11787835207E+04  0.00000000000E+00 0.  1.
        -11    1    3    3    0    0  0.41100304432E+03 -0.17561981824E+03  0.13142552341E+04  0.13881760131E+04  0.00000000000E+00 0. -1.
         22    1    1    2    0    0 -0.76088975334E+03  0.41000502931E+03  0.89023448425E+03  0.12407960258E+04  0.00000000000E+00 0.  1.
<mgrwt>
<rscale>  0 0.18901912E+04</rscale>
<asrwt>0</asrwt>
<pdfrwt beam="1">  1        2 0.54717172E+00 0.18901912E+04</pdfrwt>
<pdfrwt beam="2">  1       -2 0.38636799E-01 0.18901912E+04</pdfrwt>
<totfact> 0.44319376E+00</totfact>
</mgrwt>
</event>
<event>
 6    1  0.1028026E-006  0.3241960E+04  0.7818608E-02  0.8177823E-01
          2   -1    0    0  501    0  0.00000000000E+00  0.00000000000E+00  0.15290282794E+04  0.15290282794E+04  0.00000000000E+00 0. -1.
         -2   -1    0    0    0  501 -0.00000000000E+00 -0.00000000000E+00 -0.17184618587E+04  0.17184618587E+04  0.00000000000E+00 0.  1.
         23    2    1    2    0    0  0.52884953127E+03  0.93581413027E+03 -0.13090219347E+04  0.16954244182E+04  0.74132443546E+02 0.  0.
         11    1    3    3    0    0  0.32134741616E+03  0.51602961449E+03 -0.69817153393E+03  0.92573982073E+03  0.00000000000E+00 0.  1.
        -11    1    3    3    0    0  0.20750211512E+03  0.41978451578E+03 -0.61085040079E+03  0.76968459749E+03  0.00000000000E+00 0. -1.
         22    1    1    2    0    0 -0.52884953127E+03 -0.93581413027E+03  0.11195883554E+04  0.15520657198E+04  0.00000000000E+00 0. -1.
<mgrwt>
<rscale>  0 0.32419604E+04</rscale>
<asrwt>0</asrwt>
<pdfrwt beam="1">  1        2 0.23523512E+00 0.32419604E+04</pdfrwt>
<pdfrwt beam="2">  1       -2 0.26437875E+00 0.32419604E+04</pdfrwt>
<totfact> 0.53809080E-01</totfact>
</mgrwt>
</event>
<event>
 6    1  0.1028026E-006  0.3627502E+04  0.7818608E-02  0.8084221E-01
         -2   -1    0    0    0  501 -0.00000000000E+00  0.00000000000E+00  0.17109115990E+04  0.17109115990E+04  0.00000000000E+00 0.  1.
          2   -1    0    0  501    0  0.00000000000E+00 -0.00000000000E+00 -0.19227720824E+04  0.19227720824E+04  0.00000000000E+00 0. -1.
         23    2    1    2    0    0  0.12919113302E+03 -0.39183946047E+03  0.16620382623E+04  0.17149015101E+04  0.91035666117E+02 0.  0.
         11    1    3    3    0    0  0.13236006820E+03 -0.27622228239E+03  0.11663158692E+04  0.12058651017E+04  0.00000000000E+00 0. -1.
        -11    1    3    3    0    0 -0.31689351796E+01 -0.11561717808E+03  0.49572239313E+03  0.50903640840E+03  0.00000000000E+00 0.  1.
         22    1    1    2    0    0 -0.12919113302E+03  0.39183946047E+03 -0.18738987457E+04  0.19187821713E+04  0.00000000000E+00 0. -1.
<mgrwt>
<rscale>  0 0.36275022E+04</rscale>
<asrwt>0</asrwt>
<pdfrwt beam="1">  1        2 0.29581109E+00 0.36275022E+04</pdfrwt>
<pdfrwt beam="2">  1       -2 0.26321717E+00 0.36275022E+04</pdfrwt>
<totfact> 0.31982721E-01</totfact>
</mgrwt>
</event>
<event>
 6    1  0.1028026E-006  0.3259371E+04  0.7818608E-02  0.8173311E-01
          2   -1    0    0  501    0  0.00000000000E+00  0.00000000000E+00  0.12822295440E+04  0.12822295440E+04  0.00000000000E+00 0. -1.
         -2   -1    0    0    0  501 -0.00000000000E+00 -0.00000000000E+00 -0.20712943862E+04  0.20712943862E+04  0.00000000000E+00 0.  1.
         23    2    1    2    0    0  0.35341496952E+03 -0.12852788369E+04  0.56751333108E+03  0.14516437632E+04  0.91402435144E+02 0.  0.
         13    1    3    3    0    0  0.99260084154E+02 -0.52595034966E+03  0.21691350835E+03  0.57751866180E+03  0.00000000000E+00 0.  1.
        -13    1    3    3    0    0  0.25415488537E+03 -0.75932848719E+03  0.35059982273E+03  0.87412510141E+03  0.00000000000E+00 0. -1.
         22    1    1    2    0    0 -0.35341496952E+03  0.12852788369E+04 -0.13565781733E+04  0.19018801669E+04  0.00000000000E+00 0.  1.
<mgrwt>
<rscale>  0 0.32593710E+04</rscale>
<asrwt>0</asrwt>
<pdfrwt beam="1">  1        2 0.19726609E+00 0.32593710E+04</pdfrwt>
<pdfrwt beam="2">  1       -2 0.31866067E+00 0.32593710E+04</pdfrwt>
<totfact> 0.34619429E-01</totfact>
</mgrwt>
</event>
<event>
 6    1  0.1028026E-006  0.3600129E+04  0.7818608E-02  0.8090462E-01
         -1   -1    0    0    0  501 -0.00000000000E+00  0.00000000000E+00  0.14124856013E+04  0.14124856013E+04  0.00000000000E+00 0.  1.
          1   -1    0    0  501    0  0.00000000000E+00 -0.00000000000E+00 -0.22939932694E+04  0.22939932694E+04  0.00000000000E+00 0. -1.
         23    2    1    2    0    0  0.17831397875E+04 -0.22195394222E+03 -0.35542736028E+03  0.18341510297E+04  0.94500461066E+02 0.  0.
         13    1    3    3    0    0  0.66915131568E+03 -0.64882404468E+02 -0.17578561266E+03  0.69489120825E+03  0.00000000000E+00 0. -1.
        -13    1    3    3    0    0  0.11139884718E+04 -0.15707153775E+03 -0.17964174763E+03  0.11392598214E+04  0.00000000000E+00 0.  1.
         22    1    1    2    0    0 -0.17831397875E+04  0.22195394222E+03 -0.52608030785E+03  0.18723278411E+04  0.00000000000E+00 0. -1.
<mgrwt>
<rscale>  0 0.36001291E+04</rscale>
<asrwt>0</asrwt>
<pdfrwt beam="1">  1        1 0.35292204E+00 0.36001291E+04</pdfrwt>
<pdfrwt beam="2">  1       -1 0.21730548E+00 0.36001291E+04</pdfrwt>
<totfact> 0.17441082E-01</totfact>
</mgrwt>
</event>
<event>
 6    1  0.1028026E-006  0.1630870E+04  0.7818608E-02  0.8801804E-01
          2   -1    0    0  501    0  0.00000000000E+00  0.00000000000E+00  0.62449058757E+03  0.62449058757E+03  0.00000000000E+00 0. -1.
         -2   -1    0    0    0  501 -0.00000000000E+00 -0.00000000000E+00 -0.10647629887E+04  0.10647629887E+04  0.00000000000E+00 0.  1.
         23    2    1    2    0    0 -0.28118462145E+03 -0.20078975087E+03  0.54123862138E+03  0.64870314372E+03  0.92169452622E+02 0.  0.
         11    1    3    3    0    0 -0.23659635071E+03 -0.12016980706E+03  0.39481986856E+03  0.47571140864E+03  0.00000000000E+00 0.  1.
        -11    1    3    3    0    0 -0.44588270740E+02 -0.80619943809E+02  0.14641875282E+03  0.17299173508E+03  0.00000000000E+00 0. -1.
         22    1    1    2    0    0  0.28118462145E+03  0.20078975087E+03 -0.98151102253E+03  0.10405504326E+04  0.00000000000E+00 0.  1.
<mgrwt>
<rscale>  0 0.16308703E+04</rscale>
<asrwt>0</asrwt>
<pdfrwt beam="1">  1        2 0.96075475E-01 0.16308703E+04</pdfrwt>
<pdfrwt beam="2">  1       -2 0.16380969E+00 0.16308703E+04</pdfrwt>
<totfact> 0.10664071E+01</totfact>
</mgrwt>
</event>
<event>
 6    1  0.1237308E-006  0.3538325E+04  0.7818608E-02  0.8104767E-01
          2   -1    0    0  501    0  0.00000000000E+00  0.00000000000E+00  0.27432082466E+04  0.27432082466E+04  0.00000000000E+00 0. -1.
         -2   -1    0    0    0  501 -0.00000000000E+00 -0.00000000000E+00 -0.11409763377E+04  0.11409763377E+04  0.00000000000E+00 0.  1.
         23    2    1    2    0    0  0.14928484086E+04  0.94683530911E+03  0.77114572437E+03  0.19307778884E+04  0.90244402917E+02 0.  0.
         13    1    3    3    0    0  0.69826379520E+03  0.42737950066E+03  0.31018585614E+03  0.87546606480E+03  0.00000000000E+00 0. -1.
        -13    1    3    3    0    0  0.79458461343E+03  0.51945580845E+03  0.46095986823E+03  0.10553118236E+04  0.00000000000E+00 0.  1.
         22    1    1    2    0    0 -0.14928484086E+04 -0.94683530911E+03  0.83108618449E+03  0.19534066959E+04  0.00000000000E+00 0. -1.
<mgrwt>
<rscale>  0 0.35383249E+04</rscale>
<asrwt>0</asrwt>
<pdfrwt beam="1">  1        2 0.42203204E+00 0.35383249E+04</pdfrwt>
<pdfrwt beam="2">  1       -2 0.17553482E+00 0.35383249E+04</pdfrwt>
<totfact> 0.39909583E-01</totfact>
</mgrwt>
</event>
<event>
 6    1  0.1028026E-006  0.3574836E+04  0.7818608E-02  0.8096280E-01
          1   -1    0    0  501    0  0.00000000000E+00  0.00000000000E+00  0.15496616320E+04  0.15496616320E+04  0.00000000000E+00 0. -1.
         -1   -1    0    0    0  501 -0.00000000000E+00 -0.00000000000E+00 -0.20616520717E+04  0.20616520717E+04  0.00000000000E+00 0.  1.
         23    2    1    2    0    0  0.13394138675E+04  0.63759079659E+03  0.74922473642E+03  0.16642093785E+04  0.87770255224E+02 0.  0.
         13    1    3    3    0    0  0.27665351786E+03  0.16888826388E+03  0.17878017015E+03  0.37016585993E+03  0.00000000000E+00 0.  1.
        -13    1    3    3    0    0  0.10627603496E+04  0.46870253271E+03  0.57044456627E+03  0.12940435186E+04  0.00000000000E+00 0. -1.
         22    1    1    2    0    0 -0.13394138675E+04 -0.63759079659E+03 -0.12612151761E+04  0.19471043251E+04  0.00000000000E+00 0.  1.
<mgrwt>
<rscale>  0 0.35748360E+04</rscale>
<asrwt>0</asrwt>
<pdfrwt beam="1">  1        1 0.23840948E+00 0.35748360E+04</pdfrwt>
<pdfrwt beam="2">  1       -1 0.31717724E+00 0.35748360E+04</pdfrwt>
<totfact> 0.12509856E-01</totfact>
</mgrwt>
</event>
<event>
 6    1  0.1028026E-006  0.5313509E+03  0.7818608E-02  0.1005905E+00
          2   -1    0    0  501    0  0.00000000000E+00  0.00000000000E+00  0.75546123987E+03  0.75546123987E+03  0.00000000000E+00 0. -1.
         -2   -1    0    0    0  501 -0.00000000000E+00 -0.00000000000E+00 -0.93430941375E+02  0.93430941375E+02  0.00000000000E+00 0.  1.
         23    2    1    2    0    0 -0.23304862239E+03 -0.52848133671E+02  0.49594286461E+03  0.55787736835E+03  0.90350691890E+02 0.  0.
         13    1    3    3    0    0 -0.14459505455E+03 -0.71572093059E+02  0.27022840532E+03  0.31472795450E+03  0.00000000000E+00 0.  1.
        -13    1    3    3    0    0 -0.88453567845E+02  0.18723959388E+02  0.22571445929E+03  0.24314941385E+03  0.00000000000E+00 0. -1.
         22    1    1    2    0    0  0.23304862239E+03  0.52848133671E+02  0.16608743388E+03  0.29101481290E+03  0.00000000000E+00 0.  1.
<mgrwt>
<rscale>  0 0.53135094E+03</rscale>
<asrwt>0</asrwt>
<pdfrwt beam="1">  1        2 0.11622480E+00 0.53135094E+03</pdfrwt>
<pdfrwt beam="2">  1       -2 0.14373992E-01 0.53135094E+03</pdfrwt>
<totfact> 0.14030332E+03</totfact>
</mgrwt>
</event>
<event>
 6    1  0.1028026E-006  0.1150938E+04  0.7818608E-02  0.9156918E-01
          3   -1    0    0  501    0  0.00000000000E+00  0.00000000000E+00  0.15870269458E+04  0.15870269458E+04  0.00000000000E+00 0. -1.
         -3   -1    0    0    0  501 -0.00000000000E+00 -0.00000000000E+00 -0.20866991699E+03  0.20866991699E+03  0.00000000000E+00 0.  1.
         23    2    1    2    0    0  0.14481405737E+03 -0.39010382286E+03  0.82016524530E+02  0.43420841008E+03  0.93049069098E+02 0.  0.
         13    1    3    3    0    0  0.81816045653E+02 -0.11948824262E+03  0.11174124692E+01  0.14481903901E+03  0.00000000000E+00 0. -1.
        -13    1    3    3    0    0  0.62998011721E+02 -0.27061558025E+03  0.80899112061E+02  0.28938937106E+03  0.00000000000E+00 0.  1.
         22    1    1    2    0    0 -0.14481405737E+03  0.39010382286E+03  0.12963405043E+04  0.13614884527E+04  0.00000000000E+00 0. -1.
<mgrwt>
<rscale>  0 0.11509384E+04</rscale>
<asrwt>0</asrwt>
<pdfrwt beam="1">  1        3 0.24415798E+00 0.11509384E+04</pdfrwt>
<pdfrwt beam="2">  1       -3 0.32103065E-01 0.11509384E+04</pdfrwt>
<totfact> 0.19855662E+00</totfact>
</mgrwt>
</event>
<event>
 6    1  0.1028026E-006  0.2142831E+04  0.7818608E-02  0.8542607E-01
         -1   -1    0    0    0  501 -0.00000000000E+00  0.00000000000E+00  0.10743760726E+04  0.10743760726E+04  0.00000000000E+00 0.  1.
          1   -1    0    0  501    0  0.00000000000E+00 -0.00000000000E+00 -0.10684635675E+04  0.10684635675E+04  0.00000000000E+00 0. -1.
         23    2    1    2    0    0  0.68364724558E+03 -0.13863065114E+03  0.81346483681E+03  0.10757254090E+04  0.94170595054E+02 0.  0.
         11    1    3    3    0    0  0.28881170482E+03 -0.84083193992E+02  0.41073126281E+03  0.50909955274E+03  0.00000000000E+00 0.  1.
        -11    1    3    3    0    0  0.39483554077E+03 -0.54547457149E+02  0.40273357400E+03  0.56662585624E+03  0.00000000000E+00 0. -1.
         22    1    1    2    0    0 -0.68364724558E+03  0.13863065114E+03 -0.80755233175E+03  0.10671142312E+04  0.00000000000E+00 0. -1.
<mgrwt>
<rscale>  0 0.21428315E+04</rscale>
<asrwt>0</asrwt>
<pdfrwt beam="1">  1        1 0.16437901E+00 0.21428315E+04</pdfrwt>
<pdfrwt beam="2">  1       -1 0.16528863E+00 0.21428315E+04</pdfrwt>
<totfact> 0.32733440E+00</totfact>
</mgrwt>
</event>
<event>
 6    1  0.1028026E-006  0.1499134E+04  0.7818608E-02  0.8885029E-01
         -2   -1    0    0    0  501 -0.00000000000E+00  0.00000000000E+00  0.16419551373E+04  0.16419551373E+04  0.00000000000E+00 0.  1.
          2   -1    0    0  501    0  0.00000000000E+00 -0.00000000000E+00 -0.34218395289E+03  0.34218395289E+03  0.00000000000E+00 0. -1.
         23    2    1    2    0    0 -0.43594990964E+02  0.70816200020E+03  0.34537900788E+03  0.79491313673E+03  0.95949435071E+02 0.  0.
         11    1    3    3    0    0  0.11500718471E+02  0.45791721938E+03  0.24721909215E+03  0.52051678729E+03  0.00000000000E+00 0.  1.
        -11    1    3    3    0    0 -0.55095709436E+02  0.25024478082E+03  0.98159915729E+02  0.27439634944E+03  0.00000000000E+00 0. -1.
         22    1    1    2    0    0  0.43594990964E+02 -0.70816200020E+03  0.95439217654E+03  0.11892259535E+04  0.00000000000E+00 0. -1.
<mgrwt>
<rscale>  0 0.14991340E+04</rscale>
<asrwt>0</asrwt>
<pdfrwt beam="1">  1        2 0.52643686E-01 0.14991340E+04</pdfrwt>
<pdfrwt beam="2">  1       -2 0.25260848E+00 0.14991340E+04</pdfrwt>
<totfact> 0.56759325E+00</totfact>
</mgrwt>
</event>
<event>
 6    1  0.1028026E-006  0.1266011E+04  0.7818608E-02  0.9056962E-01
          2   -1    0    0  501    0  0.00000000000E+00  0.00000000000E+00  0.11972259462E+04  0.11972259462E+04  0.00000000000E+00 0. -1.
         -2   -1    0    0    0  501 -0.00000000000E+00 -0.00000000000E+00 -0.33468683491E+03  0.33468683491E+03  0.00000000000E+00 0.  1.
         23    2    1    2    0    0 -0.41043736019E+03 -0.40893494462E+02 -0.14203399756E+03  0.44595779328E+03  0.92593695249E+02 0.  0.
         13    1    3    3    0    0 -0.37647475438E+03 -0.55468033572E+02 -0.10763465122E+03  0.39546828138E+03  0.00000000000E+00 0. -1.
        -13    1    3    3    0    0 -0.33962605805E+02  0.14574539109E+02 -0.34399346343E+02  0.50489511902E+02  0.00000000000E+00 0.  1.
         22    1    1    2    0    0  0.41043736019E+03  0.40893494462E+02  0.10045731088E+04  0.10859549878E+04  0.00000000000E+00 0. -1.
<mgrwt>
<rscale>  0 0.12660107E+04</rscale>
<asrwt>0</asrwt>
<pdfrwt beam="1">  1        2 0.18418860E+00 0.12660107E+04</pdfrwt>
<pdfrwt beam="2">  1       -2 0.51490283E-01 0.12660107E+04</pdfrwt>
<totfact> 0.66545565E+01</totfact>
</mgrwt>
</event>
<event>
 6    1  0.1028026E-006  0.2638409E+04  0.7818608E-02  0.8355270E-01
         -2   -1    0    0    0  501 -0.00000000000E+00  0.00000000000E+00  0.90335889433E+03  0.90335889433E+03  0.00000000000E+00 0.  1.
          2   -1    0    0  501    0  0.00000000000E+00 -0.00000000000E+00 -0.19264770440E+04  0.19264770440E+04  0.00000000000E+00 0. -1.
         23    2    1    2    0    0 -0.84075502910E+03 -0.80133045817E+03 -0.11794886593E+04  0.16578925701E+04  0.91731970638E+02 0.  0.
         11    1    3    3    0    0 -0.18080600588E+03 -0.13983856186E+03 -0.19346040852E+03  0.29945377742E+03  0.00000000000E+00 0. -1.
        -11    1    3    3    0    0 -0.65994902321E+03 -0.66149189630E+03 -0.98602825077E+03  0.13584387927E+04  0.00000000000E+00 0.  1.
         22    1    1    2    0    0  0.84075502910E+03  0.80133045817E+03  0.15637050959E+03  0.11719433683E+04  0.00000000000E+00 0.  1.
<mgrwt>
<rscale>  0 0.26384087E+04</rscale>
<asrwt>0</asrwt>
<pdfrwt beam="1">  1        2 0.29638108E+00 0.26384087E+04</pdfrwt>
<pdfrwt beam="2">  1       -2 0.13897829E+00 0.26384087E+04</pdfrwt>
<totfact> 0.23696052E+00</totfact>
</mgrwt>
</event>
<event>
 6    1  0.1028026E-006  0.1578901E+04  0.7818608E-02  0.8833616E-01
         -1   -1    0    0    0  501 -0.00000000000E+00  0.00000000000E+00  0.33012462311E+04  0.33012462311E+04  0.00000000000E+00 0.  1.
          1   -1    0    0  501    0  0.00000000000E+00 -0.00000000000E+00 -0.18878700960E+03  0.18878700960E+03  0.00000000000E+00 0. -1.
         23    2    1    2    0    0  0.54080115904E+03 -0.42676176891E+02  0.30192598173E+03  0.62762442267E+03  0.92010693899E+02 0.  0.
         11    1    3    3    0    0  0.43257796749E+03 -0.54540867687E+01  0.26520630087E+03  0.50743258374E+03  0.00000000000E+00 0. -1.
        -11    1    3    3    0    0  0.10822319155E+03 -0.37222090122E+02  0.36719680864E+02  0.12019183893E+03  0.00000000000E+00 0.  1.
         22    1    1    2    0    0 -0.54080115904E+03  0.42676176891E+02  0.28105332397E+04  0.28624088180E+04  0.00000000000E+00 0.  1.
<mgrwt>
<rscale>  0 0.15789014E+04</rscale>
<asrwt>0</asrwt>
<pdfrwt beam="1">  1        1 0.29044158E-01 0.15789014E+04</pdfrwt>
<pdfrwt beam="2">  1       -1 0.50788399E+00 0.15789014E+04</pdfrwt>
<totfact> 0.20406364E-01</totfact>
</mgrwt>
</event>
<event>
 6    1  0.1028026E-006  0.1351130E+04  0.7818608E-02  0.8989973E-01
         -2   -1    0    0    0  501 -0.00000000000E+00  0.00000000000E+00  0.29061785846E+03  0.29061785846E+03  0.00000000000E+00 0.  1.
          2   -1    0    0  501    0  0.00000000000E+00 -0.00000000000E+00 -0.15704071419E+04  0.15704071419E+04  0.00000000000E+00 0. -1.
         23    2    1    2    0    0  0.56837447083E+03 -0.10784039632E+03 -0.16950732427E+03  0.60906449020E+03  0.86877673030E+02 0.  0.
         11    1    3    3    0    0  0.40332421014E+03 -0.37538331407E+02 -0.12943482619E+03  0.42524454028E+03  0.00000000000E+00 0. -1.
        -11    1    3    3    0    0  0.16505026069E+03 -0.70302064913E+02 -0.40072498080E+02  0.18381994992E+03  0.00000000000E+00 0.  1.
         22    1    1    2    0    0 -0.56837447083E+03  0.10784039632E+03 -0.11102819592E+04  0.12519605102E+04  0.00000000000E+00 0. -1.
<mgrwt>
<rscale>  0 0.13511304E+04</rscale>
<asrwt>0</asrwt>
<pdfrwt beam="1">  1        2 0.24160110E+00 0.13511304E+04</pdfrwt>
<pdfrwt beam="2">  1       -2 0.44710439E-01 0.13511304E+04</pdfrwt>
<totfact> 0.53670440E+01</totfact>
</mgrwt>
</event>
<event>
 6    1  0.1028026E-006  0.4266900E+03  0.7818608E-02  0.1034911E+00
          1   -1    0    0  501    0  0.00000000000E+00  0.00000000000E+00  0.36853462024E+03  0.36853462024E+03  0.00000000000E+00 0. -1.
         -1   -1    0    0    0  501 -0.00000000000E+00 -0.00000000000E+00 -0.12350557671E+03  0.12350557671E+03  0.00000000000E+00 0.  1.
         23    2    1    2    0    0 -0.98652822672E+02  0.17598546064E+03  0.10797437345E+03  0.24814012650E+03  0.95978097917E+02 0.  0.
         13    1    3    3    0    0 -0.52927118910E+02  0.16758991536E+03  0.74679372015E+02  0.19095724195E+03  0.00000000000E+00 0. -1.
        -13    1    3    3    0    0 -0.45725703762E+02  0.83955452736E+01  0.33295001434E+02  0.57182884550E+02  0.00000000000E+00 0.  1.
         22    1    1    2    0    0  0.98652822672E+02 -0.17598546064E+03  0.13705467008E+03  0.24390007045E+03  0.00000000000E+00 0. -1.
<mgrwt>
<rscale>  0 0.42668996E+03</rscale>
<asrwt>0</asrwt>
<pdfrwt beam="1">  1        1 0.56697633E-01 0.42668996E+03</pdfrwt>
<pdfrwt beam="2">  1       -1 0.19000858E-01 0.42668996E+03</pdfrwt>
<totfact> 0.14838239E+03</totfact>
</mgrwt>
</event>
<event>
 6    1  0.1028026E-006  0.1611247E+04  0.7818608E-02  0.8813668E-01
         -1   -1    0    0    0  501 -0.00000000000E+00  0.00000000000E+00  0.54407389919E+03  0.54407389919E+03  0.00000000000E+00 0.  1.
          1   -1    0    0  501    0  0.00000000000E+00 -0.00000000000E+00 -0.11929068559E+04  0.11929068559E+04  0.00000000000E+00 0. -1.
         23    2    1    2    0    0  0.26216786020E+02  0.64986208276E+03  0.18236223510E+03  0.68156922711E+03  0.90953724887E+02 0.  0.
         11    1    3    3    0    0  0.34358132334E+02  0.13133374420E+03  0.61739723686E+02  0.14913358811E+03  0.00000000000E+00 0.  1.
        -11    1    3    3    0    0 -0.81413463145E+01  0.51852833856E+03  0.12062251141E+03  0.53243563900E+03  0.00000000000E+00 0. -1.
         22    1    1    2    0    0 -0.26216786020E+02 -0.64986208276E+03 -0.83119519180E+03  0.10554115280E+04  0.00000000000E+00 0. -1.
<mgrwt>
<rscale>  0 0.16112473E+04</rscale>
<asrwt>0</asrwt>
<pdfrwt beam="1">  1        1 0.18352413E+00 0.16112473E+04</pdfrwt>
<pdfrwt beam="2">  1       -1 0.83703676E-01 0.16112473E+04</pdfrwt>
<totfact> 0.14675686E+01</totfact>
</mgrwt>
</event>
<event>
 6    1  0.1028026E-006  0.2356361E+04  0.7818608E-02  0.8456025E-01
         -2   -1    0    0    0  501 -0.00000000000E+00  0.00000000000E+00  0.13706637961E+04  0.13706637961E+04  0.00000000000E+00 0.  1.
          2   -1    0    0  501    0  0.00000000000E+00 -0.00000000000E+00 -0.10127275123E+04  0.10127275123E+04  0.00000000000E+00 0. -1.
         23    2    1    2    0    0  0.10385522068E+04  0.40766561249E+03  0.55654446314E+03  0.12501538457E+04  0.91438288705E+02 0.  0.
         11    1    3    3    0    0  0.53412439385E+03  0.16079580094E+03  0.28246905075E+03  0.62524628935E+03  0.00000000000E+00 0.  1.
        -11    1    3    3    0    0  0.50442781299E+03  0.24686981155E+03  0.27407541240E+03  0.62490755640E+03  0.00000000000E+00 0. -1.
         22    1    1    2    0    0 -0.10385522068E+04 -0.40766561249E+03 -0.19860817931E+03  0.11332374627E+04  0.00000000000E+00 0.  1.
<mgrwt>
<rscale>  0 0.23563607E+04</rscale>
<asrwt>0</asrwt>
<pdfrwt beam="1">  1        2 0.15580423E+00 0.23563607E+04</pdfrwt>
<pdfrwt beam="2">  1       -2 0.21087135E+00 0.23563607E+04</pdfrwt>
<totfact> 0.25211343E+00</totfact>
</mgrwt>
</event>
<event>
 6    1  0.1028026E-006  0.1422457E+04  0.7818608E-02  0.8937721E-01
          2   -1    0    0  501    0  0.00000000000E+00  0.00000000000E+00  0.22278634991E+04  0.22278634991E+04  0.00000000000E+00 0. -1.
         -2   -1    0    0    0  501 -0.00000000000E+00 -0.00000000000E+00 -0.22705442693E+03  0.22705442693E+03  0.00000000000E+00 0.  1.
         23    2    1    2    0    0  0.35230990403E+03  0.39884077287E+03  0.18101687200E+04  0.18896392563E+04  0.10406485186E+03 0.  0.
         11    1    3    3    0    0  0.11883654464E+03  0.15097769396E+03  0.49159628356E+03  0.52780990369E+03  0.00000000000E+00 0.  1.
        -11    1    3    3    0    0  0.23347335939E+03  0.24786307891E+03  0.13185724365E+04  0.13618293526E+04  0.00000000000E+00 0. -1.
         22    1    1    2    0    0 -0.35230990403E+03 -0.39884077287E+03  0.19064035213E+03  0.56527866972E+03  0.00000000000E+00 0.  1.
<mgrwt>
<rscale>  0 0.14224574E+04</rscale>
<asrwt>0</asrwt>
<pdfrwt beam="1">  1        2 0.34274822E+00 0.14224574E+04</pdfrwt>
<pdfrwt beam="2">  1       -2 0.34931452E-01 0.14224574E+04</pdfrwt>
<totfact> 0.37274089E+01</totfact>
</mgrwt>
</event>
<event>
 6    1  0.1028026E-006  0.1955122E+04  0.7818608E-02  0.8627895E-01
         -1   -1    0    0    0  501 -0.00000000000E+00  0.00000000000E+00  0.87691913556E+03  0.87691913556E+03  0.00000000000E+00 0.  1.
          1   -1    0    0  501    0  0.00000000000E+00 -0.00000000000E+00 -0.10897535872E+04  0.10897535872E+04  0.00000000000E+00 0. -1.
         23    2    1    2    0    0 -0.17453451996E+03 -0.19289476086E+03  0.83895175216E+03  0.88319457071E+03  0.92314245141E+02 0.  0.
         13    1    3    3    0    0 -0.40414637116E+02 -0.10184813984E+03  0.26422080469E+03  0.28604024213E+03  0.00000000000E+00 0. -1.
        -13    1    3    3    0    0 -0.13411988284E+03 -0.91046621021E+02  0.57473094747E+03  0.59715432859E+03  0.00000000000E+00 0.  1.
         22    1    1    2    0    0  0.17453451996E+03  0.19289476086E+03 -0.10517862038E+04  0.10834781520E+04  0.00000000000E+00 0. -1.
<mgrwt>
<rscale>  0 0.19551223E+04</rscale>
<asrwt>0</asrwt>
<pdfrwt beam="1">  1        1 0.16765440E+00 0.19551223E+04</pdfrwt>
<pdfrwt beam="2">  1       -1 0.13491064E+00 0.19551223E+04</pdfrwt>
<totfact> 0.55465240E+00</totfact>
</mgrwt>
</event>
<event>
 6    1  0.1028026E-006  0.1054854E+04  0.7818608E-02  0.9250347E-01
         -4   -1    0    0    0  501 -0.00000000000E+00  0.00000000000E+00  0.90478158787E+03  0.90478158787E+03  0.00000000000E+00 0.  1.
          4   -1    0    0  501    0  0.00000000000E+00 -0.00000000000E+00 -0.30745436692E+03  0.30745436692E+03  0.00000000000E+00 0. -1.
         23    2    1    2    0    0  0.87261316940E+02 -0.36866608437E+03  0.71581869928E+03  0.81528576945E+03  0.93622948212E+02 0.  0.
         13    1    3    3    0    0  0.10475330043E+03 -0.34572621876E+03  0.65665162485E+03  0.74946062518E+03  0.00000000000E+00 0. -1.
        -13    1    3    3    0    0 -0.17491983491E+02 -0.22939865611E+02  0.59167074438E+02  0.65825144270E+02  0.00000000000E+00 0.  1.
         22    1    1    2    0    0 -0.87261316940E+02  0.36866608437E+03 -0.11849147833E+03  0.39695018533E+03  0.00000000000E+00 0. -1.
<mgrwt>
<rscale>  0 0.10548536E+04</rscale>
<asrwt>0</asrwt>
<pdfrwt beam="1">  1        4 0.47300672E-01 0.10548536E+04</pdfrwt>
<pdfrwt beam="2">  1       -4 0.13919717E+00 0.10548536E+04</pdfrwt>
<totfact> 0.31126353E+00</totfact>
</mgrwt>
</event>
<event>
 6    1  0.1028026E-006  0.6729893E+03  0.7818608E-02  0.9764573E-01
         -1   -1    0    0    0  501 -0.00000000000E+00  0.00000000000E+00  0.34190463477E+03  0.34190463477E+03  0.00000000000E+00 0.  1.
          1   -1    0    0  501    0  0.00000000000E+00 -0.00000000000E+00 -0.33117031269E+03  0.33117031269E+03  0.00000000000E+00 0. -1.
         23    2    1    2    0    0 -0.14561669930E+03  0.28368536234E+03  0.89905831117E+02  0.34451789646E+03  0.94487642544E+02 0.  0.
         13    1    3    3    0    0 -0.33270330774E+00 -0.25198476492E+01  0.14618319019E+02  0.14837640466E+02  0.00000000000E+00 0.  1.
        -13    1    3    3    0    0 -0.14528399599E+03  0.28620520999E+03  0.75287512098E+02  0.32968025599E+03  0.00000000000E+00 0. -1.
         22    1    1    2    0    0  0.14561669930E+03 -0.28368536234E+03 -0.79171509034E+02  0.32855705100E+03  0.00000000000E+00 0.  1.
<mgrwt>
<rscale>  0 0.67298935E+03</rscale>
<asrwt>0</asrwt>
<pdfrwt beam="1">  1        1 0.50949279E-01 0.67298935E+03</pdfrwt>
<pdfrwt beam="2">  1       -1 0.52600713E-01 0.67298935E+03</pdfrwt>
<totfact> 0.28446508E+02</totfact>
</mgrwt>
</event>
<event>
 6    1  0.1028026E-006  0.2840809E+03  0.7818608E-02  0.1093481E+00
         -1   -1    0    0    0  501 -0.00000000000E+00  0.00000000000E+00  0.32479561060E+02  0.32479561060E+02  0.00000000000E+00 0.  1.
          1   -1    0    0  501    0  0.00000000000E+00 -0.00000000000E+00 -0.62117499780E+03  0.62117499780E+03  0.00000000000E+00 0. -1.
         23    2    1    2    0    0 -0.34620324000E+02 -0.10204783517E+03 -0.16594701635E+03  0.21738794950E+03  0.90037663545E+02 0.  0.
         13    1    3    3    0    0  0.25724925660E+02 -0.40658133635E+02 -0.92354624702E+02  0.10413564392E+03  0.00000000000E+00 0. -1.
        -13    1    3    3    0    0 -0.60345249659E+02 -0.61389701537E+02 -0.73592391644E+02  0.11325230558E+03  0.00000000000E+00 0.  1.
         22    1    1    2    0    0  0.34620324000E+02  0.10204783517E+03 -0.42274842039E+03  0.43626660936E+03  0.00000000000E+00 0. -1.
<mgrwt>
<rscale>  0 0.28408091E+03</rscale>
<asrwt>0</asrwt>
<pdfrwt beam="1">  1        1 0.95565377E-01 0.28408091E+03</pdfrwt>
<pdfrwt beam="2">  1       -1 0.49968559E-02 0.28408091E+03</pdfrwt>
<totfact> 0.58875521E+03</totfact>
</mgrwt>
</event>
<event>
 6    1  0.1028026E-006  0.2385666E+04  0.7818608E-02  0.8444890E-01
         -2   -1    0    0    0  501 -0.00000000000E+00  0.00000000000E+00  0.82828160215E+03  0.82828160215E+03  0.00000000000E+00 0.  1.
          2   -1    0    0  501    0  0.00000000000E+00 -0.00000000000E+00 -0.17178340886E+04  0.17178340886E+04  0.00000000000E+00 0. -1.
         23    2    1    2    0    0  0.87185465829E+03  0.51176666516E+03 -0.11176130061E+04  0.15097531743E+04  0.90885373787E+02 0.  0.
         13    1    3    3    0    0  0.48697331618E+03  0.28222992579E+03 -0.68870646770E+03  0.88944552410E+03  0.00000000000E+00 0. -1.
        -13    1    3    3    0    0  0.38488134211E+03  0.22953673938E+03 -0.42890653841E+03  0.62030765021E+03  0.00000000000E+00 0.  1.
         22    1    1    2    0    0 -0.87185465829E+03 -0.51176666516E+03  0.22806051970E+03  0.10363625164E+04  0.00000000000E+00 0.  1.
<mgrwt>
<rscale>  0 0.23856658E+04</rscale>
<asrwt>0</asrwt>
<pdfrwt beam="1">  1        2 0.26428216E+00 0.23856658E+04</pdfrwt>
<pdfrwt beam="2">  1       -2 0.12742794E+00 0.23856658E+04</pdfrwt>
<totfact> 0.39425824E+00</totfact>
</mgrwt>
</event>
<event>
 6    1  0.1028026E-006  0.2283433E+04  0.7818608E-02  0.8484482E-01
          2   -1    0    0  501    0  0.00000000000E+00  0.00000000000E+00  0.15725743361E+04  0.15725743361E+04  0.00000000000E+00 0. -1.
         -2   -1    0    0    0  501 -0.00000000000E+00 -0.00000000000E+00 -0.82890595362E+03  0.82890595362E+03  0.00000000000E+00 0.  1.
         23    2    1    2    0    0  0.40320795225E+03  0.67097498803E+03 -0.49901560926E+03  0.93279121758E+03  0.91097694764E+02 0.  0.
         11    1    3    3    0    0  0.11137389817E+03  0.26653416156E+03 -0.16737660263E+03  0.33385555497E+03  0.00000000000E+00 0.  1.
        -11    1    3    3    0    0  0.29183405408E+03  0.40444082646E+03 -0.33163900663E+03  0.59893566261E+03  0.00000000000E+00 0. -1.
         22    1    1    2    0    0 -0.40320795225E+03 -0.67097498803E+03  0.12426839917E+04  0.14686890721E+04  0.00000000000E+00 0. -1.
<mgrwt>
<rscale>  0 0.22834327E+04</rscale>
<asrwt>0</asrwt>
<pdfrwt beam="1">  1        2 0.24193451E+00 0.22834327E+04</pdfrwt>
<pdfrwt beam="2">  1       -2 0.12752399E+00 0.22834327E+04</pdfrwt>
<totfact> 0.47831619E+00</totfact>
</mgrwt>
</event>
<event>
 6    1  0.1028026E-006  0.8854707E+03  0.7818608E-02  0.9443928E-01
         -1   -1    0    0    0  501 -0.00000000000E+00  0.00000000000E+00  0.18284869971E+04  0.18284869971E+04  0.00000000000E+00 0.  1.
          1   -1    0    0  501    0  0.00000000000E+00 -0.00000000000E+00 -0.10720042902E+03  0.10720042902E+03  0.00000000000E+00 0. -1.
         23    2    1    2    0    0 -0.21695953861E+02 -0.10608545061E+03  0.17976332119E+04  0.18031972481E+04  0.91160923089E+02 0.  0.
         11    1    3    3    0    0  0.24135495167E+02 -0.63563202632E+02  0.58210841509E+03  0.58606570432E+03  0.00000000000E+00 0.  1.
        -11    1    3    3    0    0 -0.45831449028E+02 -0.42522247975E+02  0.12155247968E+04  0.12171315438E+04  0.00000000000E+00 0. -1.
         22    1    1    2    0    0  0.21695953861E+02  0.10608545061E+03 -0.76346643811E+02  0.13249017800E+03  0.00000000000E+00 0. -1.
<mgrwt>
<rscale>  0 0.88547070E+03</rscale>
<asrwt>0</asrwt>
<pdfrwt beam="1">  1        1 0.16492375E-01 0.88547070E+03</pdfrwt>
<pdfrwt beam="2">  1       -1 0.28130567E+00 0.88547070E+03</pdfrwt>
<totfact> 0.15173576E+01</totfact>
</mgrwt>
</event>
<event>
 6    1  0.1028026E-006  0.2698244E+04  0.7818608E-02  0.8335575E-01
          2   -1    0    0  501    0  0.00000000000E+00  0.00000000000E+00  0.13078587157E+04  0.13078587157E+04  0.00000000000E+00 0. -1.
         -2   -1    0    0    0  501 -0.00000000000E+00 -0.00000000000E+00 -0.13916876208E+04  0.13916876208E+04  0.00000000000E+00 0.  1.
         23    2    1    2    0    0  0.12118493633E+04  0.42702182297E+03 -0.44825873655E+03  0.13639806816E+04  0.92633083986E+02 0.  0.
         13    1    3    3    0    0  0.86471872222E+03  0.28350937991E+03 -0.35619429194E+03  0.97723610794E+03  0.00000000000E+00 0.  1.
        -13    1    3    3    0    0  0.34713064105E+03  0.14351244306E+03 -0.92064444616E+02  0.38674457363E+03  0.00000000000E+00 0. -1.
         22    1    1    2    0    0 -0.12118493633E+04 -0.42702182297E+03  0.36442983146E+03  0.13355656549E+04  0.00000000000E+00 0. -1.
<mgrwt>
<rscale>  0 0.26982445E+04</rscale>
<asrwt>0</asrwt>
<pdfrwt beam="1">  1        2 0.20120903E+00 0.26982445E+04</pdfrwt>
<pdfrwt beam="2">  1       -2 0.21410579E+00 0.26982445E+04</pdfrwt>
<totfact> 0.15467124E+00</totfact>
</mgrwt>
</event>
<event>
 6    1  0.1832473E-006  0.3006459E+04  0.7818608E-02  0.8241889E-01
         -2   -1    0    0    0  501 -0.00000000000E+00  0.00000000000E+00  0.12589007690E+04  0.12589007690E+04  0.00000000000E+00 0.  1.
          2   -1    0    0  501    0  0.00000000000E+00 -0.00000000000E+00 -0.17949778734E+04  0.17949778734E+04  0.00000000000E+00 0. -1.
         23    2    1    2    0    0  0.81648293945E+02 -0.14367204038E+04 -0.70486694995E+03  0.16049749277E+04  0.90967788588E+02 0.  0.
         11    1    3    3    0    0  0.80458376500E+02 -0.10610113576E+04 -0.55885427650E+03  0.12018888275E+04  0.00000000000E+00 0. -1.
        -11    1    3    3    0    0  0.11899174459E+01 -0.37570904628E+03 -0.14601267344E+03  0.40308610019E+03  0.00000000000E+00 0.  1.
         22    1    1    2    0    0 -0.81648293945E+02  0.14367204038E+04  0.16878984558E+03  0.14489037148E+04  0.00000000000E+00 0.  1.
<mgrwt>
<rscale>  0 0.30064591E+04</rscale>
<asrwt>0</asrwt>
<pdfrwt beam="1">  1        2 0.27615044E+00 0.30064591E+04</pdfrwt>
<pdfrwt beam="2">  1       -2 0.19367704E+00 0.30064591E+04</pdfrwt>
<totfact> 0.10883342E+00</totfact>
</mgrwt>
</event>
<event>
 6    1  0.1028026E-006  0.3289003E+04  0.7818608E-02  0.8165699E-01
         -2   -1    0    0    0  501 -0.00000000000E+00  0.00000000000E+00  0.12331951663E+04  0.12331951663E+04  0.00000000000E+00 0.  1.
          2   -1    0    0  501    0  0.00000000000E+00 -0.00000000000E+00 -0.21929907220E+04  0.21929907220E+04  0.00000000000E+00 0. -1.
         23    2    1    2    0    0  0.10567137415E+04 -0.10622302930E+04  0.22234050826E+03  0.15176726448E+04  0.94434254560E+02 0.  0.
         11    1    3    3    0    0  0.38522809296E+03 -0.33258477442E+03  0.52560332991E+02  0.51164040535E+03  0.00000000000E+00 0. -1.
        -11    1    3    3    0    0  0.67148564852E+03 -0.72964551853E+03  0.16978017526E+03  0.10060322394E+04  0.00000000000E+00 0.  1.
         22    1    1    2    0    0 -0.10567137415E+04  0.10622302930E+04 -0.11821360640E+04  0.19085132435E+04  0.00000000000E+00 0. -1.
<mgrwt>
<rscale>  0 0.32890032E+04</rscale>
<asrwt>0</asrwt>
<pdfrwt beam="1">  1        2 0.33738318E+00 0.32890032E+04</pdfrwt>
<pdfrwt beam="2">  1       -2 0.18972234E+00 0.32890032E+04</pdfrwt>
<totfact> 0.67811717E-01</totfact>
</mgrwt>
</event>
<event>
 6    1  0.1028026E-006  0.1438687E+04  0.7818608E-02  0.8926281E-01
          1   -1    0    0  501    0  0.00000000000E+00  0.00000000000E+00  0.50705631125E+03  0.50705631125E+03  0.00000000000E+00 0. -1.
         -1   -1    0    0    0  501 -0.00000000000E+00 -0.00000000000E+00 -0.10205087945E+04  0.10205087945E+04  0.00000000000E+00 0.  1.
         23    2    1    2    0    0 -0.25243944348E+03 -0.67040729773E+03 -0.26664391280E+03  0.76988041676E+03  0.91898108841E+02 0.  0.
         11    1    3    3    0    0 -0.81256996530E+02 -0.24611623935E+03 -0.51291646959E+02  0.26420964367E+03  0.00000000000E+00 0.  1.
        -11    1    3    3    0    0 -0.17118244695E+03 -0.42429105838E+03 -0.21535226584E+03  0.50567077310E+03  0.00000000000E+00 0. -1.
         22    1    1    2    0    0  0.25243944348E+03  0.67040729773E+03 -0.24680857044E+03  0.75768468898E+03  0.00000000000E+00 0. -1.
<mgrwt>
<rscale>  0 0.14386875E+04</rscale>
<asrwt>0</asrwt>
<pdfrwt beam="1">  1        1 0.78008663E-01 0.14386875E+04</pdfrwt>
<pdfrwt beam="2">  1       -1 0.15700135E+00 0.14386875E+04</pdfrwt>
<totfact> 0.13016516E+01</totfact>
</mgrwt>
</event>
<event>
 6    1  0.1028026E-006  0.2016959E+04  0.7818608E-02  0.8598732E-01
          2   -1    0    0  501    0  0.00000000000E+00  0.00000000000E+00  0.11560057348E+04  0.11560057348E+04  0.00000000000E+00 0. -1.
         -2   -1    0    0    0  501 -0.00000000000E+00 -0.00000000000E+00 -0.87978032471E+03  0.87978032471E+03  0.00000000000E+00 0.  1.
         23    2    1    2    0    0  0.64933683570E+03  0.57323643822E+03  0.65593443763E+03  0.10900496872E+04  0.87863494949E+02 0.  0.
         11    1    3    3    0    0  0.38418628576E+03  0.28084295358E+03  0.35692301904E+03  0.59486629444E+03  0.00000000000E+00 0.  1.
        -11    1    3    3    0    0  0.26515054994E+03  0.29239348464E+03  0.29901141859E+03  0.49518339274E+03  0.00000000000E+00 0. -1.
         22    1    1    2    0    0 -0.64933683570E+03 -0.57323643822E+03 -0.37970902756E+03  0.94573637231E+03  0.00000000000E+00 0.  1.
<mgrwt>
<rscale>  0 0.20169592E+04</rscale>
<asrwt>0</asrwt>
<pdfrwt beam="1">  1        2 0.17784704E+00 0.20169592E+04</pdfrwt>
<pdfrwt beam="2">  1       -2 0.13535082E+00 0.20169592E+04</pdfrwt>
<totfact> 0.73210164E+00</totfact>
</mgrwt>
</event>
<event>
 6    1  0.1028026E-006  0.2691047E+04  0.7818608E-02  0.8337916E-01
         -1   -1    0    0    0  501 -0.00000000000E+00  0.00000000000E+00  0.10133357259E+04  0.10133357259E+04  0.00000000000E+00 0.  1.
          1   -1    0    0  501    0  0.00000000000E+00 -0.00000000000E+00 -0.17866073579E+04  0.17866073579E+04  0.00000000000E+00 0. -1.
         23    2    1    2    0    0  0.30064651573E+03 -0.10855501319E+04 -0.11499132544E+04  0.16122283335E+04  0.90400721049E+02 0.  0.
         11    1    3    3    0    0  0.42285055045E+02 -0.27773702891E+03 -0.31557700797E+03  0.42251003665E+03  0.00000000000E+00 0. -1.
        -11    1    3    3    0    0  0.25836146069E+03 -0.80781310300E+03 -0.83433624641E+03  0.11897182968E+04  0.00000000000E+00 0.  1.
         22    1    1    2    0    0 -0.30064651573E+03  0.10855501319E+04  0.37664162235E+03  0.11877147503E+04  0.00000000000E+00 0.  1.
<mgrwt>
<rscale>  0 0.26910467E+04</rscale>
<asrwt>0</asrwt>
<pdfrwt beam="1">  1        1 0.27486267E+00 0.26910467E+04</pdfrwt>
<pdfrwt beam="2">  1       -1 0.15589781E+00 0.26910467E+04</pdfrwt>
<totfact> 0.11418420E+00</totfact>
</mgrwt>
</event>
<event>
 6    1  0.1028026E-006  0.2496146E+04  0.7818608E-02  0.8404360E-01
          1   -1    0    0  501    0  0.00000000000E+00  0.00000000000E+00  0.11749474761E+04  0.11749474761E+04  0.00000000000E+00 0. -1.
         -1   -1    0    0    0  501 -0.00000000000E+00 -0.00000000000E+00 -0.13257495431E+04  0.13257495431E+04  0.00000000000E+00 0.  1.
         23    2    1    2    0    0  0.29391846972E+03 -0.83007365545E+03 -0.95928982732E+03  0.13052628726E+04  0.89798961258E+02 0.  0.
         11    1    3    3    0    0  0.21845873601E+03 -0.58415749910E+03 -0.73532319727E+03  0.96419106381E+03  0.00000000000E+00 0.  1.
        -11    1    3    3    0    0  0.75459733714E+02 -0.24591615635E+03 -0.22396663005E+03  0.34107180877E+03  0.00000000000E+00 0. -1.
         22    1    1    2    0    0 -0.29391846972E+03  0.83007365545E+03  0.80848776036E+03  0.11954341466E+04  0.00000000000E+00 0. -1.
<mgrwt>
<rscale>  0 0.24961459E+04</rscale>
<asrwt>0</asrwt>
<pdfrwt beam="1">  1        1 0.18076115E+00 0.24961459E+04</pdfrwt>
<pdfrwt beam="2">  1       -1 0.20396147E+00 0.24961459E+04</pdfrwt>
<totfact> 0.14004388E+00</totfact>
</mgrwt>
</event>
<event>
 6    1  0.1028026E-006  0.1373520E+04  0.7818608E-02  0.8973212E-01
          1   -1    0    0  501    0  0.00000000000E+00  0.00000000000E+00  0.60105400870E+03  0.60105400870E+03  0.00000000000E+00 0. -1.
         -1   -1    0    0    0  501 -0.00000000000E+00 -0.00000000000E+00 -0.78468757956E+03  0.78468757956E+03  0.00000000000E+00 0.  1.
         23    2    1    2    0    0 -0.34842034197E+03 -0.14406528635E+03  0.48321932554E+03  0.61968393582E+03  0.91409640137E+02 0.  0.
         11    1    3    3    0    0 -0.18830566063E+03 -0.42605440817E+02  0.29496240247E+03  0.35252952257E+03  0.00000000000E+00 0. -1.
        -11    1    3    3    0    0 -0.16011468134E+03 -0.10145984553E+03  0.18825692307E+03  0.26715441325E+03  0.00000000000E+00 0.  1.
         22    1    1    2    0    0  0.34842034197E+03  0.14406528635E+03 -0.66685289639E+03  0.76605765244E+03  0.00000000000E+00 0.  1.
<mgrwt>
<rscale>  0 0.13735205E+04</rscale>
<asrwt>0</asrwt>
<pdfrwt beam="1">  1        1 0.92469848E-01 0.13735205E+04</pdfrwt>
<pdfrwt beam="2">  1       -1 0.12072117E+00 0.13735205E+04</pdfrwt>
<totfact> 0.20369026E+01</totfact>
</mgrwt>
</event>
<event>
 6    1  0.1028026E-006  0.4842093E+03  0.7818608E-02  0.1017985E+00
          2   -1    0    0  501    0  0.00000000000E+00  0.00000000000E+00  0.10457482924E+03  0.10457482924E+03  0.00000000000E+00 0. -1.
         -2   -1    0    0    0  501 -0.00000000000E+00 -0.00000000000E+00 -0.56050448927E+03  0.56050448927E+03  0.00000000000E+00 0.  1.
         23    2    1    2    0    0  0.15832800043E+03  0.16705383510E+03 -0.28467072212E+03  0.37819194800E+03  0.94957832524E+02 0.  0.
         13    1    3    3    0    0  0.95991483534E+02  0.76495425700E+02 -0.21637891268E+03  0.24876846447E+03  0.00000000000E+00 0.  1.
        -13    1    3    3    0    0  0.62336516899E+02  0.90558409400E+02 -0.68291809447E+02  0.12942348353E+03  0.00000000000E+00 0. -1.
         22    1    1    2    0    0 -0.15832800043E+03 -0.16705383510E+03 -0.17125893790E+03  0.28688737050E+03  0.00000000000E+00 0. -1.
<mgrwt>
<rscale>  0 0.48420930E+03</rscale>
<asrwt>0</asrwt>
<pdfrwt beam="1">  1        2 0.16088436E-01 0.48420930E+03</pdfrwt>
<pdfrwt beam="2">  1       -2 0.86231458E-01 0.48420930E+03</pdfrwt>
<totfact> 0.43364639E+02</totfact>
</mgrwt>
</event>
<event>
 6    1  0.1028026E-006  0.2343384E+04  0.7818608E-02  0.8461009E-01
         -2   -1    0    0    0  501 -0.00000000000E+00  0.00000000000E+00  0.59457811785E+03  0.59457811785E+03  0.00000000000E+00 0.  1.
          2   -1    0    0  501    0  0.00000000000E+00 -0.00000000000E+00 -0.23089693596E+04  0.23089693596E+04  0.00000000000E+00 0. -1.
         23    2    1    2    0    0 -0.92240374113E+03 -0.22784986504E+03 -0.17044199584E+04  0.19533666267E+04  0.88597747969E+02 0.  0.
         13    1    3    3    0    0 -0.78922383078E+03 -0.19030137479E+03 -0.15146900649E+04  0.17185385829E+04  0.00000000000E+00 0.  1.
        -13    1    3    3    0    0 -0.13317991035E+03 -0.37548490251E+02 -0.18972989358E+03  0.23482804381E+03  0.00000000000E+00 0. -1.
         22    1    1    2    0    0  0.92240374113E+03  0.22784986504E+03 -0.99712833195E+01  0.95018085076E+03  0.00000000000E+00 0.  1.
<mgrwt>
<rscale>  0 0.23433844E+04</rscale>
<asrwt>0</asrwt>
<pdfrwt beam="1">  1        2 0.35522606E+00 0.23433844E+04</pdfrwt>
<pdfrwt beam="2">  1       -2 0.91473557E-01 0.23433844E+04</pdfrwt>
<totfact> 0.41195489E+00</totfact>
</mgrwt>
</event>
<event>
 6    1  0.1028026E-006  0.2200343E+04  0.7818608E-02  0.8518286E-01
          1   -1    0    0  501    0  0.00000000000E+00  0.00000000000E+00  0.33231753162E+04  0.33231753162E+04  0.00000000000E+00 0. -1.
         -1   -1    0    0    0  501 -0.00000000000E+00 -0.00000000000E+00 -0.36422300541E+03  0.36422300541E+03  0.00000000000E+00 0.  1.
         23    2    1    2    0    0 -0.51150066147E+03  0.33729683984E+02  0.31098393573E+04  0.31530412134E+04  0.88303153692E+02 0.  0.
         11    1    3    3    0    0 -0.32035461677E+03  0.58590451134E+02  0.18264445341E+04  0.18552518852E+04  0.00000000000E+00 0.  1.
        -11    1    3    3    0    0 -0.19114604471E+03 -0.24860767150E+02  0.12833948232E+04  0.12977893282E+04  0.00000000000E+00 0. -1.
         22    1    1    2    0    0  0.51150066147E+03 -0.33729683984E+02 -0.15088704653E+03  0.53435710820E+03  0.00000000000E+00 0.  1.
<mgrwt>
<rscale>  0 0.22003426E+04</rscale>
<asrwt>0</asrwt>
<pdfrwt beam="1">  1        1 0.51125772E+00 0.22003426E+04</pdfrwt>
<pdfrwt beam="2">  1       -1 0.56034311E-01 0.22003426E+04</pdfrwt>
<totfact> 0.10091382E+00</totfact>
</mgrwt>
</event>
<event>
 6    1  0.1028026E-006  0.2183759E+04  0.7818608E-02  0.8525219E-01
          2   -1    0    0  501    0  0.00000000000E+00  0.00000000000E+00  0.25111508719E+04  0.25111508719E+04  0.00000000000E+00 0. -1.
         -2   -1    0    0    0  501 -0.00000000000E+00 -0.00000000000E+00 -0.47476254028E+03  0.47476254028E+03  0.00000000000E+00 0.  1.
         23    2    1    2    0    0  0.28104168795E+03  0.10112807885E+04  0.14221814920E+04  0.17698035054E+04  0.89056094546E+02 0.  0.
         11    1    3    3    0    0  0.20777341959E+03  0.63559717948E+03  0.85235469800E+03  0.10833568663E+04  0.00000000000E+00 0. -1.
        -11    1    3    3    0    0  0.73268268360E+02  0.37568360901E+03  0.56982679401E+03  0.68644663915E+03  0.00000000000E+00 0.  1.
         22    1    1    2    0    0 -0.28104168795E+03 -0.10112807885E+04  0.61420683960E+03  0.12161099068E+04  0.00000000000E+00 0.  1.
<mgrwt>
<rscale>  0 0.21837586E+04</rscale>
<asrwt>0</asrwt>
<pdfrwt beam="1">  1        2 0.38633090E+00 0.21837586E+04</pdfrwt>
<pdfrwt beam="2">  1       -2 0.73040392E-01 0.21837586E+04</pdfrwt>
<totfact> 0.53156082E+00</totfact>
</mgrwt>
</event>
<event>
 6    1  0.1028026E-006  0.1626685E+04  0.7818608E-02  0.8804320E-01
         -1   -1    0    0    0  501 -0.00000000000E+00  0.00000000000E+00  0.14376733982E+04  0.14376733982E+04  0.00000000000E+00 0.  1.
          1   -1    0    0  501    0  0.00000000000E+00 -0.00000000000E+00 -0.46013654421E+03  0.46013654421E+03  0.00000000000E+00 0. -1.
         23    2    1    2    0    0 -0.23839446653E+03  0.60894252802E+03  0.10494489388E+04  0.12399237273E+04  0.91786983662E+02 0.  0.
         13    1    3    3    0    0 -0.83626530321E+02  0.13639941538E+03  0.20627778045E+03  0.26105309766E+03  0.00000000000E+00 0. -1.
        -13    1    3    3    0    0 -0.15476793620E+03  0.47254311264E+03  0.84317115831E+03  0.97887062965E+03  0.00000000000E+00 0.  1.
         22    1    1    2    0    0  0.23839446653E+03 -0.60894252802E+03 -0.71912084759E+02  0.65788621512E+03  0.00000000000E+00 0. -1.
<mgrwt>
<rscale>  0 0.16266851E+04</rscale>
<asrwt>0</asrwt>
<pdfrwt beam="1">  1        1 0.70790238E-01 0.16266851E+04</pdfrwt>
<pdfrwt beam="2">  1       -1 0.22118052E+00 0.16266851E+04</pdfrwt>
<totfact> 0.51392741E+00</totfact>
</mgrwt>
</event>
<event>
 6    1  0.1028026E-006  0.3032546E+04  0.7818608E-02  0.8234498E-01
          2   -1    0    0  501    0  0.00000000000E+00  0.00000000000E+00  0.19664493115E+04  0.19664493115E+04  0.00000000000E+00 0. -1.
         -2   -1    0    0    0  501 -0.00000000000E+00 -0.00000000000E+00 -0.11691546429E+04  0.11691546429E+04  0.00000000000E+00 0.  1.
         23    2    1    2    0    0 -0.13866203622E+04  0.60923892163E+03  0.43105009784E+03  0.15773924226E+04  0.92057457766E+02 0.  0.
         11    1    3    3    0    0 -0.38232575944E+03  0.21254646667E+03  0.13317076704E+03  0.45725642698E+03  0.00000000000E+00 0. -1.
        -11    1    3    3    0    0 -0.10042946027E+04  0.39669245496E+03  0.29787933080E+03  0.11201359956E+04  0.00000000000E+00 0.  1.
         22    1    1    2    0    0  0.13866203622E+04 -0.60923892163E+03  0.36624457076E+03  0.15582115318E+04  0.00000000000E+00 0.  1.
<mgrwt>
<rscale>  0 0.30325457E+04</rscale>
<asrwt>0</asrwt>
<pdfrwt beam="1">  1        2 0.30253066E+00 0.30325457E+04</pdfrwt>
<pdfrwt beam="2">  1       -2 0.17986994E+00 0.30325457E+04</pdfrwt>
<totfact> 0.10820477E+00</totfact>
</mgrwt>
</event>
<event>
 6    1  0.1028026E-006  0.2297347E+04  0.7818608E-02  0.8478968E-01
         -2   -1    0    0    0  501 -0.00000000000E+00  0.00000000000E+00  0.80132445338E+03  0.80132445338E+03  0.00000000000E+00 0.  1.
          2   -1    0    0  501    0  0.00000000000E+00 -0.00000000000E+00 -0.16465870649E+04  0.16465870649E+04  0.00000000000E+00 0. -1.
         23    2    1    2    0    0  0.66657669816E+03  0.83703775893E+03 -0.86306805280E+03  0.13777368885E+04  0.91190820759E+02 0.  0.
         13    1    3    3    0    0  0.40214178471E+03  0.43314284153E+03 -0.48455507436E+03  0.76428028646E+03  0.00000000000E+00 0. -1.
        -13    1    3    3    0    0  0.26443491344E+03  0.40389491741E+03 -0.37851297844E+03  0.61345660206E+03  0.00000000000E+00 0.  1.
         22    1    1    2    0    0 -0.66657669816E+03 -0.83703775893E+03  0.17805441303E+02  0.10701746297E+04  0.00000000000E+00 0.  1.
<mgrwt>
<rscale>  0 0.22973467E+04</rscale>
<asrwt>0</asrwt>
<pdfrwt beam="1">  1        2 0.25332108E+00 0.22973467E+04</pdfrwt>
<pdfrwt beam="2">  1       -2 0.12328069E+00 0.22973467E+04</pdfrwt>
<totfact> 0.47286689E+00</totfact>
</mgrwt>
</event>
<event>
 6    1  0.1028026E-006  0.2415949E+04  0.7818608E-02  0.8433557E-01
          2   -1    0    0  501    0  0.00000000000E+00  0.00000000000E+00  0.15207235170E+04  0.15207235170E+04  0.00000000000E+00 0. -1.
         -2   -1    0    0    0  501 -0.00000000000E+00 -0.00000000000E+00 -0.95954467984E+03  0.95954467984E+03  0.00000000000E+00 0.  1.
         23    2    1    2    0    0  0.79753091309E+03 -0.86074702000E+03 -0.55319112928E+01  0.11771557450E+04  0.93402655796E+02 0.  0.
         11    1    3    3    0    0  0.38421132738E+03 -0.46362022387E+03 -0.35585531251E+02  0.60318188476E+03  0.00000000000E+00 0. -1.
        -11    1    3    3    0    0  0.41331958571E+03 -0.39712679613E+03  0.30053619959E+02  0.57397386021E+03  0.00000000000E+00 0.  1.
         22    1    1    2    0    0 -0.79753091309E+03  0.86074702000E+03  0.56671074844E+03  0.13031124519E+04  0.00000000000E+00 0. -1.
<mgrwt>
<rscale>  0 0.24159488E+04</rscale>
<asrwt>0</asrwt>
<pdfrwt beam="1">  1        2 0.23395746E+00 0.24159488E+04</pdfrwt>
<pdfrwt beam="2">  1       -2 0.14762226E+00 0.24159488E+04</pdfrwt>
<totfact> 0.34690445E+00</totfact>
</mgrwt>
</event>
<event>
 6    1  0.1028026E-006  0.4366491E+04  0.7818608E-02  0.7934436E-01
         -1   -1    0    0    0  501 -0.00000000000E+00  0.00000000000E+00  0.12125967599E+04  0.12125967599E+04  0.00000000000E+00 0.  1.
          1   -1    0    0  501    0  0.00000000000E+00 -0.00000000000E+00 -0.39308712028E+04  0.39308712028E+04  0.00000000000E+00 0. -1.
         23    2    1    2    0    0 -0.75608776636E+03 -0.11925412601E+04  0.60069240825E+03  0.15366183226E+04  0.80877267034E+02 0.  0.
         11    1    3    3    0    0 -0.36628714368E+03 -0.50585979516E+03  0.27778485470E+03  0.68353846234E+03  0.00000000000E+00 0.  1.
        -11    1    3    3    0    0 -0.38980062267E+03 -0.68668146498E+03  0.32290755355E+03  0.85307986023E+03  0.00000000000E+00 0. -1.
         22    1    1    2    0    0  0.75608776636E+03  0.11925412601E+04 -0.33189668512E+04  0.36068496402E+04  0.00000000000E+00 0. -1.
<mgrwt>
<rscale>  0 0.43664914E+04</rscale>
<asrwt>0</asrwt>
<pdfrwt beam="1">  1        1 0.60474941E+00 0.43664914E+04</pdfrwt>
<pdfrwt beam="2">  1       -1 0.18655335E+00 0.43664914E+04</pdfrwt>
<totfact> 0.15602447E-02</totfact>
</mgrwt>
</event>
<event>
 6    1  0.1028026E-006  0.3924592E+04  0.7818608E-02  0.8019934E-01
         -1   -1    0    0    0  501 -0.00000000000E+00  0.00000000000E+00  0.13228531119E+04  0.13228531119E+04  0.00000000000E+00 0.  1.
          1   -1    0    0  501    0  0.00000000000E+00 -0.00000000000E+00 -0.29108339297E+04  0.29108339297E+04  0.00000000000E+00 0. -1.
         23    2    1    2    0    0 -0.11828081173E+04  0.15267371075E+04 -0.42678821382E+03  0.19801721201E+04  0.94721739212E+02 0.  0.
         11    1    3    3    0    0 -0.26722305741E+03  0.31153171365E+03 -0.57170170828E+02  0.41440149547E+03  0.00000000000E+00 0.  1.
        -11    1    3    3    0    0 -0.91558505993E+03  0.12152053938E+04 -0.36961804299E+03  0.15657706246E+04  0.00000000000E+00 0. -1.
         22    1    1    2    0    0  0.11828081173E+04 -0.15267371075E+04 -0.11611926040E+04  0.22535149215E+04  0.00000000000E+00 0. -1.
<mgrwt>
<rscale>  0 0.39245921E+04</rscale>
<asrwt>0</asrwt>
<pdfrwt beam="1">  1        1 0.44782060E+00 0.39245921E+04</pdfrwt>
<pdfrwt beam="2">  1       -1 0.20351587E+00 0.39245921E+04</pdfrwt>
<totfact> 0.77747657E-02</totfact>
</mgrwt>
</event>
<event>
 6    1  0.1028026E-006  0.3386533E+04  0.7818608E-02  0.8141220E-01
          2   -1    0    0  501    0  0.00000000000E+00  0.00000000000E+00  0.26679965083E+04  0.26679965083E+04  0.00000000000E+00 0. -1.
         -2   -1    0    0    0  501 -0.00000000000E+00 -0.00000000000E+00 -0.10746457620E+04  0.10746457620E+04  0.00000000000E+00 0.  1.
         23    2    1    2    0    0 -0.10997172888E+04 -0.11726418471E+04  0.21391703691E+03  0.16243164277E+04  0.90423126558E+02 0.  0.
         13    1    3    3    0    0 -0.68659048425E+03 -0.79458610058E+03  0.13416158917E+03  0.10586656206E+04  0.00000000000E+00 0.  1.
        -13    1    3    3    0    0 -0.41312680453E+03 -0.37805574652E+03  0.79755447736E+02  0.56565080708E+03  0.00000000000E+00 0. -1.
         22    1    1    2    0    0  0.10997172888E+04  0.11726418471E+04  0.13794337094E+04  0.21183258426E+04  0.00000000000E+00 0. -1.
<mgrwt>
<rscale>  0 0.33865328E+04</rscale>
<asrwt>0</asrwt>
<pdfrwt beam="1">  1        2 0.41046100E+00 0.33865328E+04</pdfrwt>
<pdfrwt beam="2">  1       -2 0.16533012E+00 0.33865328E+04</pdfrwt>
<totfact> 0.52963625E-01</totfact>
</mgrwt>
</event>
<event>
 6    1  0.1028026E-006  0.5771520E+04  0.7818608E-02  0.7719394E-01
         -2   -1    0    0    0  501 -0.00000000000E+00  0.00000000000E+00  0.27780900268E+04  0.27780900268E+04  0.00000000000E+00 0.  1.
          2   -1    0    0  501    0  0.00000000000E+00 -0.00000000000E+00 -0.29976027765E+04  0.29976027765E+04  0.00000000000E+00 0. -1.
         23    2    1    2    0    0 -0.27239660381E+03  0.83870384946E+03 -0.28587623173E+04  0.29930210050E+04  0.89602972444E+02 0.  0.
         13    1    3    3    0    0 -0.18297600874E+03  0.43968431353E+03 -0.16159401480E+04  0.16846557742E+04  0.00000000000E+00 0.  1.
        -13    1    3    3    0    0 -0.89420595068E+02  0.39901953594E+03 -0.12428221693E+04  0.13083652309E+04  0.00000000000E+00 0. -1.
         22    1    1    2    0    0  0.27239660381E+03 -0.83870384946E+03  0.26392495676E+04  0.27826717983E+04  0.00000000000E+00 0.  1.
<mgrwt>
<rscale>  0 0.57715199E+04</rscale>
<asrwt>0</asrwt>
<pdfrwt beam="1">  1        2 0.46116966E+00 0.57715199E+04</pdfrwt>
<pdfrwt beam="2">  1       -2 0.42739847E+00 0.57715199E+04</pdfrwt>
<totfact> 0.58764049E-03</totfact>
</mgrwt>
</event>
<event>
 6    1  0.1028026E-006  0.1614799E+04  0.7818608E-02  0.8811508E-01
         -1   -1    0    0    0  501 -0.00000000000E+00  0.00000000000E+00  0.66853742186E+03  0.66853742186E+03  0.00000000000E+00 0.  1.
          1   -1    0    0  501    0  0.00000000000E+00 -0.00000000000E+00 -0.97510489636E+03  0.97510489636E+03  0.00000000000E+00 0. -1.
         23    2    1    2    0    0 -0.27797942166E+03  0.52767423544E+03  0.39615461003E+03  0.72194226630E+03  0.92463523608E+02 0.  0.
         11    1    3    3    0    0 -0.22505801140E+03  0.41579290375E+03  0.26664188684E+03  0.54280083191E+03  0.00000000000E+00 0. -1.
        -11    1    3    3    0    0 -0.52921410267E+02  0.11188133169E+03  0.12951272319E+03  0.17914143439E+03  0.00000000000E+00 0.  1.
         22    1    1    2    0    0  0.27797942166E+03 -0.52767423544E+03 -0.70272208454E+03  0.92170005192E+03  0.00000000000E+00 0. -1.
<mgrwt>
<rscale>  0 0.16147992E+04</rscale>
<asrwt>0</asrwt>
<pdfrwt beam="1">  1        1 0.15001614E+00 0.16147992E+04</pdfrwt>
<pdfrwt beam="2">  1       -1 0.10285191E+00 0.16147992E+04</pdfrwt>
<totfact> 0.13554569E+01</totfact>
</mgrwt>
</event>
<event>
 6    1  0.1028026E-006  0.2172188E+04  0.7818608E-02  0.8530094E-01
          2   -1    0    0  501    0  0.00000000000E+00  0.00000000000E+00  0.11614483789E+04  0.11614483789E+04  0.00000000000E+00 0. -1.
         -2   -1    0    0    0  501 -0.00000000000E+00 -0.00000000000E+00 -0.10156288156E+04  0.10156288156E+04  0.00000000000E+00 0.  1.
         23    2    1    2    0    0 -0.10742130421E+03  0.10102652622E+04  0.45253930391E+03  0.11158268772E+04  0.90014230849E+02 0.  0.
         11    1    3    3    0    0 -0.96104676974E+02  0.53282134295E+03  0.26435712754E+03  0.60251089892E+03  0.00000000000E+00 0. -1.
        -11    1    3    3    0    0 -0.11316627238E+02  0.47744391926E+03  0.18818217637E+03  0.51331597831E+03  0.00000000000E+00 0.  1.
         22    1    1    2    0    0  0.10742130421E+03 -0.10102652622E+04 -0.30671974068E+03  0.10612503173E+04  0.00000000000E+00 0.  1.
<mgrwt>
<rscale>  0 0.21721882E+04</rscale>
<asrwt>0</asrwt>
<pdfrwt beam="1">  1        2 0.17868437E+00 0.21721882E+04</pdfrwt>
<pdfrwt beam="2">  1       -2 0.15625059E+00 0.21721882E+04</pdfrwt>
<totfact> 0.49174691E+00</totfact>
</mgrwt>
</event>
<event>
 6    1  0.1028026E-006  0.2875597E+04  0.7818608E-02  0.8280175E-01
          2   -1    0    0  501    0  0.00000000000E+00  0.00000000000E+00  0.26363261492E+04  0.26363261492E+04  0.00000000000E+00 0. -1.
         -2   -1    0    0    0  501 -0.00000000000E+00 -0.00000000000E+00 -0.78414592978E+03  0.78414592978E+03  0.00000000000E+00 0.  1.
         23    2    1    2    0    0 -0.29268556255E+03 -0.76087441861E+03  0.23336924902E+04  0.24736622847E+04  0.91048013475E+02 0.  0.
         13    1    3    3    0    0 -0.13588880906E+03 -0.45678300692E+03  0.14336855457E+04  0.15108179003E+04  0.00000000000E+00 0.  1.
        -13    1    3    3    0    0 -0.15679675349E+03 -0.30409141170E+03  0.90000694451E+03  0.96284438449E+03  0.00000000000E+00 0. -1.
         22    1    1    2    0    0  0.29268556255E+03  0.76087441861E+03 -0.48151227082E+03  0.94680979419E+03  0.00000000000E+00 0.  1.
<mgrwt>
<rscale>  0 0.28755969E+04</rscale>
<asrwt>0</asrwt>
<pdfrwt beam="1">  1        2 0.40558863E+00 0.28755969E+04</pdfrwt>
<pdfrwt beam="2">  1       -2 0.12063784E+00 0.28755969E+04</pdfrwt>
<totfact> 0.13124220E+00</totfact>
</mgrwt>
</event>
<event>
 6    1  0.1028026E-006  0.2117628E+04  0.7818608E-02  0.8553517E-01
          2   -1    0    0  501    0  0.00000000000E+00  0.00000000000E+00  0.20218525296E+04  0.20218525296E+04  0.00000000000E+00 0. -1.
         -2   -1    0    0    0  501 -0.00000000000E+00 -0.00000000000E+00 -0.55448535288E+03  0.55448535288E+03  0.00000000000E+00 0.  1.
         23    2    1    2    0    0 -0.95853667523E+03  0.35466774616E+03  0.40742217637E+03  0.11039027662E+04  0.89591961020E+02 0.  0.
         11    1    3    3    0    0 -0.42152663643E+03  0.12719053018E+03  0.13752877908E+03  0.46127681631E+03  0.00000000000E+00 0. -1.
        -11    1    3    3    0    0 -0.53701003880E+03  0.22747721599E+03  0.26989339730E+03  0.64262594989E+03  0.00000000000E+00 0.  1.
         22    1    1    2    0    0  0.95853667523E+03 -0.35466774616E+03  0.10599450003E+04  0.14724351163E+04  0.00000000000E+00 0. -1.
<mgrwt>
<rscale>  0 0.21176285E+04</rscale>
<asrwt>0</asrwt>
<pdfrwt beam="1">  1        2 0.31105423E+00 0.21176285E+04</pdfrwt>
<pdfrwt beam="2">  1       -2 0.85305440E-01 0.21176285E+04</pdfrwt>
<totfact> 0.71440067E+00</totfact>
</mgrwt>
</event>
<event>
 6    1  0.1028026E-006  0.2846599E+04  0.7818608E-02  0.8288945E-01
         -1   -1    0    0    0  501 -0.00000000000E+00  0.00000000000E+00  0.83404988481E+03  0.83404988481E+03  0.00000000000E+00 0.  1.
          1   -1    0    0  501    0  0.00000000000E+00 -0.00000000000E+00 -0.24288496894E+04  0.24288496894E+04  0.00000000000E+00 0. -1.
         23    2    1    2    0    0 -0.16682179917E+03  0.76815827107E+03  0.56007478296E+03  0.96912950504E+03  0.87358988924E+02 0.  0.
         13    1    3    3    0    0 -0.87935779695E+02  0.53065205805E+03  0.41913489154E+03  0.68190788628E+03  0.00000000000E+00 0. -1.
        -13    1    3    3    0    0 -0.78886019479E+02  0.23750621302E+03  0.14093989142E+03  0.28722161877E+03  0.00000000000E+00 0.  1.
         22    1    1    2    0    0  0.16682179917E+03 -0.76815827107E+03 -0.21548745876E+04  0.22937700692E+04  0.00000000000E+00 0. -1.
<mgrwt>
<rscale>  0 0.28465992E+04</rscale>
<asrwt>0</asrwt>
<pdfrwt beam="1">  1        1 0.37366918E+00 0.28465992E+04</pdfrwt>
<pdfrwt beam="2">  1       -1 0.12831537E+00 0.28465992E+04</pdfrwt>
<totfact> 0.68555203E-01</totfact>
</mgrwt>
</event>
<event>
 6    1  0.1028026E-006  0.3897584E+04  0.7818608E-02  0.8025532E-01
         -1   -1    0    0    0  501 -0.00000000000E+00  0.00000000000E+00  0.21119283767E+04  0.21119283767E+04  0.00000000000E+00 0.  1.
          1   -1    0    0  501    0  0.00000000000E+00 -0.00000000000E+00 -0.17982572583E+04  0.17982572583E+04  0.00000000000E+00 0. -1.
         23    2    1    2    0    0 -0.14043797033E+04 -0.13492143623E+04  0.12820397246E+03  0.19538983840E+04  0.92848747464E+02 0.  0.
         13    1    3    3    0    0 -0.12205333156E+03 -0.10057535490E+03  0.32917140097E+02  0.16154242746E+03  0.00000000000E+00 0.  1.
        -13    1    3    3    0    0 -0.12823263717E+04 -0.12486390074E+04  0.95286832361E+02  0.17923559565E+04  0.00000000000E+00 0. -1.
         22    1    1    2    0    0  0.14043797033E+04  0.13492143623E+04  0.18546714595E+03  0.19562872511E+04  0.00000000000E+00 0.  1.
<mgrwt>
<rscale>  0 0.38975841E+04</rscale>
<asrwt>0</asrwt>
<pdfrwt beam="1">  1        1 0.27665496E+00 0.38975841E+04</pdfrwt>
<pdfrwt beam="2">  1       -1 0.32491206E+00 0.38975841E+04</pdfrwt>
<totfact> 0.73272911E-02</totfact>
</mgrwt>
</event>
<event>
 6    1  0.1028026E-006  0.2486239E+04  0.7818608E-02  0.8407905E-01
          2   -1    0    0  501    0  0.00000000000E+00  0.00000000000E+00  0.19247781115E+04  0.19247781115E+04  0.00000000000E+00 0. -1.
         -2   -1    0    0    0  501 -0.00000000000E+00 -0.00000000000E+00 -0.80286954658E+03  0.80286954658E+03  0.00000000000E+00 0.  1.
         23    2    1    2    0    0  0.67045476971E+03  0.14821314442E+03 -0.57276897820E+03  0.89914862622E+03  0.94483941690E+02 0.  0.
         11    1    3    3    0    0  0.35873520958E+03  0.86198260969E+02 -0.36780350354E+03  0.52096113867E+03  0.00000000000E+00 0.  1.
        -11    1    3    3    0    0  0.31171956013E+03  0.62014883447E+02 -0.20496547466E+03  0.37818748755E+03  0.00000000000E+00 0. -1.
         22    1    1    2    0    0 -0.67045476971E+03 -0.14821314442E+03  0.16946775431E+04  0.18284990319E+04  0.00000000000E+00 0. -1.
<mgrwt>
<rscale>  0 0.24862387E+04</rscale>
<asrwt>0</asrwt>
<pdfrwt beam="1">  1        2 0.29611971E+00 0.24862387E+04</pdfrwt>
<pdfrwt beam="2">  1       -2 0.12351839E+00 0.24862387E+04</pdfrwt>
<totfact> 0.32453172E+00</totfact>
</mgrwt>
</event>
<event>
 6    1  0.1028026E-006  0.1553633E+04  0.7818608E-02  0.8849550E-01
         -1   -1    0    0    0  501 -0.00000000000E+00  0.00000000000E+00  0.18662503616E+03  0.18662503616E+03  0.00000000000E+00 0.  1.
          1   -1    0    0  501    0  0.00000000000E+00 -0.00000000000E+00 -0.32334576559E+04  0.32334576559E+04  0.00000000000E+00 0. -1.
         23    2    1    2    0    0  0.25947491002E+03  0.61282406731E+03 -0.23991149176E+04  0.24914176351E+04  0.92351925014E+02 0.  0.
         11    1    3    3    0    0  0.10789274590E+03  0.29632573943E+03 -0.12966935051E+04  0.13344901029E+04  0.00000000000E+00 0.  1.
        -11    1    3    3    0    0  0.15158216412E+03  0.31649832788E+03 -0.11024214125E+04  0.11569275322E+04  0.00000000000E+00 0. -1.
         22    1    1    2    0    0 -0.25947491002E+03 -0.61282406731E+03 -0.64771770207E+03  0.92866505694E+03  0.00000000000E+00 0.  1.
<mgrwt>
<rscale>  0 0.15536334E+04</rscale>
<asrwt>0</asrwt>
<pdfrwt beam="1">  1        1 0.49745502E+00 0.15536334E+04</pdfrwt>
<pdfrwt beam="2">  1       -1 0.28711544E-01 0.15536334E+04</pdfrwt>
<totfact> 0.42902503E+00</totfact>
</mgrwt>
</event>
<event>
 6    1  0.1028026E-006  0.2984313E+04  0.7818608E-02  0.8248225E-01
          1   -1    0    0  501    0  0.00000000000E+00  0.00000000000E+00  0.22084209998E+04  0.22084209998E+04  0.00000000000E+00 0. -1.
         -1   -1    0    0    0  501 -0.00000000000E+00 -0.00000000000E+00 -0.10082006755E+04  0.10082006755E+04  0.00000000000E+00 0.  1.
         23    2    1    2    0    0 -0.10743579363E+04  0.67665584378E+02 -0.51074713459E+03  0.11951783166E+04  0.93621399422E+02 0.  0.
         11    1    3    3    0    0 -0.87202430360E+03  0.34676223590E+02 -0.37877390634E+03  0.95136664786E+03  0.00000000000E+00 0. -1.
        -11    1    3    3    0    0 -0.20233363273E+03  0.32989360787E+02 -0.13197322825E+03  0.24381166878E+03  0.00000000000E+00 0.  1.
         22    1    1    2    0    0  0.10743579363E+04 -0.67665584378E+02  0.17109674589E+04  0.20214433586E+04  0.00000000000E+00 0. -1.
<mgrwt>
<rscale>  0 0.29843134E+04</rscale>
<asrwt>0</asrwt>
<pdfrwt beam="1">  1        1 0.33975708E+00 0.29843134E+04</pdfrwt>
<pdfrwt beam="2">  1       -1 0.15510780E+00 0.29843134E+04</pdfrwt>
<totfact> 0.58347789E-01</totfact>
</mgrwt>
</event>
<event>
 6    1  0.1028026E-006  0.4342310E+04  0.7818608E-02  0.7938841E-01
          1   -1    0    0  501    0  0.00000000000E+00  0.00000000000E+00  0.40297563745E+04  0.40297563745E+04  0.00000000000E+00 0. -1.
         -1   -1    0    0    0  501 -0.00000000000E+00 -0.00000000000E+00 -0.11697766129E+04  0.11697766129E+04  0.00000000000E+00 0.  1.
         23    2    1    2    0    0 -0.19753893716E+04 -0.70124303771E+03  0.75771863861E+03  0.22307947374E+04  0.91666011145E+02 0.  0.
         11    1    3    3    0    0 -0.58132656667E+03 -0.19804920793E+03  0.26585408652E+03  0.66921032657E+03  0.00000000000E+00 0.  1.
        -11    1    3    3    0    0 -0.13940628050E+04 -0.50319382978E+03  0.49186455209E+03  0.15615844108E+04  0.00000000000E+00 0. -1.
         22    1    1    2    0    0  0.19753893716E+04  0.70124303771E+03  0.21022611230E+04  0.29687382500E+04  0.00000000000E+00 0. -1.
<mgrwt>
<rscale>  0 0.43423103E+04</rscale>
<asrwt>0</asrwt>
<pdfrwt beam="1">  1        1 0.61996251E+00 0.43423103E+04</pdfrwt>
<pdfrwt beam="2">  1       -1 0.17996563E+00 0.43423103E+04</pdfrwt>
<totfact> 0.14261792E-02</totfact>
</mgrwt>
</event>
<event>
 6    1  0.1028026E-006  0.9327840E+03  0.7818608E-02  0.9385503E-01
          2   -1    0    0  501    0  0.00000000000E+00  0.00000000000E+00  0.14467026753E+04  0.14467026753E+04  0.00000000000E+00 0. -1.
         -2   -1    0    0    0  501 -0.00000000000E+00 -0.00000000000E+00 -0.15035672412E+03  0.15035672412E+03  0.00000000000E+00 0.  1.
         23    2    1    2    0    0 -0.26745928837E+03  0.33564116775E+03  0.94698506393E+03  0.10436675907E+04  0.90949789345E+02 0.  0.
         11    1    3    3    0    0 -0.10413795391E+02  0.71959166762E+01  0.86638931678E+02  0.87558739332E+02  0.00000000000E+00 0.  1.
        -11    1    3    3    0    0 -0.25704549298E+03  0.32844525107E+03  0.86034613225E+03  0.95610885138E+03  0.00000000000E+00 0. -1.
         22    1    1    2    0    0  0.26745928837E+03 -0.33564116775E+03  0.34936088729E+03  0.55339180875E+03  0.00000000000E+00 0.  1.
<mgrwt>
<rscale>  0 0.93278395E+03</rscale>
<asrwt>0</asrwt>
<pdfrwt beam="1">  1        2 0.22256963E+00 0.93278395E+03</pdfrwt>
<pdfrwt beam="2">  1       -2 0.23131805E-01 0.93278395E+03</pdfrwt>
<totfact> 0.22476653E+02</totfact>
</mgrwt>
</event>
<event>
 6    1  0.1028026E-006  0.4597019E+04  0.7818608E-02  0.7893868E-01
         -1   -1    0    0    0  501 -0.00000000000E+00  0.00000000000E+00  0.23346517202E+04  0.23346517202E+04  0.00000000000E+00 0.  1.
          1   -1    0    0  501    0  0.00000000000E+00 -0.00000000000E+00 -0.22629266006E+04  0.22629266006E+04  0.00000000000E+00 0. -1.
         23    2    1    2    0    0  0.17832825320E+04  0.20671092854E+03 -0.13982184150E+04  0.22773283361E+04  0.91562097485E+02 0.  0.
         11    1    3    3    0    0  0.12299051344E+04  0.11862831068E+03 -0.10060154618E+04  0.15933632433E+04  0.00000000000E+00 0. -1.
        -11    1    3    3    0    0  0.55337739761E+03  0.88082617861E+02 -0.39220295317E+03  0.68396509285E+03  0.00000000000E+00 0.  1.
         22    1    1    2    0    0 -0.17832825320E+04 -0.20671092854E+03  0.14699435345E+04  0.23202499847E+04  0.00000000000E+00 0.  1.
<mgrwt>
<rscale>  0 0.45970188E+04</rscale>
<asrwt>0</asrwt>
<pdfrwt beam="1">  1        1 0.34814255E+00 0.45970188E+04</pdfrwt>
<pdfrwt beam="2">  1       -1 0.35917719E+00 0.45970188E+04</pdfrwt>
<totfact> 0.19859892E-02</totfact>
</mgrwt>
</event>
<event>
 6    1  0.1028026E-006  0.3574279E+04  0.7818608E-02  0.8096409E-01
         -2   -1    0    0    0  501 -0.00000000000E+00  0.00000000000E+00  0.11712268868E+04  0.11712268868E+04  0.00000000000E+00 0.  1.
          2   -1    0    0  501    0  0.00000000000E+00 -0.00000000000E+00 -0.27269415148E+04  0.27269415148E+04  0.00000000000E+00 0. -1.
         23    2    1    2    0    0 -0.86746986063E+03  0.15044768296E+04 -0.32339750343E+03  0.17687177717E+04  0.88442752791E+02 0.  0.
         13    1    3    3    0    0 -0.76947338170E+03  0.13686041693E+04 -0.31216405893E+03  0.16008163721E+04  0.00000000000E+00 0.  1.
        -13    1    3    3    0    0 -0.97996478925E+02  0.13587266034E+03 -0.11233444495E+02  0.16790139959E+03  0.00000000000E+00 0. -1.
         22    1    1    2    0    0  0.86746986063E+03 -0.15044768296E+04 -0.12323171245E+04  0.21294506300E+04  0.00000000000E+00 0. -1.
<mgrwt>
<rscale>  0 0.35742788E+04</rscale>
<asrwt>0</asrwt>
<pdfrwt beam="1">  1        2 0.41952946E+00 0.35742788E+04</pdfrwt>
<pdfrwt beam="2">  1       -2 0.18018876E+00 0.35742788E+04</pdfrwt>
<totfact> 0.37771428E-01</totfact>
</mgrwt>
</event>
<event>
 6    1  0.1028026E-006  0.7509489E+03  0.7818608E-02  0.9633863E-01
         -1   -1    0    0    0  501 -0.00000000000E+00  0.00000000000E+00  0.59275219156E+03  0.59275219156E+03  0.00000000000E+00 0.  1.
          1   -1    0    0  501    0  0.00000000000E+00 -0.00000000000E+00 -0.23784148270E+03  0.23784148270E+03  0.00000000000E+00 0. -1.
         23    2    1    2    0    0 -0.13980490682E+03  0.17104406371E+03 -0.15050083722E+03  0.27901202607E+03  0.79973276709E+02 0.  0.
         11    1    3    3    0    0 -0.12536216354E+03  0.11736064899E+03 -0.14188366362E+03  0.22275584837E+03  0.00000000000E+00 0. -1.
        -11    1    3    3    0    0 -0.14442743284E+02  0.53683414719E+02 -0.86171735987E+01  0.56256177707E+02  0.00000000000E+00 0.  1.
         22    1    1    2    0    0  0.13980490682E+03 -0.17104406371E+03  0.50541154608E+03  0.55158164818E+03  0.00000000000E+00 0.  1.
<mgrwt>
<rscale>  0 0.75094889E+03</rscale>
<asrwt>0</asrwt>
<pdfrwt beam="1">  1        1 0.36590998E-01 0.75094889E+03</pdfrwt>
<pdfrwt beam="2">  1       -1 0.91192644E-01 0.75094889E+03</pdfrwt>
<totfact> 0.14120122E+02</totfact>
</mgrwt>
</event>
<event>
 6    1  0.1028026E-006  0.2130772E+04  0.7818608E-02  0.8547808E-01
         -4   -1    0    0    0  501 -0.00000000000E+00  0.00000000000E+00  0.68728018924E+03  0.68728018924E+03  0.00000000000E+00 0.  1.
          4   -1    0    0  501    0  0.00000000000E+00 -0.00000000000E+00 -0.16515055010E+04  0.16515055010E+04  0.00000000000E+00 0. -1.
         23    2    1    2    0    0  0.45513791240E+03  0.89397445699E+03 -0.96029864518E+02  0.10120965090E+04  0.93684361276E+02 0.  0.
         11    1    3    3    0    0  0.43296083958E+03  0.83530529895E+03 -0.11168616221E+03  0.94745122824E+03  0.00000000000E+00 0. -1.
        -11    1    3    3    0    0  0.22177072818E+02  0.58669158046E+02  0.15656297692E+02  0.64645280741E+02  0.00000000000E+00 0.  1.
         22    1    1    2    0    0 -0.45513791240E+03 -0.89397445699E+03 -0.86819544725E+03  0.13266891813E+04  0.00000000000E+00 0. -1.
<mgrwt>
<rscale>  0 0.21307717E+04</rscale>
<asrwt>0</asrwt>
<pdfrwt beam="1">  1        4 0.25407777E+00 0.21307717E+04</pdfrwt>
<pdfrwt beam="2">  1       -4 0.10573541E+00 0.21307717E+04</pdfrwt>
<totfact> 0.79052243E-02</totfact>
</mgrwt>
</event>
<event>
 6    1  0.1028026E-006  0.1687025E+04  0.7818608E-02  0.8768799E-01
         -2   -1    0    0    0  501 -0.00000000000E+00  0.00000000000E+00  0.42617912784E+03  0.42617912784E+03  0.00000000000E+00 0.  1.
          2   -1    0    0  501    0  0.00000000000E+00 -0.00000000000E+00 -0.16695178084E+04  0.16695178084E+04  0.00000000000E+00 0. -1.
         23    2    1    2    0    0 -0.51140566281E+03 -0.18935667648E+03 -0.14190516003E+04  0.15227512730E+04  0.87591622941E+02 0.  0.
         13    1    3    3    0    0 -0.31132570238E+03 -0.12947893577E+03 -0.76095873516E+03  0.83231405394E+03  0.00000000000E+00 0.  1.
        -13    1    3    3    0    0 -0.20007996044E+03 -0.59877740706E+02 -0.65809286511E+03  0.69043721910E+03  0.00000000000E+00 0. -1.
         22    1    1    2    0    0  0.51140566281E+03  0.18935667648E+03  0.17571291967E+03  0.57294566324E+03  0.00000000000E+00 0.  1.
<mgrwt>
<rscale>  0 0.16870254E+04</rscale>
<asrwt>0</asrwt>
<pdfrwt beam="1">  1        2 0.25684890E+00 0.16870254E+04</pdfrwt>
<pdfrwt beam="2">  1       -2 0.65566019E-01 0.16870254E+04</pdfrwt>
<totfact> 0.20811721E+01</totfact>
</mgrwt>
</event>
<event>
 6    1  0.1028026E-006  0.4132884E+04  0.7818608E-02  0.7978263E-01
          1   -1    0    0  501    0  0.00000000000E+00  0.00000000000E+00  0.19907473261E+04  0.19907473261E+04  0.00000000000E+00 0. -1.
         -1   -1    0    0    0  501 -0.00000000000E+00 -0.00000000000E+00 -0.21450150333E+04  0.21450150333E+04  0.00000000000E+00 0.  1.
         23    2    1    2    0    0  0.10237817132E+04  0.85457663895E+03  0.15010597855E+04  0.20100767439E+04  0.93796633772E+02 0.  0.
         11    1    3    3    0    0  0.74198684508E+03  0.56387929519E+03  0.10561746975E+04  0.14085486607E+04  0.00000000000E+00 0.  1.
        -11    1    3    3    0    0  0.28179486807E+03  0.29069734376E+03  0.44488508804E+03  0.60152808322E+03  0.00000000000E+00 0. -1.
         22    1    1    2    0    0 -0.10237817132E+04 -0.85457663895E+03 -0.16553274927E+04  0.21256856156E+04  0.00000000000E+00 0.  1.
<mgrwt>
<rscale>  0 0.41328842E+04</rscale>
<asrwt>0</asrwt>
<pdfrwt beam="1">  1        1 0.30626882E+00 0.41328842E+04</pdfrwt>
<pdfrwt beam="2">  1       -1 0.33000231E+00 0.41328842E+04</pdfrwt>
<totfact> 0.49267105E-02</totfact>
</mgrwt>
</event>
<event>
 6    1  0.1028026E-006  0.4149852E+04  0.7818608E-02  0.7974981E-01
          2   -1    0    0  501    0  0.00000000000E+00  0.00000000000E+00  0.19026300670E+04  0.19026300670E+04  0.00000000000E+00 0. -1.
         -2   -1    0    0    0  501 -0.00000000000E+00 -0.00000000000E+00 -0.22628244781E+04  0.22628244781E+04  0.00000000000E+00 0.  1.
         23    2    1    2    0    0 -0.64932167145E+03 -0.17744877663E+04 -0.10382042003E+04  0.21579379847E+04  0.91667434864E+02 0.  0.
         13    1    3    3    0    0 -0.16058552118E+03 -0.53491247919E+03 -0.27754316953E+03  0.62365798396E+03  0.00000000000E+00 0. -1.
        -13    1    3    3    0    0 -0.48873615028E+03 -0.12395752871E+04 -0.76066103079E+03  0.15342800008E+04  0.00000000000E+00 0.  1.
         22    1    1    2    0    0  0.64932167145E+03  0.17744877663E+04  0.67800978917E+03  0.20075165603E+04  0.00000000000E+00 0. -1.
<mgrwt>
<rscale>  0 0.41498520E+04</rscale>
<asrwt>0</asrwt>
<pdfrwt beam="1">  1        2 0.29271232E+00 0.41498520E+04</pdfrwt>
<pdfrwt beam="2">  1       -2 0.34812684E+00 0.41498520E+04</pdfrwt>
<totfact> 0.94283911E-02</totfact>
</mgrwt>
</event>
<event>
 6    1  0.1028026E-006  0.3340648E+04  0.7818608E-02  0.8152629E-01
         -1   -1    0    0    0  501 -0.00000000000E+00  0.00000000000E+00  0.28865260535E+04  0.28865260535E+04  0.00000000000E+00 0.  1.
          1   -1    0    0  501    0  0.00000000000E+00 -0.00000000000E+00 -0.96655371901E+03  0.96655371901E+03  0.00000000000E+00 0. -1.
         23    2    1    2    0    0  0.34635471429E+03  0.15571735637E+04  0.39503133842E+03  0.16462276848E+04  0.96253500897E+02 0.  0.
         11    1    3    3    0    0  0.33130117852E+02  0.32565217296E+03  0.86954986573E+02  0.33868586058E+03  0.00000000000E+00 0. -1.
        -11    1    3    3    0    0  0.31322459644E+03  0.12315213907E+04  0.30807635185E+03  0.13075418242E+04  0.00000000000E+00 0.  1.
         22    1    1    2    0    0 -0.34635471429E+03 -0.15571735637E+04  0.15249409961E+04  0.22068520877E+04  0.00000000000E+00 0. -1.
<mgrwt>
<rscale>  0 0.33406481E+04</rscale>
<asrwt>0</asrwt>
<pdfrwt beam="1">  1        1 0.14870057E+00 0.33406481E+04</pdfrwt>
<pdfrwt beam="2">  1       -1 0.44408093E+00 0.33406481E+04</pdfrwt>
<totfact> 0.47209887E-02</totfact>
</mgrwt>
</event>
<event>
 6    1  0.1028026E-006  0.2133951E+04  0.7818608E-02  0.8546434E-01
         -1   -1    0    0    0  501 -0.00000000000E+00  0.00000000000E+00  0.86443559826E+03  0.86443559826E+03  0.00000000000E+00 0.  1.
          1   -1    0    0  501    0  0.00000000000E+00 -0.00000000000E+00 -0.13169707609E+04  0.13169707609E+04  0.00000000000E+00 0. -1.
         23    2    1    2    0    0 -0.16726108028E+03 -0.10096919771E+04  0.74495779868E+02  0.10302261943E+04  0.91445244140E+02 0.  0.
         13    1    3    3    0    0 -0.97841302308E+02 -0.49881902978E+03 -0.63164070938E+01  0.50836329717E+03  0.00000000000E+00 0.  1.
        -13    1    3    3    0    0 -0.69419777968E+02 -0.51087294731E+03  0.80812186962E+02  0.52186289716E+03  0.00000000000E+00 0. -1.
         22    1    1    2    0    0  0.16726108028E+03  0.10096919771E+04 -0.52703094253E+03  0.11511801649E+04  0.00000000000E+00 0. -1.
<mgrwt>
<rscale>  0 0.21339507E+04</rscale>
<asrwt>0</asrwt>
<pdfrwt beam="1">  1        1 0.20261089E+00 0.21339507E+04</pdfrwt>
<pdfrwt beam="2">  1       -1 0.13299009E+00 0.21339507E+04</pdfrwt>
<totfact> 0.38613347E+00</totfact>
</mgrwt>
</event>
<event>
 6    1  0.1028026E-006  0.3886513E+04  0.7818608E-02  0.8027840E-01
          2   -1    0    0  501    0  0.00000000000E+00  0.00000000000E+00  0.20584090458E+04  0.20584090458E+04  0.00000000000E+00 0. -1.
         -2   -1    0    0    0  501 -0.00000000000E+00 -0.00000000000E+00 -0.18345460866E+04  0.18345460866E+04  0.00000000000E+00 0.  1.
         23    2    1    2    0    0 -0.18038804563E+04 -0.71174350930E+03  0.46651058137E+01  0.19413887813E+04  0.91679405700E+02 0.  0.
         13    1    3    3    0    0 -0.85505804165E+03 -0.29249953297E+03 -0.16506022784E+02  0.90385434676E+03  0.00000000000E+00 0. -1.
        -13    1    3    3    0    0 -0.94882241465E+03 -0.41924397634E+03  0.21171128597E+02  0.10375344346E+04  0.00000000000E+00 0.  1.
         22    1    1    2    0    0  0.18038804563E+04  0.71174350930E+03  0.21919785346E+03  0.19515663511E+04  0.00000000000E+00 0. -1.
<mgrwt>
<rscale>  0 0.38865132E+04</rscale>
<asrwt>0</asrwt>
<pdfrwt beam="1">  1        2 0.31667831E+00 0.38865132E+04</pdfrwt>
<pdfrwt beam="2">  1       -2 0.28223786E+00 0.38865132E+04</pdfrwt>
<totfact> 0.20141322E-01</totfact>
</mgrwt>
</event>
<event>
 6    1  0.1028026E-006  0.3222321E+04  0.7818608E-02  0.8182947E-01
          2   -1    0    0  501    0  0.00000000000E+00  0.00000000000E+00  0.20363690946E+04  0.20363690946E+04  0.00000000000E+00 0. -1.
         -2   -1    0    0    0  501 -0.00000000000E+00 -0.00000000000E+00 -0.12747386947E+04  0.12747386947E+04  0.00000000000E+00 0.  1.
         23    2    1    2    0    0 -0.15355688179E+03 -0.15924731997E+04  0.19680514285E+03  0.16144704743E+04  0.90730592716E+02 0.  0.
         13    1    3    3    0    0 -0.83230534049E+02 -0.43933162714E+03  0.54660299506E+02  0.45047458169E+03  0.00000000000E+00 0. -1.
        -13    1    3    3    0    0 -0.70326347743E+02 -0.11531415725E+04  0.14214484335E+03  0.11639958926E+04  0.00000000000E+00 0.  1.
         22    1    1    2    0    0  0.15355688179E+03  0.15924731997E+04  0.56482525711E+03  0.16966373150E+04  0.00000000000E+00 0.  1.
<mgrwt>
<rscale>  0 0.32223212E+04</rscale>
<asrwt>0</asrwt>
<pdfrwt beam="1">  1        2 0.31328755E+00 0.32223212E+04</pdfrwt>
<pdfrwt beam="2">  1       -2 0.19611364E+00 0.32223212E+04</pdfrwt>
<totfact> 0.75627967E-01</totfact>
</mgrwt>
</event>
<event>
 6    1  0.1028026E-006  0.9671292E+03  0.7818608E-02  0.9345350E-01
         -2   -1    0    0    0  501 -0.00000000000E+00  0.00000000000E+00  0.79805996687E+03  0.79805996687E+03  0.00000000000E+00 0.  1.
          2   -1    0    0  501    0  0.00000000000E+00 -0.00000000000E+00 -0.29300394004E+03  0.29300394004E+03  0.00000000000E+00 0. -1.
         23    2    1    2    0    0 -0.12331817990E+03 -0.46141547844E+03  0.30101412837E+03  0.57169437221E+03  0.90074038991E+02 0.  0.
         11    1    3    3    0    0 -0.22253069546E+02 -0.24622332780E+03  0.13457507045E+03  0.28148103993E+03  0.00000000000E+00 0. -1.
        -11    1    3    3    0    0 -0.10106511035E+03 -0.21519215064E+03  0.16643905793E+03  0.29021333228E+03  0.00000000000E+00 0.  1.
         22    1    1    2    0    0  0.12331817990E+03  0.46141547844E+03  0.20404189846E+03  0.51936953469E+03  0.00000000000E+00 0.  1.
<mgrwt>
<rscale>  0 0.96712918E+03</rscale>
<asrwt>0</asrwt>
<pdfrwt beam="1">  1        2 0.45077530E-01 0.96712918E+03</pdfrwt>
<pdfrwt beam="2">  1       -2 0.12277846E+00 0.96712918E+03</pdfrwt>
<totfact> 0.56507591E+01</totfact>
</mgrwt>
</event>
<event>
 6    1  0.1028026E-006  0.2572379E+04  0.7818608E-02  0.8377644E-01
         -1   -1    0    0    0  501 -0.00000000000E+00  0.00000000000E+00  0.13022330923E+04  0.13022330923E+04  0.00000000000E+00 0.  1.
          1   -1    0    0  501    0  0.00000000000E+00 -0.00000000000E+00 -0.12703433979E+04  0.12703433979E+04  0.00000000000E+00 0. -1.
         23    2    1    2    0    0  0.98222979033E+01  0.41527347246E+03  0.12316968597E+04  0.13028970942E+04  0.88967125416E+02 0.  0.
         11    1    3    3    0    0  0.29873385706E+02  0.53495720273E+02  0.21523885790E+03  0.22379002929E+03  0.00000000000E+00 0.  1.
        -11    1    3    3    0    0 -0.20051087803E+02  0.36177775219E+03  0.10164580018E+04  0.10791070649E+04  0.00000000000E+00 0. -1.
         22    1    1    2    0    0 -0.98222979033E+01 -0.41527347246E+03 -0.11998071654E+04  0.12696793960E+04  0.00000000000E+00 0. -1.
<mgrwt>
<rscale>  0 0.25723788E+04</rscale>
<asrwt>0</asrwt>
<pdfrwt beam="1">  1        1 0.19543745E+00 0.25723788E+04</pdfrwt>
<pdfrwt beam="2">  1       -1 0.20034355E+00 0.25723788E+04</pdfrwt>
<totfact> 0.12554781E+00</totfact>
</mgrwt>
</event>
<event>
 6    1  0.1028026E-006  0.2638700E+04  0.7818608E-02  0.8355173E-01
          1   -1    0    0  501    0  0.00000000000E+00  0.00000000000E+00  0.13060088819E+04  0.13060088819E+04  0.00000000000E+00 0. -1.
         -1   -1    0    0    0  501 -0.00000000000E+00 -0.00000000000E+00 -0.13328274786E+04  0.13328274786E+04  0.00000000000E+00 0.  1.
         23    2    1    2    0    0 -0.35041921704E+03 -0.88350628522E+03 -0.92623957719E+03  0.13302741404E+04  0.91282805051E+02 0.  0.
         13    1    3    3    0    0 -0.15965435522E+03 -0.30544413490E+03 -0.37051999617E+03  0.50603428763E+03  0.00000000000E+00 0. -1.
        -13    1    3    3    0    0 -0.19076486182E+03 -0.57806215031E+03 -0.55571958101E+03  0.82423985274E+03  0.00000000000E+00 0.  1.
         22    1    1    2    0    0  0.35041921704E+03  0.88350628522E+03  0.89942098052E+03  0.13085622201E+04  0.00000000000E+00 0. -1.
<mgrwt>
<rscale>  0 0.26387001E+04</rscale>
<asrwt>0</asrwt>
<pdfrwt beam="1">  1        1 0.20092444E+00 0.26387001E+04</pdfrwt>
<pdfrwt beam="2">  1       -1 0.20505038E+00 0.26387001E+04</pdfrwt>
<totfact> 0.10924000E+00</totfact>
</mgrwt>
</event>
<event>
 6    1  0.1028026E-006  0.2540779E+04  0.7818608E-02  0.8388600E-01
          1   -1    0    0  501    0  0.00000000000E+00  0.00000000000E+00  0.30613486574E+04  0.30613486574E+04  0.00000000000E+00 0. -1.
         -1   -1    0    0    0  501 -0.00000000000E+00 -0.00000000000E+00 -0.52718233846E+03  0.52718233846E+03  0.00000000000E+00 0.  1.
         23    2    1    2    0    0 -0.10116734922E+04  0.12779664004E+02  0.23499757884E+04  0.25601474457E+04  0.91225890298E+02 0.  0.
         13    1    3    3    0    0 -0.57120249893E+03 -0.18229533690E+02  0.14191235783E+04  0.15298746162E+04  0.00000000000E+00 0.  1.
        -13    1    3    3    0    0 -0.44047099329E+03  0.31009197693E+02  0.93085221011E+03  0.10302728296E+04  0.00000000000E+00 0. -1.
         22    1    1    2    0    0  0.10116734922E+04 -0.12779664004E+02  0.18419053054E+03  0.10283835501E+04  0.00000000000E+00 0.  1.
<mgrwt>
<rscale>  0 0.25407786E+04</rscale>
<asrwt>0</asrwt>
<pdfrwt beam="1">  1        1 0.47097671E+00 0.25407786E+04</pdfrwt>
<pdfrwt beam="2">  1       -1 0.81104977E-01 0.25407786E+04</pdfrwt>
<totfact> 0.72268023E-01</totfact>
</mgrwt>
</event>
<event>
 6    1  0.1028026E-006  0.1688798E+04  0.7818608E-02  0.8767779E-01
         -1   -1    0    0    0  501 -0.00000000000E+00  0.00000000000E+00  0.58920508897E+03  0.58920508897E+03  0.00000000000E+00 0.  1.
          1   -1    0    0  501    0  0.00000000000E+00 -0.00000000000E+00 -0.12101218837E+04  0.12101218837E+04  0.00000000000E+00 0. -1.
         23    2    1    2    0    0  0.83377437210E+03 -0.40294706670E+02 -0.19292542377E+03  0.86125449116E+03  0.87952899103E+02 0.  0.
         13    1    3    3    0    0  0.13891430017E+03 -0.30068053892E+02 -0.91254517870E+01  0.14242382008E+03  0.00000000000E+00 0. -1.
        -13    1    3    3    0    0  0.69486007193E+03 -0.10226652777E+02 -0.18379997198E+03  0.71883067108E+03  0.00000000000E+00 0.  1.
         22    1    1    2    0    0 -0.83377437210E+03  0.40294706670E+02 -0.42799137099E+03  0.93807248153E+03  0.00000000000E+00 0. -1.
<mgrwt>
<rscale>  0 0.16887984E+04</rscale>
<asrwt>0</asrwt>
<pdfrwt beam="1">  1        1 0.18617259E+00 0.16887984E+04</pdfrwt>
<pdfrwt beam="2">  1       -1 0.90646938E-01 0.16887984E+04</pdfrwt>
<totfact> 0.11897961E+01</totfact>
</mgrwt>
</event>
<event>
 6    1  0.1028026E-006  0.4156548E+04  0.7818608E-02  0.7973690E-01
         -2   -1    0    0    0  501 -0.00000000000E+00  0.00000000000E+00  0.14687434746E+04  0.14687434746E+04  0.00000000000E+00 0.  1.
          2   -1    0    0  501    0  0.00000000000E+00 -0.00000000000E+00 -0.29407601991E+04  0.29407601991E+04  0.00000000000E+00 0. -1.
         23    2    1    2    0    0 -0.11907724384E+04  0.14653354941E+04  0.18239518743E+03  0.18990802265E+04  0.89947719166E+02 0.  0.
         11    1    3    3    0    0 -0.47248502657E+03  0.64806896689E+03  0.91957438843E+02  0.80727421409E+03  0.00000000000E+00 0. -1.
        -11    1    3    3    0    0 -0.71828741178E+03  0.81726652720E+03  0.90437748591E+02  0.10918060124E+04  0.00000000000E+00 0.  1.
         22    1    1    2    0    0  0.11907724384E+04 -0.14653354941E+04 -0.16544119119E+04  0.25104234472E+04  0.00000000000E+00 0. -1.
<mgrwt>
<rscale>  0 0.41565478E+04</rscale>
<asrwt>0</asrwt>
<pdfrwt beam="1">  1        2 0.45242464E+00 0.41565478E+04</pdfrwt>
<pdfrwt beam="2">  1       -2 0.22596054E+00 0.41565478E+04</pdfrwt>
<totfact> 0.13378813E-01</totfact>
</mgrwt>
</event>
<event>
 6    1  0.1028026E-006  0.2024570E+04  0.7818608E-02  0.8595219E-01
          1   -1    0    0  501    0  0.00000000000E+00  0.00000000000E+00  0.10335328034E+04  0.10335328034E+04  0.00000000000E+00 0. -1.
         -1   -1    0    0    0  501 -0.00000000000E+00 -0.00000000000E+00 -0.99147440272E+03  0.99147440272E+03  0.00000000000E+00 0.  1.
         23    2    1    2    0    0  0.35976193912E+03 -0.64374033544E+03 -0.66953449337E+03  0.10002171207E+04  0.91255566413E+02 0.  0.
         11    1    3    3    0    0  0.60799125470E+02 -0.17096687274E+03 -0.19849965104E+03  0.26893924350E+03  0.00000000000E+00 0.  1.
        -11    1    3    3    0    0  0.29896281365E+03 -0.47277346271E+03 -0.47103484234E+03  0.73127787720E+03  0.00000000000E+00 0. -1.
         22    1    1    2    0    0 -0.35976193912E+03  0.64374033544E+03  0.71159289406E+03  0.10247900854E+04  0.00000000000E+00 0. -1.
<mgrwt>
<rscale>  0 0.20245704E+04</rscale>
<asrwt>0</asrwt>
<pdfrwt beam="1">  1        1 0.15900505E+00 0.20245704E+04</pdfrwt>
<pdfrwt beam="2">  1       -1 0.15253452E+00 0.20245704E+04</pdfrwt>
<totfact> 0.43981498E+00</totfact>
</mgrwt>
</event>
<event>
 6    1  0.1028026E-006  0.2074464E+04  0.7818608E-02  0.8572577E-01
          2   -1    0    0  501    0  0.00000000000E+00  0.00000000000E+00  0.15804291566E+04  0.15804291566E+04  0.00000000000E+00 0. -1.
         -2   -1    0    0    0  501 -0.00000000000E+00 -0.00000000000E+00 -0.68073270789E+03  0.68073270789E+03  0.00000000000E+00 0.  1.
         23    2    1    2    0    0 -0.30414640738E+03 -0.43951491692E+03 -0.51562906219E+03  0.74827564897E+03  0.91458830875E+02 0.  0.
         13    1    3    3    0    0 -0.13823430158E+03 -0.12438217495E+03 -0.16825052409E+03  0.25077457294E+03  0.00000000000E+00 0. -1.
        -13    1    3    3    0    0 -0.16591210580E+03 -0.31513274197E+03 -0.34737853811E+03  0.49750107603E+03  0.00000000000E+00 0.  1.
         22    1    1    2    0    0  0.30414640738E+03  0.43951491692E+03  0.14153255109E+04  0.15128862155E+04  0.00000000000E+00 0. -1.
<mgrwt>
<rscale>  0 0.20744636E+04</rscale>
<asrwt>0</asrwt>
<pdfrwt beam="1">  1        2 0.24314295E+00 0.20744636E+04</pdfrwt>
<pdfrwt beam="2">  1       -2 0.10472811E+00 0.20744636E+04</pdfrwt>
<totfact> 0.78131145E+00</totfact>
</mgrwt>
</event>
<event>
 6    1  0.1028026E-006  0.2469576E+04  0.7818608E-02  0.8413905E-01
         -1   -1    0    0    0  501 -0.00000000000E+00  0.00000000000E+00  0.24210101129E+04  0.24210101129E+04  0.00000000000E+00 0.  1.
          1   -1    0    0  501    0  0.00000000000E+00 -0.00000000000E+00 -0.62977892588E+03  0.62977892588E+03  0.00000000000E+00 0. -1.
         23    2    1    2    0    0 -0.91193429125E+03 -0.19325498549E+03  0.18940675934E+04  0.21129473850E+04  0.89905297125E+02 0.  0.
         11    1    3    3    0    0 -0.16210544904E+03 -0.47706291717E+02  0.42042878093E+03  0.45311635008E+03  0.00000000000E+00 0.  1.
        -11    1    3    3    0    0 -0.74982884222E+03 -0.14554869377E+03  0.14736388125E+04  0.16598310350E+04  0.00000000000E+00 0. -1.
         22    1    1    2    0    0  0.91193429125E+03  0.19325498549E+03 -0.10283640643E+03  0.93784165373E+03  0.00000000000E+00 0. -1.
<mgrwt>
<rscale>  0 0.24695758E+04</rscale>
<asrwt>0</asrwt>
<pdfrwt beam="1">  1        1 0.96889067E-01 0.24695758E+04</pdfrwt>
<pdfrwt beam="2">  1       -1 0.37246309E+00 0.24695758E+04</pdfrwt>
<totfact> 0.31274536E-01</totfact>
</mgrwt>
</event>
<event>
 6    1  0.1028026E-006  0.1234148E+04  0.7818608E-02  0.9083481E-01
          2   -1    0    0  501    0  0.00000000000E+00  0.00000000000E+00  0.21412886644E+04  0.21412886644E+04  0.00000000000E+00 0. -1.
         -2   -1    0    0    0  501 -0.00000000000E+00 -0.00000000000E+00 -0.17782760971E+03  0.17782760971E+03  0.00000000000E+00 0.  1.
         23    2    1    2    0    0  0.16226132983E+03  0.47535427669E+03  0.32575335095E+03  0.60611395350E+03  0.94701908311E+02 0.  0.
         13    1    3    3    0    0  0.35968040844E+02  0.14507256879E+03  0.49689593843E+02  0.15750811380E+03  0.00000000000E+00 0. -1.
        -13    1    3    3    0    0  0.12629328899E+03  0.33028170791E+03  0.27606375711E+03  0.44860583970E+03  0.00000000000E+00 0.  1.
         22    1    1    2    0    0 -0.16226132983E+03 -0.47535427669E+03  0.16377077037E+04  0.17130023206E+04  0.00000000000E+00 0. -1.
<mgrwt>
<rscale>  0 0.12341479E+04</rscale>
<asrwt>0</asrwt>
<pdfrwt beam="1">  1        2 0.32942901E+00 0.12341479E+04</pdfrwt>
<pdfrwt beam="2">  1       -2 0.27358095E-01 0.12341479E+04</pdfrwt>
<totfact> 0.66879525E+01</totfact>
</mgrwt>
</event>
<event>
 6    1  0.1028026E-006  0.3640776E+04  0.7818608E-02  0.8081215E-01
         -2   -1    0    0    0  501 -0.00000000000E+00  0.00000000000E+00  0.16254717940E+04  0.16254717940E+04  0.00000000000E+00 0.  1.
          2   -1    0    0  501    0  0.00000000000E+00 -0.00000000000E+00 -0.20386777018E+04  0.20386777018E+04  0.00000000000E+00 0. -1.
         23    2    1    2    0    0  0.15687870861E+04  0.30309199113E+03  0.66878570082E+03  0.17344698545E+04  0.90297762792E+02 0.  0.
         13    1    3    3    0    0  0.24404884763E+03  0.68211124866E+02  0.78584956281E+02  0.26530773252E+03  0.00000000000E+00 0. -1.
        -13    1    3    3    0    0  0.13247382385E+04  0.23488086627E+03  0.59020074454E+03  0.14691621220E+04  0.00000000000E+00 0.  1.
         22    1    1    2    0    0 -0.15687870861E+04 -0.30309199113E+03 -0.10819916087E+04  0.19296796413E+04  0.00000000000E+00 0. -1.
<mgrwt>
<rscale>  0 0.36407763E+04</rscale>
<asrwt>0</asrwt>
<pdfrwt beam="1">  1        2 0.31364272E+00 0.36407763E+04</pdfrwt>
<pdfrwt beam="2">  1       -2 0.25007258E+00 0.36407763E+04</pdfrwt>
<totfact> 0.33156880E-01</totfact>
</mgrwt>
</event>
<event>
 6    1  0.1028026E-006  0.2145881E+04  0.7818608E-02  0.8541298E-01
         -2   -1    0    0    0  501 -0.00000000000E+00  0.00000000000E+00  0.42957211316E+03  0.42957211316E+03  0.00000000000E+00 0.  1.
          2   -1    0    0  501    0  0.00000000000E+00 -0.00000000000E+00 -0.26798779895E+04  0.26798779895E+04  0.00000000000E+00 0. -1.
         23    2    1    2    0    0 -0.72549350502E+03  0.56388113798E+03 -0.19242972211E+04  0.21344709199E+04  0.93506947582E+02 0.  0.
         11    1    3    3    0    0 -0.43457486010E+03  0.37896533955E+03 -0.11304260477E+04  0.12689890019E+04  0.00000000000E+00 0. -1.
        -11    1    3    3    0    0 -0.29091864492E+03  0.18491579843E+03 -0.79387117336E+03  0.86548191798E+03  0.00000000000E+00 0.  1.
         22    1    1    2    0    0  0.72549350502E+03 -0.56388113798E+03 -0.32600865533E+03  0.97497918282E+03  0.00000000000E+00 0.  1.
<mgrwt>
<rscale>  0 0.21458806E+04</rscale>
<asrwt>0</asrwt>
<pdfrwt beam="1">  1        2 0.41228893E+00 0.21458806E+04</pdfrwt>
<pdfrwt beam="2">  1       -2 0.66088016E-01 0.21458806E+04</pdfrwt>
<totfact> 0.52819854E+00</totfact>
</mgrwt>
</event>
<event>
 6    1  0.1028026E-006  0.1180051E+04  0.7818608E-02  0.9130499E-01
          1   -1    0    0  501    0  0.00000000000E+00  0.00000000000E+00  0.17742335946E+04  0.17742335946E+04  0.00000000000E+00 0. -1.
         -1   -1    0    0    0  501 -0.00000000000E+00 -0.00000000000E+00 -0.19621446641E+03  0.19621446641E+03  0.00000000000E+00 0.  1.
         23    2    1    2    0    0  0.23679303655E+02  0.40507102760E+03  0.82686796667E+02  0.42104106848E+03  0.76126396102E+02 0.  0.
         11    1    3    3    0    0  0.21495914792E+02  0.21195022745E+03  0.56552309030E+01  0.21311254047E+03  0.00000000000E+00 0. -1.
        -11    1    3    3    0    0  0.21833888636E+01  0.19312080014E+03  0.77031565764E+02  0.20792852801E+03  0.00000000000E+00 0.  1.
         22    1    1    2    0    0 -0.23679303655E+02 -0.40507102760E+03  0.14953323315E+04  0.15494069925E+04  0.00000000000E+00 0. -1.
<mgrwt>
<rscale>  0 0.11800514E+04</rscale>
<asrwt>0</asrwt>
<pdfrwt beam="1">  1        1 0.27295900E+00 0.11800514E+04</pdfrwt>
<pdfrwt beam="2">  1       -1 0.30186842E-01 0.11800514E+04</pdfrwt>
<totfact> 0.42463023E+01</totfact>
</mgrwt>
</event>
<event>
 6    1  0.1028026E-006  0.3064078E+04  0.7818608E-02  0.8225666E-01
          1   -1    0    0  501    0  0.00000000000E+00  0.00000000000E+00  0.15202126386E+04  0.15202126386E+04  0.00000000000E+00 0. -1.
         -1   -1    0    0    0  501 -0.00000000000E+00 -0.00000000000E+00 -0.15439572799E+04  0.15439572799E+04  0.00000000000E+00 0.  1.
         23    2    1    2    0    0 -0.22140159634E+03  0.52280300809E+03 -0.14333150301E+04  0.15445547260E+04  0.94422846354E+02 0.  0.
         13    1    3    3    0    0 -0.18139825884E+03  0.48395883593E+03 -0.13345886158E+04  0.14311702402E+04  0.00000000000E+00 0.  1.
        -13    1    3    3    0    0 -0.40003337502E+02  0.38844172166E+02 -0.98726414318E+02  0.11338448574E+03  0.00000000000E+00 0. -1.
         22    1    1    2    0    0  0.22140159634E+03 -0.52280300809E+03  0.14095703889E+04  0.15196151925E+04  0.00000000000E+00 0. -1.
<mgrwt>
<rscale>  0 0.30640779E+04</rscale>
<asrwt>0</asrwt>
<pdfrwt beam="1">  1        1 0.23387887E+00 0.30640779E+04</pdfrwt>
<pdfrwt beam="2">  1       -1 0.23753189E+00 0.30640779E+04</pdfrwt>
<totfact> 0.45122886E-01</totfact>
</mgrwt>
</event>
<event>
 6    1  0.1028026E-006  0.1176581E+04  0.7818608E-02  0.9133606E-01
          2   -1    0    0  501    0  0.00000000000E+00  0.00000000000E+00  0.18383870052E+04  0.18383870052E+04  0.00000000000E+00 0. -1.
         -2   -1    0    0    0  501 -0.00000000000E+00 -0.00000000000E+00 -0.18825507655E+03  0.18825507655E+03  0.00000000000E+00 0.  1.
         23    2    1    2    0    0  0.30262010481E+03  0.42284151445E+03  0.36893591020E+03  0.64395010164E+03  0.90466310774E+02 0.  0.
         11    1    3    3    0    0  0.27407487002E+03  0.34485427676E+03  0.33835695554E+03  0.55545201047E+03  0.00000000000E+00 0.  1.
        -11    1    3    3    0    0  0.28545234797E+02  0.77987237694E+02  0.30578954665E+02  0.88498091172E+02  0.00000000000E+00 0. -1.
         22    1    1    2    0    0 -0.30262010481E+03 -0.42284151445E+03  0.12811960184E+04  0.13826919801E+04  0.00000000000E+00 0.  1.
<mgrwt>
<rscale>  0 0.11765810E+04</rscale>
<asrwt>0</asrwt>
<pdfrwt beam="1">  1        2 0.28282876E+00 0.11765810E+04</pdfrwt>
<pdfrwt beam="2">  1       -2 0.28962321E-01 0.11765810E+04</pdfrwt>
<totfact> 0.88940667E+01</totfact>
</mgrwt>
</event>
<event>
 6    1  0.1028026E-006  0.2003499E+04  0.7818608E-02  0.8604987E-01
          2   -1    0    0  501    0  0.00000000000E+00  0.00000000000E+00  0.22521262690E+04  0.22521262690E+04  0.00000000000E+00 0. -1.
         -2   -1    0    0    0  501 -0.00000000000E+00 -0.00000000000E+00 -0.44557984182E+03  0.44557984182E+03  0.00000000000E+00 0.  1.
         23    2    1    2    0    0 -0.89723252663E+03  0.13686830053E+03  0.14672736633E+04  0.17287555719E+04  0.10929174617E+03 0.  0.
         13    1    3    3    0    0 -0.70884260807E+03  0.67804214266E+02  0.11032257719E+04  0.13130736302E+04  0.00000000000E+00 0. -1.
        -13    1    3    3    0    0 -0.18838991855E+03  0.69064086269E+02  0.36404789146E+03  0.41568194175E+03  0.00000000000E+00 0.  1.
         22    1    1    2    0    0  0.89723252663E+03 -0.13686830053E+03  0.33927276382E+03  0.96895053888E+03  0.00000000000E+00 0.  1.
<mgrwt>
<rscale>  0 0.20034990E+04</rscale>
<asrwt>0</asrwt>
<pdfrwt beam="1">  1        2 0.34648096E+00 0.20034990E+04</pdfrwt>
<pdfrwt beam="2">  1       -2 0.68550746E-01 0.20034990E+04</pdfrwt>
<totfact> 0.87217950E+00</totfact>
</mgrwt>
</event>
<event>
 6    1  0.1028026E-006  0.2921853E+04  0.7818608E-02  0.8266405E-01
          1   -1    0    0  501    0  0.00000000000E+00  0.00000000000E+00  0.12470045342E+04  0.12470045342E+04  0.00000000000E+00 0. -1.
         -1   -1    0    0    0  501 -0.00000000000E+00 -0.00000000000E+00 -0.17115465183E+04  0.17115465183E+04  0.00000000000E+00 0.  1.
         23    2    1    2    0    0  0.58154971335E+03 -0.85264750190E+03 -0.12756355529E+04  0.16458894019E+04  0.12844464850E+03 0.  0.
         13    1    3    3    0    0  0.34721440286E+03 -0.60866394805E+03 -0.89409871340E+03  0.11359762993E+04  0.00000000000E+00 0. -1.
        -13    1    3    3    0    0  0.23433531048E+03 -0.24398355385E+03 -0.38153683954E+03  0.50991310261E+03  0.00000000000E+00 0.  1.
         22    1    1    2    0    0 -0.58154971335E+03  0.85264750190E+03  0.81109356882E+03  0.13126616506E+04  0.00000000000E+00 0. -1.
<mgrwt>
<rscale>  0 0.29218530E+04</rscale>
<asrwt>0</asrwt>
<pdfrwt beam="1">  1        1 0.19184685E+00 0.29218530E+04</pdfrwt>
<pdfrwt beam="2">  1       -1 0.26331485E+00 0.29218530E+04</pdfrwt>
<totfact> 0.48310648E-01</totfact>
</mgrwt>
</event>
<event>
 6    1  0.1028026E-006  0.6731462E+04  0.7818608E-02  0.7605782E-01
         -1   -1    0    0    0  501 -0.00000000000E+00  0.00000000000E+00  0.29065363124E+04  0.29065363124E+04  0.00000000000E+00 0.  1.
          1   -1    0    0  501    0  0.00000000000E+00 -0.00000000000E+00 -0.38974725336E+04  0.38974725336E+04  0.00000000000E+00 0. -1.
         23    2    1    2    0    0  0.41412360280E+03  0.21762674015E+04 -0.30558904169E+04  0.37755316723E+04  0.92385104361E+02 0.  0.
         13    1    3    3    0    0  0.28802093387E+03  0.13860942163E+04 -0.18881152352E+04  0.23599136374E+04  0.00000000000E+00 0.  1.
        -13    1    3    3    0    0  0.12610266893E+03  0.79017318519E+03 -0.11677751817E+04  0.14156180349E+04  0.00000000000E+00 0. -1.
         22    1    1    2    0    0 -0.41412360280E+03 -0.21762674015E+04  0.20649541957E+04  0.30284771737E+04  0.00000000000E+00 0.  1.
<mgrwt>
<rscale>  0 0.67314621E+04</rscale>
<asrwt>0</asrwt>
<pdfrwt beam="1">  1        1 0.59961116E+00 0.67314621E+04</pdfrwt>
<pdfrwt beam="2">  1       -1 0.44715944E+00 0.67314621E+04</pdfrwt>
<totfact> 0.25251528E-04</totfact>
</mgrwt>
</event>
<event>
 6    1  0.1028026E-006  0.2147969E+03  0.7818608E-02  0.1137823E+00
         -1   -1    0    0    0  501 -0.00000000000E+00  0.00000000000E+00  0.17299304766E+02  0.17299304766E+02  0.00000000000E+00 0.  1.
          1   -1    0    0  501    0  0.00000000000E+00 -0.00000000000E+00 -0.66675672738E+03  0.66675672738E+03  0.00000000000E+00 0. -1.
         23    2    1    2    0    0 -0.24647034363E+02 -0.62526441114E+02 -0.56620008426E+03  0.57705688948E+03  0.88854297255E+02 0.  0.
         11    1    3    3    0    0  0.23968015545E+01 -0.96427933269E+01 -0.40725263531E+03  0.40737382965E+03  0.00000000000E+00 0. -1.
        -11    1    3    3    0    0 -0.27043835917E+02 -0.52883647788E+02 -0.15894744895E+03  0.16968305983E+03  0.00000000000E+00 0.  1.
         22    1    1    2    0    0  0.24647034363E+02  0.62526441114E+02 -0.83257338354E+02  0.10699914267E+03  0.00000000000E+00 0.  1.
<mgrwt>
<rscale>  0 0.21479691E+03</rscale>
<asrwt>0</asrwt>
<pdfrwt beam="1">  1        1 0.10257797E+00 0.21479691E+03</pdfrwt>
<pdfrwt beam="2">  1       -1 0.26614313E-02 0.21479691E+03</pdfrwt>
<totfact> 0.13390261E+04</totfact>
</mgrwt>
</event>
<event>
 6    1  0.1028026E-006  0.1528737E+04  0.7818608E-02  0.8865565E-01
         -2   -1    0    0    0  501 -0.00000000000E+00  0.00000000000E+00  0.89825892448E+03  0.89825892448E+03  0.00000000000E+00 0.  1.
          2   -1    0    0  501    0  0.00000000000E+00 -0.00000000000E+00 -0.65043504875E+03  0.65043504875E+03  0.00000000000E+00 0. -1.
         23    2    1    2    0    0 -0.59347095892E+01  0.34263435177E+03 -0.56516581593E+03  0.66643224418E+03  0.85358167675E+02 0.  0.
         13    1    3    3    0    0 -0.35416469412E+02  0.19400011227E+03 -0.26656033010E+03  0.33157922047E+03  0.00000000000E+00 0. -1.
        -13    1    3    3    0    0  0.29481759823E+02  0.14863423950E+03 -0.29860548584E+03  0.33485302371E+03  0.00000000000E+00 0.  1.
         22    1    1    2    0    0  0.59347095892E+01 -0.34263435177E+03  0.81298969167E+03  0.88226172905E+03  0.00000000000E+00 0.  1.
<mgrwt>
<rscale>  0 0.15287368E+04</rscale>
<asrwt>0</asrwt>
<pdfrwt beam="1">  1        2 0.10006693E+00 0.15287368E+04</pdfrwt>
<pdfrwt beam="2">  1       -2 0.13819368E+00 0.15287368E+04</pdfrwt>
<totfact> 0.16081884E+01</totfact>
</mgrwt>
</event>
<event>
 6    1  0.1028026E-006  0.3574414E+03  0.7818608E-02  0.1059602E+00
         -4   -1    0    0    0  501 -0.00000000000E+00  0.00000000000E+00  0.87984050395E+02  0.87984050395E+02  0.00000000000E+00 0.  1.
          4   -1    0    0  501    0  0.00000000000E+00 -0.00000000000E+00 -0.36303269516E+03  0.36303269516E+03  0.00000000000E+00 0. -1.
         23    2    1    2    0    0 -0.11714717788E+03  0.10613834309E+03 -0.21445848238E+03  0.28172416764E+03  0.91581967713E+02 0.  0.
         13    1    3    3    0    0 -0.10109603209E+03  0.67452441056E+02 -0.20572231627E+03  0.23893913643E+03  0.00000000000E+00 0. -1.
        -13    1    3    3    0    0 -0.16051145788E+02  0.38685902032E+02 -0.87361661126E+01  0.42785031208E+02  0.00000000000E+00 0.  1.
         22    1    1    2    0    0  0.11714717788E+03 -0.10613834309E+03 -0.60590162381E+02  0.16929257791E+03  0.00000000000E+00 0.  1.
<mgrwt>
<rscale>  0 0.35744139E+03</rscale>
<asrwt>0</asrwt>
<pdfrwt beam="1">  1        4 0.55851184E-01 0.35744139E+03</pdfrwt>
<pdfrwt beam="2">  1       -4 0.13536008E-01 0.35744139E+03</pdfrwt>
<totfact> 0.26788356E+02</totfact>
</mgrwt>
</event>
<event>
 6    1  0.1028026E-006  0.2148565E+04  0.7818608E-02  0.8540147E-01
          2   -1    0    0  501    0  0.00000000000E+00  0.00000000000E+00  0.16205450136E+04  0.16205450136E+04  0.00000000000E+00 0. -1.
         -2   -1    0    0    0  501 -0.00000000000E+00 -0.00000000000E+00 -0.71215745600E+03  0.71215745600E+03  0.00000000000E+00 0.  1.
         23    2    1    2    0    0  0.69238580340E+03  0.40492621393E+03  0.12277453922E+04  0.14693643169E+04  0.91155955368E+02 0.  0.
         13    1    3    3    0    0  0.50265821557E+02  0.15003428892E+02  0.11938923054E+03  0.13040530689E+03  0.00000000000E+00 0.  1.
        -13    1    3    3    0    0  0.64211998184E+03  0.38992278504E+03  0.11083561616E+04  0.13389590100E+04  0.00000000000E+00 0. -1.
         22    1    1    2    0    0 -0.69238580340E+03 -0.40492621393E+03 -0.31935783457E+03  0.86333815274E+03  0.00000000000E+00 0.  1.
<mgrwt>
<rscale>  0 0.21485653E+04</rscale>
<asrwt>0</asrwt>
<pdfrwt beam="1">  1        2 0.24931462E+00 0.21485653E+04</pdfrwt>
<pdfrwt beam="2">  1       -2 0.10956269E+00 0.21485653E+04</pdfrwt>
<totfact> 0.66140178E+00</totfact>
</mgrwt>
</event>
<event>
 6    1  0.1028026E-006  0.1170937E+04  0.7818608E-02  0.9138683E-01
          1   -1    0    0  501    0  0.00000000000E+00  0.00000000000E+00  0.13322179005E+04  0.13322179005E+04  0.00000000000E+00 0. -1.
         -1   -1    0    0    0  501 -0.00000000000E+00 -0.00000000000E+00 -0.25729530599E+03  0.25729530599E+03  0.00000000000E+00 0.  1.
         23    2    1    2    0    0  0.37309053435E+03  0.34588775555E+03  0.15689384231E+03  0.53993630309E+03  0.89892421163E+02 0.  0.
         13    1    3    3    0    0  0.30616059650E+03  0.23098460603E+03  0.11092696595E+03  0.39924051754E+03  0.00000000000E+00 0. -1.
        -13    1    3    3    0    0  0.66929937855E+02  0.11490314952E+03  0.45966876364E+02  0.14069578555E+03  0.00000000000E+00 0.  1.
         22    1    1    2    0    0 -0.37309053435E+03 -0.34588775555E+03  0.91802875219E+03  0.10495769034E+04  0.00000000000E+00 0. -1.
<mgrwt>
<rscale>  0 0.11709371E+04</rscale>
<asrwt>0</asrwt>
<pdfrwt beam="1">  1        1 0.20495660E+00 0.11709371E+04</pdfrwt>
<pdfrwt beam="2">  1       -1 0.39583894E-01 0.11709371E+04</pdfrwt>
<totfact> 0.52801629E+01</totfact>
</mgrwt>
</event>
<event>
 6    1  0.1028026E-006  0.3937353E+04  0.7818608E-02  0.8017305E-01
         -2   -1    0    0    0  501 -0.00000000000E+00  0.00000000000E+00  0.10454258435E+04  0.10454258435E+04  0.00000000000E+00 0.  1.
          2   -1    0    0  501    0  0.00000000000E+00 -0.00000000000E+00 -0.37072815256E+04  0.37072815256E+04  0.00000000000E+00 0. -1.
         23    2    1    2    0    0  0.14518461351E+04  0.95894087016E+02 -0.29305265831E+04  0.32731003507E+04  0.90260597863E+02 0.  0.
         13    1    3    3    0    0  0.67319586737E+03  0.80054625809E+02 -0.14260811047E+04  0.15790214489E+04  0.00000000000E+00 0.  1.
        -13    1    3    3    0    0  0.77865026774E+03  0.15839461206E+02 -0.15044454784E+04  0.16940789018E+04  0.00000000000E+00 0. -1.
         22    1    1    2    0    0 -0.14518461351E+04 -0.95894087016E+02  0.26867090097E+03  0.14796070184E+04  0.00000000000E+00 0.  1.
<mgrwt>
<rscale>  0 0.39373534E+04</rscale>
<asrwt>0</asrwt>
<pdfrwt beam="1">  1        2 0.57035100E+00 0.39373534E+04</pdfrwt>
<pdfrwt beam="2">  1       -2 0.16083475E+00 0.39373534E+04</pdfrwt>
<totfact> 0.11323457E-01</totfact>
</mgrwt>
</event>
<event>
 6    1  0.1028026E-006  0.3195238E+04  0.7818608E-02  0.8190076E-01
         -2   -1    0    0    0  501 -0.00000000000E+00  0.00000000000E+00  0.10465830552E+04  0.10465830552E+04  0.00000000000E+00 0.  1.
          2   -1    0    0  501    0  0.00000000000E+00 -0.00000000000E+00 -0.24387803192E+04  0.24387803192E+04  0.00000000000E+00 0. -1.
         23    2    1    2    0    0  0.13506931334E+04 -0.13683832263E+03  0.21919445428E+03  0.13783085728E+04  0.92691131571E+02 0.  0.
         13    1    3    3    0    0  0.10083394490E+04 -0.13218298467E+03  0.19116652263E+03  0.10347779594E+04  0.00000000000E+00 0. -1.
        -13    1    3    3    0    0  0.34235368441E+03 -0.46553379635E+01  0.28027931655E+02  0.34353061342E+03  0.00000000000E+00 0.  1.
         22    1    1    2    0    0 -0.13506931334E+04  0.13683832263E+03 -0.16113917183E+04  0.21070548016E+04  0.00000000000E+00 0. -1.
<mgrwt>
<rscale>  0 0.31952378E+04</rscale>
<asrwt>0</asrwt>
<pdfrwt beam="1">  1        2 0.37519697E+00 0.31952378E+04</pdfrwt>
<pdfrwt beam="2">  1       -2 0.16101278E+00 0.31952378E+04</pdfrwt>
<totfact> 0.78757286E-01</totfact>
</mgrwt>
</event>
<event>
 6    1  0.1028026E-006  0.2288637E+04  0.7818608E-02  0.8482415E-01
         -2   -1    0    0    0  501 -0.00000000000E+00  0.00000000000E+00  0.17895189500E+04  0.17895189500E+04  0.00000000000E+00 0.  1.
          2   -1    0    0  501    0  0.00000000000E+00 -0.00000000000E+00 -0.73174100225E+03  0.73174100225E+03  0.00000000000E+00 0. -1.
         23    2    1    2    0    0 -0.10267868711E+04  0.38781012280E+03  0.87871201118E+03  0.14091661704E+04  0.94480300121E+02 0.  0.
         11    1    3    3    0    0 -0.35826028854E+03  0.18277717785E+03  0.30832961907E+03  0.50677912850E+03  0.00000000000E+00 0.  1.
        -11    1    3    3    0    0 -0.66852658256E+03  0.20503294495E+03  0.57038239211E+03  0.90238704187E+03  0.00000000000E+00 0. -1.
         22    1    1    2    0    0  0.10267868711E+04 -0.38781012280E+03  0.17906593654E+03  0.11120937819E+04  0.00000000000E+00 0. -1.
<mgrwt>
<rscale>  0 0.22886366E+04</rscale>
<asrwt>0</asrwt>
<pdfrwt beam="1">  1        2 0.11257554E+00 0.22886366E+04</pdfrwt>
<pdfrwt beam="2">  1       -2 0.27531061E+00 0.22886366E+04</pdfrwt>
<totfact> 0.15803627E+00</totfact>
</mgrwt>
</event>
<event>
 6    1  0.1028026E-006  0.2296508E+04  0.7818608E-02  0.8479299E-01
          1   -1    0    0  501    0  0.00000000000E+00  0.00000000000E+00  0.13728132110E+04  0.13728132110E+04  0.00000000000E+00 0. -1.
         -1   -1    0    0    0  501 -0.00000000000E+00 -0.00000000000E+00 -0.96042724066E+03  0.96042724066E+03  0.00000000000E+00 0.  1.
         23    2    1    2    0    0  0.25620682736E+03  0.11171781874E+04  0.17699151738E+03  0.11631380676E+04  0.88516247874E+02 0.  0.
         11    1    3    3    0    0  0.57845225966E+02  0.43870140682E+03  0.57192698696E+02  0.44617933536E+03  0.00000000000E+00 0. -1.
        -11    1    3    3    0    0  0.19836160139E+03  0.67847678060E+03  0.11979881868E+03  0.71695873220E+03  0.00000000000E+00 0.  1.
         22    1    1    2    0    0 -0.25620682736E+03 -0.11171781874E+04  0.23539445300E+03  0.11701023841E+04  0.00000000000E+00 0.  1.
<mgrwt>
<rscale>  0 0.22965080E+04</rscale>
<asrwt>0</asrwt>
<pdfrwt beam="1">  1        1 0.21120203E+00 0.22965080E+04</pdfrwt>
<pdfrwt beam="2">  1       -1 0.14775804E+00 0.22965080E+04</pdfrwt>
<totfact> 0.26378693E+00</totfact>
</mgrwt>
</event>
<event>
 6    1  0.1028026E-006  0.1481416E+04  0.7818608E-02  0.8896906E-01
          1   -1    0    0  501    0  0.00000000000E+00  0.00000000000E+00  0.13101510755E+04  0.13101510755E+04  0.00000000000E+00 0. -1.
         -1   -1    0    0    0  501 -0.00000000000E+00 -0.00000000000E+00 -0.41876704484E+03  0.41876704484E+03  0.00000000000E+00 0.  1.
         23    2    1    2    0    0 -0.30311161104E+03  0.18453003743E+03 -0.30754600536E+03  0.47857368190E+03  0.92305146834E+02 0.  0.
         11    1    3    3    0    0 -0.10996426906E+03  0.39255177874E+02 -0.55168134991E+02  0.12913803692E+03  0.00000000000E+00 0. -1.
        -11    1    3    3    0    0 -0.19314734198E+03  0.14527485955E+03 -0.25237787037E+03  0.34943564498E+03  0.00000000000E+00 0.  1.
         22    1    1    2    0    0  0.30311161104E+03 -0.18453003743E+03  0.11989300360E+04  0.12503444384E+04  0.00000000000E+00 0. -1.
<mgrwt>
<rscale>  0 0.14814157E+04</rscale>
<asrwt>0</asrwt>
<pdfrwt beam="1">  1        1 0.20156170E+00 0.14814157E+04</pdfrwt>
<pdfrwt beam="2">  1       -1 0.64425700E-01 0.14814157E+04</pdfrwt>
<totfact> 0.21054019E+01</totfact>
</mgrwt>
</event>
<event>
 6    1  0.1028026E-006  0.1535842E+04  0.7818608E-02  0.8860962E-01
          2   -1    0    0  501    0  0.00000000000E+00  0.00000000000E+00  0.81628286853E+03  0.81628286853E+03  0.00000000000E+00 0. -1.
         -2   -1    0    0    0  501 -0.00000000000E+00 -0.00000000000E+00 -0.72242414021E+03  0.72242414021E+03  0.00000000000E+00 0.  1.
         23    2    1    2    0    0 -0.30679345674E+03  0.57569467629E+03  0.44786775961E+03  0.79650152530E+03  0.91008594709E+02 0.  0.
         11    1    3    3    0    0 -0.15390105776E+03  0.35752676100E+03  0.30283685418E+03  0.49317449311E+03  0.00000000000E+00 0.  1.
        -11    1    3    3    0    0 -0.15289239898E+03  0.21816791529E+03  0.14503090543E+03  0.30332703219E+03  0.00000000000E+00 0. -1.
         22    1    1    2    0    0  0.30679345674E+03 -0.57569467629E+03 -0.35400903128E+03  0.74220548343E+03  0.00000000000E+00 0.  1.
<mgrwt>
<rscale>  0 0.15358417E+04</rscale>
<asrwt>0</asrwt>
<pdfrwt beam="1">  1        2 0.12558198E+00 0.15358417E+04</pdfrwt>
<pdfrwt beam="2">  1       -2 0.11114218E+00 0.15358417E+04</pdfrwt>
<totfact> 0.20703841E+01</totfact>
</mgrwt>
</event>
<event>
 6    1  0.1028026E-006  0.2252249E+04  0.7818608E-02  0.8496990E-01
         -2   -1    0    0    0  501 -0.00000000000E+00  0.00000000000E+00  0.10632337743E+04  0.10632337743E+04  0.00000000000E+00 0.  1.
          2   -1    0    0  501    0  0.00000000000E+00 -0.00000000000E+00 -0.11927348649E+04  0.11927348649E+04  0.00000000000E+00 0. -1.
         23    2    1    2    0    0  0.39617516993E+03 -0.92001252598E+03  0.44656050251E+03  0.11004493740E+04  0.90524742945E+02 0.  0.
         11    1    3    3    0    0  0.27006396110E+03 -0.57236287292E+03  0.24000053828E+03  0.67685601110E+03  0.00000000000E+00 0. -1.
        -11    1    3    3    0    0  0.12611120883E+03 -0.34764965305E+03  0.20655996423E+03  0.42359336289E+03  0.00000000000E+00 0.  1.
         22    1    1    2    0    0 -0.39617516993E+03  0.92001252598E+03 -0.57606159313E+03  0.11555192652E+04  0.00000000000E+00 0. -1.
<mgrwt>
<rscale>  0 0.22522486E+04</rscale>
<asrwt>0</asrwt>
<pdfrwt beam="1">  1        2 0.18349767E+00 0.22522486E+04</pdfrwt>
<pdfrwt beam="2">  1       -2 0.16357443E+00 0.22522486E+04</pdfrwt>
<totfact> 0.41289207E+00</totfact>
</mgrwt>
</event>
<event>
 6    1  0.1028026E-006  0.2076680E+04  0.7818608E-02  0.8571586E-01
         -2   -1    0    0    0  501 -0.00000000000E+00  0.00000000000E+00  0.53553010782E+03  0.53553010782E+03  0.00000000000E+00 0.  1.
          2   -1    0    0  501    0  0.00000000000E+00 -0.00000000000E+00 -0.20132389313E+04  0.20132389313E+04  0.00000000000E+00 0. -1.
         23    2    1    2    0    0 -0.39716226624E+03  0.64779171053E+03 -0.16052365150E+04  0.17782917338E+04  0.90361801755E+02 0.  0.
         13    1    3    3    0    0 -0.26461781021E+03  0.41404913228E+03 -0.93646228975E+03  0.10575542017E+04  0.00000000000E+00 0. -1.
        -13    1    3    3    0    0 -0.13254445603E+03  0.23374257824E+03 -0.66877422529E+03  0.72073753206E+03  0.00000000000E+00 0.  1.
         22    1    1    2    0    0  0.39716226624E+03 -0.64779171053E+03  0.12752769156E+03  0.77047730535E+03  0.00000000000E+00 0.  1.
<mgrwt>
<rscale>  0 0.20766801E+04</rscale>
<asrwt>0</asrwt>
<pdfrwt beam="1">  1        2 0.30972907E+00 0.20766801E+04</pdfrwt>
<pdfrwt beam="2">  1       -2 0.82389248E-01 0.20766801E+04</pdfrwt>
<totfact> 0.78437908E+00</totfact>
</mgrwt>
</event>
<event>
 6    1  0.1028026E-006  0.6795833E+04  0.7818608E-02  0.7598866E-01
         -2   -1    0    0    0  501 -0.00000000000E+00  0.00000000000E+00  0.46984243488E+04  0.46984243488E+04  0.00000000000E+00 0.  1.
          2   -1    0    0  501    0  0.00000000000E+00 -0.00000000000E+00 -0.24573848107E+04  0.24573848107E+04  0.00000000000E+00 0. -1.
         23    2    1    2    0    0  0.24187554036E+04 -0.22234202659E+04  0.21055852311E+03  0.32935781289E+04  0.96677909194E+02 0.  0.
         13    1    3    3    0    0  0.15721821510E+04 -0.15006155198E+04  0.16001067756E+03  0.21792675538E+04  0.00000000000E+00 0. -1.
        -13    1    3    3    0    0  0.84657325263E+03 -0.72280474606E+03  0.50547845545E+02  0.11143105751E+04  0.00000000000E+00 0.  1.
         22    1    1    2    0    0 -0.24187554036E+04  0.22234202659E+04  0.20304810149E+04  0.38622310306E+04  0.00000000000E+00 0. -1.
<mgrwt>
<rscale>  0 0.67958330E+04</rscale>
<asrwt>0</asrwt>
<pdfrwt beam="1">  1        2 0.37805920E+00 0.67958330E+04</pdfrwt>
<pdfrwt beam="2">  1       -2 0.72283451E+00 0.67958330E+04</pdfrwt>
<totfact> 0.44530405E-04</totfact>
</mgrwt>
</event>
<event>
 6    1  0.1028026E-006  0.2590834E+04  0.7818608E-02  0.8371321E-01
         -2   -1    0    0    0  501 -0.00000000000E+00  0.00000000000E+00  0.86131198662E+03  0.86131198662E+03  0.00000000000E+00 0.  1.
          2   -1    0    0  501    0  0.00000000000E+00 -0.00000000000E+00 -0.19483123835E+04  0.19483123835E+04  0.00000000000E+00 0. -1.
         23    2    1    2    0    0  0.80140501677E+03 -0.14454069648E+03 -0.16344622605E+04  0.18283718512E+04  0.91294750303E+02 0.  0.
         13    1    3    3    0    0  0.66987407478E+03 -0.85700669787E+02 -0.13506143036E+04  0.15100446609E+04  0.00000000000E+00 0.  1.
        -13    1    3    3    0    0  0.13153094200E+03 -0.58840026693E+02 -0.28384795686E+03  0.31832719026E+03  0.00000000000E+00 0. -1.
         22    1    1    2    0    0 -0.80140501677E+03  0.14454069648E+03  0.54746186359E+03  0.98125251894E+03  0.00000000000E+00 0.  1.
<mgrwt>
<rscale>  0 0.25908337E+04</rscale>
<asrwt>0</asrwt>
<pdfrwt beam="1">  1        2 0.29974036E+00 0.25908337E+04</pdfrwt>
<pdfrwt beam="2">  1       -2 0.13250954E+00 0.25908337E+04</pdfrwt>
<totfact> 0.26144600E+00</totfact>
</mgrwt>
</event>
<event>
 6    1  0.1028026E-006  0.2211063E+04  0.7818608E-02  0.8513837E-01
         -1   -1    0    0    0  501 -0.00000000000E+00  0.00000000000E+00  0.94038238459E+03  0.94038238459E+03  0.00000000000E+00 0.  1.
          1   -1    0    0  501    0  0.00000000000E+00 -0.00000000000E+00 -0.12996840319E+04  0.12996840319E+04  0.00000000000E+00 0. -1.
         23    2    1    2    0    0  0.40242080456E+03 -0.51115853784E+03 -0.10831142843E+04  0.12668602264E+04  0.92589015079E+02 0.  0.
         13    1    3    3    0    0  0.16350512453E+03 -0.25509642208E+03 -0.57163515354E+03  0.64697361543E+03  0.00000000000E+00 0. -1.
        -13    1    3    3    0    0  0.23891568003E+03 -0.25606211577E+03 -0.51147913076E+03  0.61988661101E+03  0.00000000000E+00 0.  1.
         22    1    1    2    0    0 -0.40242080456E+03  0.51115853784E+03  0.72381263703E+03  0.97320619001E+03  0.00000000000E+00 0.  1.
<mgrwt>
<rscale>  0 0.22110631E+04</rscale>
<asrwt>0</asrwt>
<pdfrwt beam="1">  1        1 0.19995139E+00 0.22110631E+04</pdfrwt>
<pdfrwt beam="2">  1       -1 0.14467421E+00 0.22110631E+04</pdfrwt>
<totfact> 0.31687872E+00</totfact>
</mgrwt>
</event>
<event>
 6    1  0.1028026E-006  0.3039069E+03  0.7818608E-02  0.1083304E+00
         -1   -1    0    0    0  501 -0.00000000000E+00  0.00000000000E+00  0.83536695332E+02  0.83536695332E+02  0.00000000000E+00 0.  1.
          1   -1    0    0  501    0  0.00000000000E+00 -0.00000000000E+00 -0.27640375764E+03  0.27640375764E+03  0.00000000000E+00 0. -1.
         23    2    1    2    0    0  0.58677585302E+02  0.77061536676E+02 -0.22151888235E+03  0.25893319460E+03  0.92705148598E+02 0.  0.
         11    1    3    3    0    0  0.69555783305E+02  0.15635710267E+02 -0.12807714203E+03  0.14658184314E+03  0.00000000000E+00 0.  1.
        -11    1    3    3    0    0 -0.10878198003E+02  0.61425826408E+02 -0.93441740320E+02  0.11235135146E+03  0.00000000000E+00 0. -1.
         22    1    1    2    0    0 -0.58677585302E+02 -0.77061536676E+02  0.28651820043E+02  0.10100725837E+03  0.00000000000E+00 0.  1.
<mgrwt>
<rscale>  0 0.30390694E+03</rscale>
<asrwt>0</asrwt>
<pdfrwt beam="1">  1        1 0.42523654E-01 0.30390694E+03</pdfrwt>
<pdfrwt beam="2">  1       -1 0.12851799E-01 0.30390694E+03</pdfrwt>
<totfact> 0.39897543E+03</totfact>
</mgrwt>
</event>
<event>
 6    1  0.1028026E-006  0.2682015E+04  0.7818608E-02  0.8340864E-01
          2   -1    0    0  501    0  0.00000000000E+00  0.00000000000E+00  0.17292215349E+04  0.17292215349E+04  0.00000000000E+00 0. -1.
         -2   -1    0    0    0  501 -0.00000000000E+00 -0.00000000000E+00 -0.10399482651E+04  0.10399482651E+04  0.00000000000E+00 0.  1.
         23    2    1    2    0    0  0.10294394530E+04  0.60240120487E+03 -0.28422134272E+03  0.12295839598E+04  0.91989908957E+02 0.  0.
         11    1    3    3    0    0  0.94852808409E+03  0.55493309886E+03 -0.28679509009E+03  0.11357410331E+04  0.00000000000E+00 0. -1.
        -11    1    3    3    0    0  0.80911368932E+02  0.47468106016E+02  0.25737473729E+01  0.93842926674E+02  0.00000000000E+00 0.  1.
         22    1    1    2    0    0 -0.10294394530E+04 -0.60240120487E+03  0.97349461246E+03  0.15395858403E+04  0.00000000000E+00 0. -1.
<mgrwt>
<rscale>  0 0.26820149E+04</rscale>
<asrwt>0</asrwt>
<pdfrwt beam="1">  1        2 0.26603408E+00 0.26820149E+04</pdfrwt>
<pdfrwt beam="2">  1       -2 0.15999204E+00 0.26820149E+04</pdfrwt>
<totfact> 0.20912254E+00</totfact>
</mgrwt>
</event>
<event>
 6    1  0.1028026E-006  0.4075293E+04  0.7818608E-02  0.7989527E-01
          2   -1    0    0  501    0  0.00000000000E+00  0.00000000000E+00  0.17097863924E+04  0.17097863924E+04  0.00000000000E+00 0. -1.
         -2   -1    0    0    0  501 -0.00000000000E+00 -0.00000000000E+00 -0.24283759212E+04  0.24283759212E+04  0.00000000000E+00 0.  1.
         23    2    1    2    0    0  0.57373785563E+03  0.18370313510E+04  0.31704001848E+03  0.19526674336E+04  0.92392755773E+02 0.  0.
         13    1    3    3    0    0  0.16539815680E+03  0.62500314182E+03  0.14005287933E+03  0.66151363294E+03  0.00000000000E+00 0. -1.
        -13    1    3    3    0    0  0.40833969883E+03  0.12120282091E+04  0.17698713915E+03  0.12911538006E+04  0.00000000000E+00 0.  1.
         22    1    1    2    0    0 -0.57373785563E+03 -0.18370313510E+04 -0.10356295474E+04  0.21854948801E+04  0.00000000000E+00 0.  1.
<mgrwt>
<rscale>  0 0.40752934E+04</rscale>
<asrwt>0</asrwt>
<pdfrwt beam="1">  1        2 0.26304406E+00 0.40752934E+04</pdfrwt>
<pdfrwt beam="2">  1       -2 0.37359629E+00 0.40752934E+04</pdfrwt>
<totfact> 0.83575158E-02</totfact>
</mgrwt>
</event>
<event>
 6    1  0.1259498E-006  0.3251033E+04  0.7818608E-02  0.8175468E-01
         -2   -1    0    0    0  501 -0.00000000000E+00  0.00000000000E+00  0.15233495650E+04  0.15233495650E+04  0.00000000000E+00 0.  1.
          2   -1    0    0  501    0  0.00000000000E+00 -0.00000000000E+00 -0.17345351181E+04  0.17345351181E+04  0.00000000000E+00 0. -1.
         23    2    1    2    0    0  0.11921924906E+04 -0.99866941733E+03 -0.57537497662E+03  0.16606065370E+04  0.88849126550E+02 0.  0.
         13    1    3    3    0    0  0.39876451154E+03 -0.28424192726E+03 -0.19762599280E+03  0.52807446625E+03  0.00000000000E+00 0. -1.
        -13    1    3    3    0    0  0.79342797908E+03 -0.71442749007E+03 -0.37774898382E+03  0.11325320708E+04  0.00000000000E+00 0.  1.
         22    1    1    2    0    0 -0.11921924906E+04  0.99866941733E+03  0.36418942348E+03  0.15972781461E+04  0.00000000000E+00 0.  1.
<mgrwt>
<rscale>  0 0.32510326E+04</rscale>
<asrwt>0</asrwt>
<pdfrwt beam="1">  1        2 0.26685156E+00 0.32510326E+04</pdfrwt>
<pdfrwt beam="2">  1       -2 0.23436147E+00 0.32510326E+04</pdfrwt>
<totfact> 0.63180436E-01</totfact>
</mgrwt>
</event>
<event>
 6    1  0.1028026E-006  0.6526871E+04  0.7818608E-02  0.7628301E-01
          1   -1    0    0  501    0  0.00000000000E+00  0.00000000000E+00  0.26091480738E+04  0.26091480738E+04  0.00000000000E+00 0. -1.
         -1   -1    0    0    0  501 -0.00000000000E+00 -0.00000000000E+00 -0.40817960453E+04  0.40817960453E+04  0.00000000000E+00 0.  1.
         23    2    1    2    0    0 -0.28481784383E+04 -0.98663507521E+02 -0.23651430978E+04  0.37045746753E+04  0.90092993960E+02 0.  0.
         13    1    3    3    0    0 -0.18517936527E+04 -0.82033038667E+02 -0.15886576445E+04  0.24412501435E+04  0.00000000000E+00 0.  1.
        -13    1    3    3    0    0 -0.99638478559E+03 -0.16630468854E+02 -0.77648545333E+03  0.12633245318E+04  0.00000000000E+00 0. -1.
         22    1    1    2    0    0  0.28481784383E+04  0.98663507521E+02  0.89249512631E+03  0.29863694438E+04  0.00000000000E+00 0. -1.
<mgrwt>
<rscale>  0 0.65268707E+04</rscale>
<asrwt>0</asrwt>
<pdfrwt beam="1">  1        1 0.40140740E+00 0.65268707E+04</pdfrwt>
<pdfrwt beam="2">  1       -1 0.62796862E+00 0.65268707E+04</pdfrwt>
<totfact> 0.26023363E-04</totfact>
</mgrwt>
</event>
<event>
 6    1  0.1103407E-006  0.2957955E+04  0.7818608E-02  0.8255840E-01
         -2   -1    0    0    0  501 -0.00000000000E+00  0.00000000000E+00  0.13235584394E+04  0.13235584394E+04  0.00000000000E+00 0.  1.
          2   -1    0    0  501    0  0.00000000000E+00 -0.00000000000E+00 -0.16526466538E+04  0.16526466538E+04  0.00000000000E+00 0. -1.
         23    2    1    2    0    0  0.14309829390E+04 -0.36651615934E+03 -0.19379733949E+03  0.14928474534E+04  0.94814785900E+02 0.  0.
         11    1    3    3    0    0  0.48495588848E+03 -0.17079575249E+03 -0.66533525895E+02  0.51844007648E+03  0.00000000000E+00 0. -1.
        -11    1    3    3    0    0  0.94602705051E+03 -0.19572040685E+03 -0.12726381359E+03  0.97440737693E+03  0.00000000000E+00 0.  1.
         22    1    1    2    0    0 -0.14309829390E+04  0.36651615934E+03 -0.13529087488E+03  0.14833576398E+04  0.00000000000E+00 0.  1.
<mgrwt>
<rscale>  0 0.29579550E+04</rscale>
<asrwt>0</asrwt>
<pdfrwt beam="1">  1        2 0.25425333E+00 0.29579550E+04</pdfrwt>
<pdfrwt beam="2">  1       -2 0.20362438E+00 0.29579550E+04</pdfrwt>
<totfact> 0.11274048E+00</totfact>
</mgrwt>
</event>
<event>
 6    1  0.1028026E-006  0.2334388E+04  0.7818608E-02  0.8464484E-01
         -1   -1    0    0    0  501 -0.00000000000E+00  0.00000000000E+00  0.13208288646E+04  0.13208288646E+04  0.00000000000E+00 0.  1.
          1   -1    0    0  501    0  0.00000000000E+00 -0.00000000000E+00 -0.10314297550E+04  0.10314297550E+04  0.00000000000E+00 0. -1.
         23    2    1    2    0    0 -0.84286415927E+03 -0.26195869796E+03  0.91173032525E+03  0.12722870958E+04  0.91760109839E+02 0.  0.
         11    1    3    3    0    0 -0.76327671540E+03 -0.23917341749E+03  0.86093262603E+03  0.11751596719E+04  0.00000000000E+00 0. -1.
        -11    1    3    3    0    0 -0.79587443877E+02 -0.22785280470E+02  0.50797699220E+02  0.97127423908E+02  0.00000000000E+00 0.  1.
         22    1    1    2    0    0  0.84286415927E+03  0.26195869796E+03 -0.62233121563E+03  0.10799715239E+04  0.00000000000E+00 0. -1.
<mgrwt>
<rscale>  0 0.23343883E+04</rscale>
<asrwt>0</asrwt>
<pdfrwt beam="1">  1        1 0.15868150E+00 0.23343883E+04</pdfrwt>
<pdfrwt beam="2">  1       -1 0.20320444E+00 0.23343883E+04</pdfrwt>
<totfact> 0.18438328E+00</totfact>
</mgrwt>
</event>
<event>
 6    1  0.1028026E-006  0.2331405E+04  0.7818608E-02  0.8465641E-01
          1   -1    0    0  501    0  0.00000000000E+00  0.00000000000E+00  0.13190498640E+04  0.13190498640E+04  0.00000000000E+00 0. -1.
         -1   -1    0    0    0  501 -0.00000000000E+00 -0.00000000000E+00 -0.10301822524E+04  0.10301822524E+04  0.00000000000E+00 0.  1.
         23    2    1    2    0    0 -0.12144450252E+03  0.75711618432E+03 -0.73775610275E+03  0.10678539776E+04  0.89746122484E+02 0.  0.
         13    1    3    3    0    0  0.14422114529E+02  0.93876744397E+02 -0.87328915304E+02  0.12902395116E+03  0.00000000000E+00 0.  1.
        -13    1    3    3    0    0 -0.13586661705E+03  0.66323943992E+03 -0.65042718745E+03  0.93883002640E+03  0.00000000000E+00 0. -1.
         22    1    1    2    0    0  0.12144450252E+03 -0.75711618432E+03  0.10266237143E+04  0.12813781388E+04  0.00000000000E+00 0. -1.
<mgrwt>
<rscale>  0 0.23314045E+04</rscale>
<asrwt>0</asrwt>
<pdfrwt beam="1">  1        1 0.20293075E+00 0.23314045E+04</pdfrwt>
<pdfrwt beam="2">  1       -1 0.15848958E+00 0.23314045E+04</pdfrwt>
<totfact> 0.23714910E+00</totfact>
</mgrwt>
</event>
<event>
 6    1  0.1028026E-006  0.1650872E+04  0.7818608E-02  0.8789891E-01
         -1   -1    0    0    0  501 -0.00000000000E+00  0.00000000000E+00  0.56237233254E+03  0.56237233254E+03  0.00000000000E+00 0.  1.
          1   -1    0    0  501    0  0.00000000000E+00 -0.00000000000E+00 -0.12115535566E+04  0.12115535566E+04  0.00000000000E+00 0. -1.
         23    2    1    2    0    0  0.11432903737E+03  0.22817439155E+03  0.51510209641E+03  0.58199873866E+03  0.90871779620E+02 0.  0.
         13    1    3    3    0    0  0.11461798060E+03  0.13256922984E+03  0.33893511951E+03  0.38156113195E+03  0.00000000000E+00 0. -1.
        -13    1    3    3    0    0 -0.28894323393E+00  0.95605161706E+02  0.17616697689E+03  0.20043760670E+03  0.00000000000E+00 0.  1.
         22    1    1    2    0    0 -0.11432903737E+03 -0.22817439155E+03 -0.11642833205E+04  0.11919271505E+04  0.00000000000E+00 0. -1.
<mgrwt>
<rscale>  0 0.16508715E+04</rscale>
<asrwt>0</asrwt>
<pdfrwt beam="1">  1        1 0.18639285E+00 0.16508715E+04</pdfrwt>
<pdfrwt beam="2">  1       -1 0.86518821E-01 0.16508715E+04</pdfrwt>
<totfact> 0.13192148E+01</totfact>
</mgrwt>
</event>
<event>
 6    1  0.1028026E-006  0.1340047E+04  0.7818608E-02  0.8998397E-01
          2   -1    0    0  501    0  0.00000000000E+00  0.00000000000E+00  0.16918036187E+04  0.16918036187E+04  0.00000000000E+00 0. -1.
         -2   -1    0    0    0  501 -0.00000000000E+00 -0.00000000000E+00 -0.26535683082E+03  0.26535683082E+03  0.00000000000E+00 0.  1.
         23    2    1    2    0    0  0.33009746789E+03  0.11124535819E+03 -0.11357188335E+03  0.37823759651E+03  0.93942741610E+02 0.  0.
         11    1    3    3    0    0  0.28933716661E+03  0.91350272287E+02 -0.62231127383E+02  0.30973146666E+03  0.00000000000E+00 0. -1.
        -11    1    3    3    0    0  0.40760301288E+02  0.19895085902E+02 -0.51340755964E+02  0.68506129850E+02  0.00000000000E+00 0.  1.
         22    1    1    2    0    0 -0.33009746789E+03 -0.11124535819E+03  0.15400186712E+04  0.15789228530E+04  0.00000000000E+00 0. -1.
<mgrwt>
<rscale>  0 0.13400472E+04</rscale>
<asrwt>0</asrwt>
<pdfrwt beam="1">  1        2 0.26027747E+00 0.13400472E+04</pdfrwt>
<pdfrwt beam="2">  1       -2 0.40824129E-01 0.13400472E+04</pdfrwt>
<totfact> 0.55034026E+01</totfact>
</mgrwt>
</event>
<event>
 6    1  0.1028026E-006  0.1470587E+04  0.7818608E-02  0.8904251E-01
         -1   -1    0    0    0  501 -0.00000000000E+00  0.00000000000E+00  0.63206946615E+03  0.63206946615E+03  0.00000000000E+00 0.  1.
          1   -1    0    0  501    0  0.00000000000E+00 -0.00000000000E+00 -0.85537478535E+03  0.85537478535E+03  0.00000000000E+00 0. -1.
         23    2    1    2    0    0 -0.20311009669E+03 -0.61792617344E+03  0.22823952481E+03  0.69562406146E+03  0.93343917863E+02 0.  0.
         11    1    3    3    0    0 -0.18173255719E+03 -0.57216022122E+03  0.18243564452E+03  0.62743669440E+03  0.00000000000E+00 0.  1.
        -11    1    3    3    0    0 -0.21377539501E+02 -0.45765952226E+02  0.45803880286E+02  0.68187367067E+02  0.00000000000E+00 0. -1.
         22    1    1    2    0    0  0.20311009669E+03  0.61792617344E+03 -0.45154484400E+03  0.79182019004E+03  0.00000000000E+00 0. -1.
<mgrwt>
<rscale>  0 0.14705867E+04</rscale>
<asrwt>0</asrwt>
<pdfrwt beam="1">  1        1 0.13159612E+00 0.14705867E+04</pdfrwt>
<pdfrwt beam="2">  1       -1 0.97241456E-01 0.14705867E+04</pdfrwt>
<totfact> 0.19529264E+01</totfact>
</mgrwt>
</event>
<event>
 6    1  0.1160310E-006  0.2428235E+04  0.7818608E-02  0.8429008E-01
          1   -1    0    0  501    0  0.00000000000E+00  0.00000000000E+00  0.18712458532E+04  0.18712458532E+04  0.00000000000E+00 0. -1.
         -1   -1    0    0    0  501 -0.00000000000E+00 -0.00000000000E+00 -0.78775370127E+03  0.78775370127E+03  0.00000000000E+00 0.  1.
         23    2    1    2    0    0  0.54329320387E+03  0.95692914282E+03 -0.14895568695E+02  0.11042209610E+04  0.90560273229E+02 0.  0.
         13    1    3    3    0    0  0.21650702300E+03  0.39538463240E+03 -0.50110654103E+02  0.45355856976E+03  0.00000000000E+00 0.  1.
        -13    1    3    3    0    0  0.32678618087E+03  0.56154451042E+03  0.35215085407E+02  0.65066239129E+03  0.00000000000E+00 0. -1.
         22    1    1    2    0    0 -0.54329320387E+03 -0.95692914282E+03  0.10983877207E+04  0.15547785935E+04  0.00000000000E+00 0.  1.
<mgrwt>
<rscale>  0 0.24282346E+04</rscale>
<asrwt>0</asrwt>
<pdfrwt beam="1">  1        1 0.28788398E+00 0.24282346E+04</pdfrwt>
<pdfrwt beam="2">  1       -1 0.12119288E+00 0.24282346E+04</pdfrwt>
<totfact> 0.19681198E+00</totfact>
</mgrwt>
</event>
<event>
 6    1  0.1028026E-006  0.2201094E+04  0.7818608E-02  0.8517973E-01
          2   -1    0    0  501    0  0.00000000000E+00  0.00000000000E+00  0.32716367547E+04  0.32716367547E+04  0.00000000000E+00 0. -1.
         -2   -1    0    0    0  501 -0.00000000000E+00 -0.00000000000E+00 -0.37021350103E+03  0.37021350103E+03  0.00000000000E+00 0.  1.
         23    2    1    2    0    0  0.38425757413E+03 -0.36523940246E+03 -0.13890033224E+03  0.55565175087E+03  0.91661668992E+02 0.  0.
         13    1    3    3    0    0  0.18610914124E+03 -0.22867439441E+03 -0.10315208877E+03  0.31236028001E+03  0.00000000000E+00 0. -1.
        -13    1    3    3    0    0  0.19814843289E+03 -0.13656500805E+03 -0.35748243472E+02  0.24329147086E+03  0.00000000000E+00 0.  1.
         22    1    1    2    0    0 -0.38425757413E+03  0.36523940246E+03  0.30403235859E+04  0.30861985049E+04  0.00000000000E+00 0. -1.
<mgrwt>
<rscale>  0 0.22010944E+04</rscale>
<asrwt>0</asrwt>
<pdfrwt beam="1">  1        2 0.50332871E+00 0.22010944E+04</pdfrwt>
<pdfrwt beam="2">  1       -2 0.56955925E-01 0.22010944E+04</pdfrwt>
<totfact> 0.30800126E+00</totfact>
</mgrwt>
</event>
<event>
 6    1  0.1028026E-006  0.6002044E+03  0.7818608E-02  0.9904982E-01
         -2   -1    0    0    0  501 -0.00000000000E+00  0.00000000000E+00  0.32007007308E+03  0.32007007308E+03  0.00000000000E+00 0.  1.
          2   -1    0    0  501    0  0.00000000000E+00 -0.00000000000E+00 -0.28138007745E+03  0.28138007745E+03  0.00000000000E+00 0. -1.
         23    2    1    2    0    0  0.81696413704E+02 -0.47729107056E+02 -0.25818156499E+03  0.28986533836E+03  0.91715986669E+02 0.  0.
         11    1    3    3    0    0 -0.11371959998E+01 -0.13390044716E+02 -0.14427193784E+03  0.14489644082E+03  0.00000000000E+00 0. -1.
        -11    1    3    3    0    0  0.82833609703E+02 -0.34339062340E+02 -0.11390962715E+03  0.14496889755E+03  0.00000000000E+00 0.  1.
         22    1    1    2    0    0 -0.81696413704E+02  0.47729107056E+02  0.29687156062E+03  0.31158481217E+03  0.00000000000E+00 0.  1.
<mgrwt>
<rscale>  0 0.60020444E+03</rscale>
<asrwt>0</asrwt>
<pdfrwt beam="1">  1        2 0.43289243E-01 0.60020444E+03</pdfrwt>
<pdfrwt beam="2">  1       -2 0.49241550E-01 0.60020444E+03</pdfrwt>
<totfact> 0.46444934E+02</totfact>
</mgrwt>
</event>
<event>
 6    1  0.1028026E-006  0.1273921E+04  0.7818608E-02  0.9050506E-01
          2   -1    0    0  501    0  0.00000000000E+00  0.00000000000E+00  0.12117375123E+04  0.12117375123E+04  0.00000000000E+00 0. -1.
         -2   -1    0    0    0  501 -0.00000000000E+00 -0.00000000000E+00 -0.33482370847E+03  0.33482370847E+03  0.00000000000E+00 0.  1.
         23    2    1    2    0    0  0.84895785663E+02 -0.45966270258E+03  0.96022397671E+03  0.10717584412E+04  0.90216275302E+02 0.  0.
         11    1    3    3    0    0  0.18129875103E+02 -0.27528512603E+03  0.49080386365E+03  0.56302666506E+03  0.00000000000E+00 0.  1.
        -11    1    3    3    0    0  0.66765910560E+02 -0.18437757655E+03  0.46942011306E+03  0.50873177617E+03  0.00000000000E+00 0. -1.
         22    1    1    2    0    0 -0.84895785663E+02  0.45966270258E+03 -0.83310172860E+02  0.47480277955E+03  0.00000000000E+00 0.  1.
<mgrwt>
<rscale>  0 0.12739206E+04</rscale>
<asrwt>0</asrwt>
<pdfrwt beam="1">  1        2 0.18642115E+00 0.12739206E+04</pdfrwt>
<pdfrwt beam="2">  1       -2 0.51511340E-01 0.12739206E+04</pdfrwt>
<totfact> 0.65139776E+01</totfact>
</mgrwt>
</event>
<event>
 6    1  0.1028026E-006  0.9832746E+03  0.7818608E-02  0.9327082E-01
          2   -1    0    0  501    0  0.00000000000E+00  0.00000000000E+00  0.53464029656E+03  0.53464029656E+03  0.00000000000E+00 0. -1.
         -2   -1    0    0    0  501 -0.00000000000E+00 -0.00000000000E+00 -0.45209317261E+03  0.45209317261E+03  0.00000000000E+00 0.  1.
         23    2    1    2    0    0  0.27135398644E+02  0.25533761743E+03  0.45740083398E+03  0.53236695119E+03  0.90914350135E+02 0.  0.
         13    1    3    3    0    0  0.58079516127E+02  0.13337263307E+03  0.26891517015E+03  0.30573985377E+03  0.00000000000E+00 0. -1.
        -13    1    3    3    0    0 -0.30944117483E+02  0.12196498436E+03  0.18848566383E+03  0.22662709742E+03  0.00000000000E+00 0.  1.
         22    1    1    2    0    0 -0.27135398644E+02 -0.25533761743E+03 -0.37485371003E+03  0.45436651797E+03  0.00000000000E+00 0.  1.
<mgrwt>
<rscale>  0 0.98327459E+03</rscale>
<asrwt>0</asrwt>
<pdfrwt beam="1">  1        2 0.82252354E-01 0.98327459E+03</pdfrwt>
<pdfrwt beam="2">  1       -2 0.69552795E-01 0.98327459E+03</pdfrwt>
<totfact> 0.10732280E+02</totfact>
</mgrwt>
</event>
<event>
 6    1  0.1028026E-006  0.3972303E+04  0.7818608E-02  0.8010157E-01
          2   -1    0    0  501    0  0.00000000000E+00  0.00000000000E+00  0.27182696625E+04  0.27182696625E+04  0.00000000000E+00 0. -1.
         -2   -1    0    0    0  501 -0.00000000000E+00 -0.00000000000E+00 -0.14512166003E+04  0.14512166003E+04  0.00000000000E+00 0.  1.
         23    2    1    2    0    0 -0.75079020553E+03  0.15428297067E+04  0.16815567568E+04  0.24043169368E+04  0.95380133157E+02 0.  0.
         13    1    3    3    0    0 -0.42835898815E+03  0.78966206583E+03  0.91642113152E+03  0.12833102864E+04  0.00000000000E+00 0. -1.
        -13    1    3    3    0    0 -0.32243121738E+03  0.75316764084E+03  0.76513562532E+03  0.11210066504E+04  0.00000000000E+00 0.  1.
         22    1    1    2    0    0  0.75079020553E+03 -0.15428297067E+04 -0.41450369462E+03  0.17651693260E+04  0.00000000000E+00 0.  1.
<mgrwt>
<rscale>  0 0.39723031E+04</rscale>
<asrwt>0</asrwt>
<pdfrwt beam="1">  1        2 0.41819533E+00 0.39723031E+04</pdfrwt>
<pdfrwt beam="2">  1       -2 0.22326409E+00 0.39723031E+04</pdfrwt>
<totfact> 0.19293528E-01</totfact>
</mgrwt>
</event>
<event>
 6    1  0.1028026E-006  0.2441963E+04  0.7818608E-02  0.8423958E-01
          2   -1    0    0  501    0  0.00000000000E+00  0.00000000000E+00  0.31052495559E+04  0.31052495559E+04  0.00000000000E+00 0. -1.
         -2   -1    0    0    0  501 -0.00000000000E+00 -0.00000000000E+00 -0.48008881830E+03  0.48008881830E+03  0.00000000000E+00 0.  1.
         23    2    1    2    0    0  0.13377960326E+03 -0.26666980375E+03  0.30499822369E+04  0.30662207836E+04  0.10153069475E+03 0.  0.
         13    1    3    3    0    0  0.14654672800E+03 -0.26221779784E+03  0.28515092072E+04  0.28672877211E+04  0.00000000000E+00 0.  1.
        -13    1    3    3    0    0 -0.12767124745E+02 -0.44520059103E+01  0.19847302974E+03  0.19893306252E+03  0.00000000000E+00 0. -1.
         22    1    1    2    0    0 -0.13377960326E+03  0.26666980375E+03 -0.42482149936E+03  0.51911759053E+03  0.00000000000E+00 0.  1.
<mgrwt>
<rscale>  0 0.24419628E+04</rscale>
<asrwt>0</asrwt>
<pdfrwt beam="1">  1        2 0.47773069E+00 0.24419628E+04</pdfrwt>
<pdfrwt beam="2">  1       -2 0.73859820E-01 0.24419628E+04</pdfrwt>
<totfact> 0.22117602E+00</totfact>
</mgrwt>
</event>
<event>
 6    1  0.1028026E-006  0.1501614E+04  0.7818608E-02  0.8883381E-01
         -1   -1    0    0    0  501 -0.00000000000E+00  0.00000000000E+00  0.40678271404E+03  0.40678271404E+03  0.00000000000E+00 0.  1.
          1   -1    0    0  501    0  0.00000000000E+00 -0.00000000000E+00 -0.13857790405E+04  0.13857790405E+04  0.00000000000E+00 0. -1.
         23    2    1    2    0    0  0.19768409416E+03 -0.20789877619E+03  0.33270365255E+03  0.44985637466E+03  0.96840772271E+02 0.  0.
         13    1    3    3    0    0  0.13524131381E+03 -0.17791938707E+03  0.29769026161E+03  0.37224321769E+03  0.00000000000E+00 0.  1.
        -13    1    3    3    0    0  0.62442780351E+02 -0.29979389126E+02  0.35013390942E+02  0.77613156975E+02  0.00000000000E+00 0. -1.
         22    1    1    2    0    0 -0.19768409416E+03  0.20789877619E+03 -0.13116999790E+04  0.13427053799E+04  0.00000000000E+00 0. -1.
<mgrwt>
<rscale>  0 0.15016137E+04</rscale>
<asrwt>0</asrwt>
<pdfrwt beam="1">  1        1 0.21319678E+00 0.15016137E+04</pdfrwt>
<pdfrwt beam="2">  1       -1 0.62581955E-01 0.15016137E+04</pdfrwt>
<totfact> 0.19692519E+01</totfact>
</mgrwt>
</event>
<event>
 6    1  0.1028026E-006  0.1131285E+04  0.7818608E-02  0.9175225E-01
          2   -1    0    0  501    0  0.00000000000E+00  0.00000000000E+00  0.23762914515E+04  0.23762914515E+04  0.00000000000E+00 0. -1.
         -2   -1    0    0    0  501 -0.00000000000E+00 -0.00000000000E+00 -0.13464316740E+03  0.13464316740E+03  0.00000000000E+00 0.  1.
         23    2    1    2    0    0  0.26171169364E+03 -0.10432803545E+03  0.22072596684E+04  0.22271038128E+04  0.92837490833E+02 0.  0.
         11    1    3    3    0    0  0.88832101222E+02  0.99765997099E+01  0.66575241204E+03  0.67172684098E+03  0.00000000000E+00 0. -1.
        -11    1    3    3    0    0  0.17287959242E+03 -0.11430463516E+03  0.15415072564E+04  0.15553769718E+04  0.00000000000E+00 0.  1.
         22    1    1    2    0    0 -0.26171169364E+03  0.10432803545E+03  0.34388615656E+02  0.28383080604E+03  0.00000000000E+00 0.  1.
<mgrwt>
<rscale>  0 0.11312849E+04</rscale>
<asrwt>0</asrwt>
<pdfrwt beam="1">  1        2 0.36558327E+00 0.11312849E+04</pdfrwt>
<pdfrwt beam="2">  1       -2 0.20714335E-01 0.11312849E+04</pdfrwt>
<totfact> 0.82174927E+01</totfact>
</mgrwt>
</event>
<event>
 6    1  0.1028026E-006  0.1820260E+04  0.7818608E-02  0.8695599E-01
         -2   -1    0    0    0  501 -0.00000000000E+00  0.00000000000E+00  0.22037579241E+03  0.22037579241E+03  0.00000000000E+00 0.  1.
          2   -1    0    0  501    0  0.00000000000E+00 -0.00000000000E+00 -0.37587461932E+04  0.37587461932E+04  0.00000000000E+00 0. -1.
         23    2    1    2    0    0 -0.34286596443E+03  0.59679609826E+03 -0.47931357762E+03  0.84359152016E+03  0.90457143071E+02 0.  0.
         11    1    3    3    0    0 -0.24408131753E+03  0.37433649346E+03 -0.26679092540E+03  0.52046219630E+03  0.00000000000E+00 0.  1.
        -11    1    3    3    0    0 -0.98784646898E+02  0.22245960480E+03 -0.21252265222E+03  0.32312932386E+03  0.00000000000E+00 0. -1.
         22    1    1    2    0    0  0.34286596443E+03 -0.59679609826E+03 -0.30590568232E+04  0.31355304655E+04  0.00000000000E+00 0. -1.
<mgrwt>
<rscale>  0 0.18202601E+04</rscale>
<asrwt>0</asrwt>
<pdfrwt beam="1">  1        2 0.57826865E+00 0.18202601E+04</pdfrwt>
<pdfrwt beam="2">  1       -2 0.33903968E-01 0.18202601E+04</pdfrwt>
<totfact> 0.40935614E+00</totfact>
</mgrwt>
</event>
<event>
 6    1  0.1028026E-006  0.3401193E+04  0.7818608E-02  0.8137614E-01
         -2   -1    0    0    0  501 -0.00000000000E+00  0.00000000000E+00  0.10872982853E+04  0.10872982853E+04  0.00000000000E+00 0.  1.
          2   -1    0    0  501    0  0.00000000000E+00 -0.00000000000E+00 -0.26598294121E+04  0.26598294121E+04  0.00000000000E+00 0. -1.
         23    2    1    2    0    0 -0.11993559516E+04  0.98683586227E+03 -0.26957266028E+02  0.15559868356E+04  0.89825501275E+02 0.  0.
         13    1    3    3    0    0 -0.79040546869E+03  0.69617380223E+03  0.43507693265E+01  0.10532889903E+04  0.00000000000E+00 0.  1.
        -13    1    3    3    0    0 -0.40895048287E+03  0.29066206004E+03 -0.31308035355E+02  0.50269784529E+03  0.00000000000E+00 0. -1.
         22    1    1    2    0    0  0.11993559516E+04 -0.98683586227E+03 -0.15455738607E+04  0.21911408618E+04  0.00000000000E+00 0. -1.
<mgrwt>
<rscale>  0 0.34011927E+04</rscale>
<asrwt>0</asrwt>
<pdfrwt beam="1">  1        2 0.40920452E+00 0.34011927E+04</pdfrwt>
<pdfrwt beam="2">  1       -2 0.16727666E+00 0.34011927E+04</pdfrwt>
<totfact> 0.51791305E-01</totfact>
</mgrwt>
</event>
<event>
 6    1  0.1028026E-006  0.3845428E+04  0.7818608E-02  0.8036476E-01
         -2   -1    0    0    0  501 -0.00000000000E+00  0.00000000000E+00  0.19291902271E+04  0.19291902271E+04  0.00000000000E+00 0.  1.
          2   -1    0    0  501    0  0.00000000000E+00 -0.00000000000E+00 -0.19162593850E+04  0.19162593850E+04  0.00000000000E+00 0. -1.
         23    2    1    2    0    0 -0.21058172305E+03 -0.17776185029E+04 -0.69236997876E+03  0.19214637879E+04  0.91513370963E+02 0.  0.
         13    1    3    3    0    0 -0.10564186676E+03 -0.11180050641E+04 -0.39610057086E+03  0.11907943524E+04  0.00000000000E+00 0. -1.
        -13    1    3    3    0    0 -0.10493985629E+03 -0.65961343873E+03 -0.29626940791E+03  0.73066943555E+03  0.00000000000E+00 0.  1.
         22    1    1    2    0    0  0.21058172305E+03  0.17776185029E+04  0.70530082083E+03  0.19239858242E+04  0.00000000000E+00 0. -1.
<mgrwt>
<rscale>  0 0.38454279E+04</rscale>
<asrwt>0</asrwt>
<pdfrwt beam="1">  1        2 0.29480913E+00 0.38454279E+04</pdfrwt>
<pdfrwt beam="2">  1       -2 0.29679850E+00 0.38454279E+04</pdfrwt>
<totfact> 0.19754602E-01</totfact>
</mgrwt>
</event>
<event>
 6    1  0.1028026E-006  0.9773767E+03  0.7818608E-02  0.9333712E-01
          2   -1    0    0  501    0  0.00000000000E+00  0.00000000000E+00  0.11010742267E+04  0.11010742267E+04  0.00000000000E+00 0. -1.
         -2   -1    0    0    0  501 -0.00000000000E+00 -0.00000000000E+00 -0.21689393906E+03  0.21689393906E+03  0.00000000000E+00 0.  1.
         23    2    1    2    0    0 -0.19569403215E+03 -0.33071337242E+03  0.47200543113E+02  0.39698902286E+03  0.87777583012E+02 0.  0.
         13    1    3    3    0    0 -0.14621045502E+03 -0.18082518782E+03  0.54981092156E+02  0.23895222577E+03  0.00000000000E+00 0. -1.
        -13    1    3    3    0    0 -0.49483577135E+02 -0.14988818460E+03 -0.77805490424E+01  0.15803679709E+03  0.00000000000E+00 0.  1.
         22    1    1    2    0    0  0.19569403215E+03  0.33071337242E+03  0.83697974448E+03  0.92097914287E+03  0.00000000000E+00 0. -1.
<mgrwt>
<rscale>  0 0.97737675E+03</rscale>
<asrwt>0</asrwt>
<pdfrwt beam="1">  1        2 0.16939603E+00 0.97737675E+03</pdfrwt>
<pdfrwt beam="2">  1       -2 0.33368299E-01 0.97737675E+03</pdfrwt>
<totfact> 0.18218901E+02</totfact>
</mgrwt>
</event>
<event>
 6    1  0.1145816E-006  0.3536765E+04  0.7818608E-02  0.8105132E-01
          2   -1    0    0  501    0  0.00000000000E+00  0.00000000000E+00  0.15234607796E+04  0.15234607796E+04  0.00000000000E+00 0. -1.
         -2   -1    0    0    0  501 -0.00000000000E+00 -0.00000000000E+00 -0.20526791696E+04  0.20526791696E+04  0.00000000000E+00 0.  1.
         23    2    1    2    0    0 -0.75673796308E+03  0.51741370491E+03 -0.17924536845E+04  0.20153283988E+04  0.91044258639E+02 0.  0.
         13    1    3    3    0    0 -0.53702766721E+03  0.37877529087E+03 -0.13683962659E+04  0.15180177129E+04  0.00000000000E+00 0.  1.
        -13    1    3    3    0    0 -0.21971029587E+03  0.13863841404E+03 -0.42405741862E+03  0.49731068584E+03  0.00000000000E+00 0. -1.
         22    1    1    2    0    0  0.75673796308E+03 -0.51741370491E+03  0.12632352945E+04  0.15608115504E+04  0.00000000000E+00 0. -1.
<mgrwt>
<rscale>  0 0.35367647E+04</rscale>
<asrwt>0</asrwt>
<pdfrwt beam="1">  1        2 0.23437858E+00 0.35367647E+04</pdfrwt>
<pdfrwt beam="2">  1       -2 0.31579679E+00 0.35367647E+04</pdfrwt>
<totfact> 0.25634777E-01</totfact>
</mgrwt>
</event>
<event>
 6    1  0.1238081E-006  0.3188056E+04  0.7818608E-02  0.8191979E-01
         -2   -1    0    0    0  501 -0.00000000000E+00  0.00000000000E+00  0.10962779852E+04  0.10962779852E+04  0.00000000000E+00 0.  1.
          2   -1    0    0  501    0  0.00000000000E+00 -0.00000000000E+00 -0.23177743192E+04  0.23177743192E+04  0.00000000000E+00 0. -1.
         23    2    1    2    0    0 -0.33698862275E+03  0.84554996250E+03  0.78857278802E+03  0.12074952700E+04  0.87645388812E+02 0.  0.
         11    1    3    3    0    0 -0.12405161884E+03  0.26234116417E+03  0.30058601804E+03  0.41780814352E+03  0.00000000000E+00 0. -1.
        -11    1    3    3    0    0 -0.21293700391E+03  0.58320879833E+03  0.48798676999E+03  0.78968712650E+03  0.00000000000E+00 0.  1.
         22    1    1    2    0    0  0.33698862275E+03 -0.84554996250E+03 -0.20100691219E+04  0.22065570344E+04  0.00000000000E+00 0. -1.
<mgrwt>
<rscale>  0 0.31880558E+04</rscale>
<asrwt>0</asrwt>
<pdfrwt beam="1">  1        2 0.35658066E+00 0.31880558E+04</pdfrwt>
<pdfrwt beam="2">  1       -2 0.16865815E+00 0.31880558E+04</pdfrwt>
<totfact> 0.81342231E-01</totfact>
</mgrwt>
</event>
<event>
 6    1  0.1028026E-006  0.1537010E+04  0.7818608E-02  0.8860208E-01
         -1   -1    0    0    0  501 -0.00000000000E+00  0.00000000000E+00  0.43781830786E+03  0.43781830786E+03  0.00000000000E+00 0.  1.
          1   -1    0    0  501    0  0.00000000000E+00 -0.00000000000E+00 -0.13489614154E+04  0.13489614154E+04  0.00000000000E+00 0. -1.
         23    2    1    2    0    0 -0.55399999298E+03  0.14969374326E+03  0.13217770211E+03  0.59604779674E+03  0.92075089293E+02 0.  0.
         13    1    3    3    0    0 -0.51142166010E+03  0.11058065126E+03  0.11493240176E+03  0.53571415123E+03  0.00000000000E+00 0. -1.
        -13    1    3    3    0    0 -0.42578332883E+02  0.39113091994E+02  0.17245300356E+02  0.60333645512E+02  0.00000000000E+00 0.  1.
         22    1    1    2    0    0  0.55399999298E+03 -0.14969374326E+03 -0.10433208097E+04  0.11907319265E+04  0.00000000000E+00 0. -1.
<mgrwt>
<rscale>  0 0.15370101E+04</rscale>
<asrwt>0</asrwt>
<pdfrwt beam="1">  1        1 0.20753252E+00 0.15370101E+04</pdfrwt>
<pdfrwt beam="2">  1       -1 0.67356665E-01 0.15370101E+04</pdfrwt>
<totfact> 0.17972570E+01</totfact>
</mgrwt>
</event>
<event>
 6    1  0.1028026E-006  0.1545694E+04  0.7818608E-02  0.8854623E-01
          2   -1    0    0  501    0  0.00000000000E+00  0.00000000000E+00  0.85490532289E+03  0.85490532289E+03  0.00000000000E+00 0. -1.
         -2   -1    0    0    0  501 -0.00000000000E+00 -0.00000000000E+00 -0.69866525926E+03  0.69866525926E+03  0.00000000000E+00 0.  1.
         23    2    1    2    0    0  0.51272804309E+03 -0.39236511662E+03  0.50008122282E+03  0.82208772270E+03  0.94374591343E+02 0.  0.
         11    1    3    3    0    0  0.39105800968E+02 -0.26626178852E+02  0.94035496997E+01  0.48235296377E+02  0.00000000000E+00 0.  1.
        -11    1    3    3    0    0  0.47362224212E+03 -0.36573893777E+03  0.49067767312E+03  0.77385242632E+03  0.00000000000E+00 0. -1.
         22    1    1    2    0    0 -0.51272804309E+03  0.39236511662E+03 -0.34384115919E+03  0.73148285944E+03  0.00000000000E+00 0.  1.
<mgrwt>
<rscale>  0 0.15456942E+04</rscale>
<asrwt>0</asrwt>
<pdfrwt beam="1">  1        2 0.13152390E+00 0.15456942E+04</pdfrwt>
<pdfrwt beam="2">  1       -2 0.10748696E+00 0.15456942E+04</pdfrwt>
<totfact> 0.21069512E+01</totfact>
</mgrwt>
</event>
<event>
 6    1  0.1028026E-006  0.1674562E+04  0.7818608E-02  0.8776007E-01
          2   -1    0    0  501    0  0.00000000000E+00  0.00000000000E+00  0.76979870410E+03  0.76979870410E+03  0.00000000000E+00 0. -1.
         -2   -1    0    0    0  501 -0.00000000000E+00 -0.00000000000E+00 -0.91067871470E+03  0.91067871470E+03  0.00000000000E+00 0.  1.
         23    2    1    2    0    0 -0.44298826148E+03  0.19974718094E+03  0.61054325490E+03  0.78561739622E+03  0.91071900375E+02 0.  0.
         13    1    3    3    0    0 -0.28504067529E+03  0.15621769719E+03  0.34835019643E+03  0.47644518556E+03  0.00000000000E+00 0. -1.
        -13    1    3    3    0    0 -0.15794758619E+03  0.43529483751E+02  0.26219305846E+03  0.30917221066E+03  0.00000000000E+00 0.  1.
         22    1    1    2    0    0  0.44298826148E+03 -0.19974718094E+03 -0.75142326549E+03  0.89486002258E+03  0.00000000000E+00 0.  1.
<mgrwt>
<rscale>  0 0.16745618E+04</rscale>
<asrwt>0</asrwt>
<pdfrwt beam="1">  1        2 0.11843057E+00 0.16745618E+04</pdfrwt>
<pdfrwt beam="2">  1       -2 0.14010442E+00 0.16745618E+04</pdfrwt>
<totfact> 0.12383429E+01</totfact>
</mgrwt>
</event>
<event>
 6    1  0.1028026E-006  0.6098157E+03  0.7818608E-02  0.9885248E-01
          2   -1    0    0  501    0  0.00000000000E+00  0.00000000000E+00  0.11432488507E+04  0.11432488507E+04  0.00000000000E+00 0. -1.
         -2   -1    0    0    0  501 -0.00000000000E+00 -0.00000000000E+00 -0.81319823750E+02  0.81319823750E+02  0.00000000000E+00 0.  1.
         23    2    1    2    0    0  0.20809810678E+03  0.20957645311E+03  0.46029342072E+03  0.55435041564E+03  0.90593810069E+02 0.  0.
         13    1    3    3    0    0  0.11568969862E+03  0.16606931315E+03  0.25971816233E+03  0.32926683249E+03  0.00000000000E+00 0. -1.
        -13    1    3    3    0    0  0.92408408163E+02  0.43507139969E+02  0.20057525838E+03  0.22508358315E+03  0.00000000000E+00 0.  1.
         22    1    1    2    0    0 -0.20809810678E+03 -0.20957645311E+03  0.60163560623E+03  0.67021825880E+03  0.00000000000E+00 0. -1.
<mgrwt>
<rscale>  0 0.60981569E+03</rscale>
<asrwt>0</asrwt>
<pdfrwt beam="1">  1        2 0.17588443E+00 0.60981569E+03</pdfrwt>
<pdfrwt beam="2">  1       -2 0.12510743E-01 0.60981569E+03</pdfrwt>
<totfact> 0.98366478E+02</totfact>
</mgrwt>
</event>
<event>
 6    1  0.1028026E-006  0.4288303E+04  0.7818608E-02  0.7948785E-01
         -2   -1    0    0    0  501 -0.00000000000E+00  0.00000000000E+00  0.30476655378E+04  0.30476655378E+04  0.00000000000E+00 0.  1.
          2   -1    0    0  501    0  0.00000000000E+00 -0.00000000000E+00 -0.15084939929E+04  0.15084939929E+04  0.00000000000E+00 0. -1.
         23    2    1    2    0    0  0.58500573886E+03 -0.22758600316E+03 -0.14072274283E+04  0.15436366657E+04  0.92184692173E+02 0.  0.
         11    1    3    3    0    0  0.40142588671E+02 -0.35071932013E+01 -0.14831492468E+03  0.15369139440E+03  0.00000000000E+00 0.  1.
        -11    1    3    3    0    0  0.54486315019E+03 -0.22407880995E+03 -0.12589125036E+04  0.13899452713E+04  0.00000000000E+00 0. -1.
         22    1    1    2    0    0 -0.58500573886E+03  0.22758600316E+03  0.29463989731E+04  0.30125228650E+04  0.00000000000E+00 0.  1.
<mgrwt>
<rscale>  0 0.42883028E+04</rscale>
<asrwt>0</asrwt>
<pdfrwt beam="1">  1        2 0.23207600E+00 0.42883028E+04</pdfrwt>
<pdfrwt beam="2">  1       -2 0.46887162E+00 0.42883028E+04</pdfrwt>
<totfact> 0.25270800E-02</totfact>
</mgrwt>
</event>
<event>
 6    1  0.1112193E-006  0.2991762E+04  0.7818608E-02  0.8246087E-01
         -2   -1    0    0    0  501 -0.00000000000E+00  0.00000000000E+00  0.13307570293E+04  0.13307570293E+04  0.00000000000E+00 0.  1.
          2   -1    0    0  501    0  0.00000000000E+00 -0.00000000000E+00 -0.16814935138E+04  0.16814935138E+04  0.00000000000E+00 0. -1.
         23    2    1    2    0    0  0.97695211609E+02 -0.71743441865E+03 -0.14918450675E+04  0.16608123101E+04  0.91865796170E+02 0.  0.
         13    1    3    3    0    0  0.24383170523E+02 -0.26151471582E+03 -0.44661546501E+03  0.51812147145E+03  0.00000000000E+00 0.  1.
        -13    1    3    3    0    0  0.73312041086E+02 -0.45591970284E+03 -0.10452296025E+04  0.11426908386E+04  0.00000000000E+00 0. -1.
         22    1    1    2    0    0 -0.97695211609E+02  0.71743441865E+03  0.11411085830E+04  0.13514382330E+04  0.00000000000E+00 0.  1.
<mgrwt>
<rscale>  0 0.29917616E+04</rscale>
<asrwt>0</asrwt>
<pdfrwt beam="1">  1        2 0.25869131E+00 0.29917616E+04</pdfrwt>
<pdfrwt beam="2">  1       -2 0.20473185E+00 0.29917616E+04</pdfrwt>
<totfact> 0.10655646E+00</totfact>
</mgrwt>
</event>
<event>
 6    1  0.1028026E-006  0.2332088E+04  0.7818608E-02  0.8465376E-01
         -2   -1    0    0    0  501 -0.00000000000E+00  0.00000000000E+00  0.59384461188E+03  0.59384461188E+03  0.00000000000E+00 0.  1.
          2   -1    0    0  501    0  0.00000000000E+00 -0.00000000000E+00 -0.22895867042E+04  0.22895867042E+04  0.00000000000E+00 0. -1.
         23    2    1    2    0    0 -0.10568824859E+03 -0.19742673224E+03 -0.22617859454E+04  0.22747006991E+04  0.91871034962E+02 0.  0.
         11    1    3    3    0    0 -0.19919988878E+02 -0.82613949828E+02 -0.12406701944E+04  0.12435772602E+04  0.00000000000E+00 0.  1.
        -11    1    3    3    0    0 -0.85768259709E+02 -0.11481278242E+03 -0.10211157510E+04  0.10311234389E+04  0.00000000000E+00 0. -1.
         22    1    1    2    0    0  0.10568824859E+03  0.19742673224E+03  0.56604385307E+03  0.60873061701E+03  0.00000000000E+00 0.  1.
<mgrwt>
<rscale>  0 0.23320881E+04</rscale>
<asrwt>0</asrwt>
<pdfrwt beam="1">  1        2 0.35224411E+00 0.23320881E+04</pdfrwt>
<pdfrwt beam="2">  1       -2 0.91360708E-01 0.23320881E+04</pdfrwt>
<totfact> 0.42412858E+00</totfact>
</mgrwt>
</event>
<event>
 6    1  0.1028026E-006  0.1865895E+04  0.7818608E-02  0.8672021E-01
          4   -1    0    0  501    0  0.00000000000E+00  0.00000000000E+00  0.11738616781E+04  0.11738616781E+04  0.00000000000E+00 0. -1.
         -4   -1    0    0    0  501 -0.00000000000E+00 -0.00000000000E+00 -0.74147682555E+03  0.74147682555E+03  0.00000000000E+00 0.  1.
         23    2    1    2    0    0 -0.28407495710E+03  0.20443730910E+02 -0.69295672431E+03  0.75451543702E+03  0.89375587010E+02 0.  0.
         11    1    3    3    0    0 -0.43551450462E+02 -0.29803181810E+02 -0.11963346164E+03  0.13075596975E+03  0.00000000000E+00 0.  1.
        -11    1    3    3    0    0 -0.24052350664E+03  0.50246912720E+02 -0.57332326267E+03  0.62375946727E+03  0.00000000000E+00 0. -1.
         22    1    1    2    0    0  0.28407495710E+03 -0.20443730910E+02  0.11253415769E+04  0.11608230666E+04  0.00000000000E+00 0. -1.
<mgrwt>
<rscale>  0 0.18658952E+04</rscale>
<asrwt>0</asrwt>
<pdfrwt beam="1">  1        4 0.18059411E+00 0.18658952E+04</pdfrwt>
<pdfrwt beam="2">  1       -4 0.11407336E+00 0.18658952E+04</pdfrwt>
<totfact> 0.20073940E-01</totfact>
</mgrwt>
</event>
<event>
 6    1  0.1028026E-006  0.1687768E+04  0.7818608E-02  0.8768372E-01
          1   -1    0    0  501    0  0.00000000000E+00  0.00000000000E+00  0.18037953849E+04  0.18037953849E+04  0.00000000000E+00 0. -1.
         -1   -1    0    0    0  501 -0.00000000000E+00 -0.00000000000E+00 -0.39480084715E+03  0.39480084715E+03  0.00000000000E+00 0.  1.
         23    2    1    2    0    0  0.72345496319E+03 -0.57522142140E+02  0.12605911117E+04  0.14578402281E+04  0.97531016093E+02 0.  0.
         11    1    3    3    0    0  0.63189846595E+03 -0.76975793654E+02  0.11332666397E+04  0.12998131483E+04  0.00000000000E+00 0.  1.
        -11    1    3    3    0    0  0.91556497241E+02  0.19453651514E+02  0.12732447205E+03  0.15802707972E+03  0.00000000000E+00 0. -1.
         22    1    1    2    0    0 -0.72345496319E+03  0.57522142140E+02  0.14840342608E+03  0.74075600400E+03  0.00000000000E+00 0.  1.
<mgrwt>
<rscale>  0 0.16877677E+04</rscale>
<asrwt>0</asrwt>
<pdfrwt beam="1">  1        1 0.27750698E+00 0.16877677E+04</pdfrwt>
<pdfrwt beam="2">  1       -1 0.60738593E-01 0.16877677E+04</pdfrwt>
<totfact> 0.10605550E+01</totfact>
</mgrwt>
</event>
<event>
 6    1  0.1050036E-006  0.4067586E+04  0.7818608E-02  0.7991049E-01
         -2   -1    0    0    0  501 -0.00000000000E+00  0.00000000000E+00  0.21850312898E+04  0.21850312898E+04  0.00000000000E+00 0.  1.
          2   -1    0    0  501    0  0.00000000000E+00 -0.00000000000E+00 -0.18930230172E+04  0.18930230172E+04  0.00000000000E+00 0. -1.
         23    2    1    2    0    0  0.90432574777E+03  0.75766132141E+03  0.18057230084E+04  0.21588909379E+04  0.91207252107E+02 0.  0.
         11    1    3    3    0    0  0.67091275799E+03  0.59819272027E+03  0.13223959720E+04  0.15989651548E+04  0.00000000000E+00 0. -1.
        -11    1    3    3    0    0  0.23341298978E+03  0.15946860114E+03  0.48332703634E+03  0.55992578312E+03  0.00000000000E+00 0.  1.
         22    1    1    2    0    0 -0.90432574777E+03 -0.75766132141E+03 -0.15137147357E+04  0.19191633691E+04  0.00000000000E+00 0. -1.
<mgrwt>
<rscale>  0 0.40675863E+04</rscale>
<asrwt>0</asrwt>
<pdfrwt beam="1">  1        2 0.29123431E+00 0.40675863E+04</pdfrwt>
<pdfrwt beam="2">  1       -2 0.33615866E+00 0.40675863E+04</pdfrwt>
<totfact> 0.11421616E-01</totfact>
</mgrwt>
</event>
<event>
 6    1  0.1028026E-006  0.2858518E+04  0.7818608E-02  0.8285328E-01
          1   -1    0    0  501    0  0.00000000000E+00  0.00000000000E+00  0.20234657047E+04  0.20234657047E+04  0.00000000000E+00 0. -1.
         -1   -1    0    0    0  501 -0.00000000000E+00 -0.00000000000E+00 -0.10095456289E+04  0.10095456289E+04  0.00000000000E+00 0.  1.
         23    2    1    2    0    0  0.12515248386E+04 -0.44249362225E+03  0.10659645912E+04  0.17045446765E+04  0.84125009781E+02 0.  0.
         11    1    3    3    0    0  0.43769448493E+03 -0.19017034444E+03  0.35384659232E+03  0.59409480131E+03  0.00000000000E+00 0.  1.
        -11    1    3    3    0    0  0.81383035362E+03 -0.25232327781E+03  0.71211799893E+03  0.11104498752E+04  0.00000000000E+00 0. -1.
         22    1    1    2    0    0 -0.12515248386E+04  0.44249362225E+03 -0.52044515490E+02  0.13284666570E+04  0.00000000000E+00 0.  1.
<mgrwt>
<rscale>  0 0.28585178E+04</rscale>
<asrwt>0</asrwt>
<pdfrwt beam="1">  1        1 0.31130241E+00 0.28585178E+04</pdfrwt>
<pdfrwt beam="2">  1       -1 0.15531471E+00 0.28585178E+04</pdfrwt>
<totfact> 0.78522888E-01</totfact>
</mgrwt>
</event>
<event>
 6    1  0.1028026E-006  0.2892987E+04  0.7818608E-02  0.8274967E-01
          2   -1    0    0  501    0  0.00000000000E+00  0.00000000000E+00  0.23423067358E+04  0.23423067358E+04  0.00000000000E+00 0. -1.
         -2   -1    0    0    0  501 -0.00000000000E+00 -0.00000000000E+00 -0.89328340567E+03  0.89328340567E+03  0.00000000000E+00 0.  1.
         23    2    1    2    0    0 -0.14068650061E+04  0.16913304241E+03  0.40800765089E+03  0.14772987049E+04  0.89811406931E+02 0.  0.
         13    1    3    3    0    0 -0.42872828359E+03  0.57335369341E+02  0.16748298239E+03  0.46383815617E+03  0.00000000000E+00 0.  1.
        -13    1    3    3    0    0 -0.97813672254E+03  0.11179767307E+03  0.24052466850E+03  0.10134605487E+04  0.00000000000E+00 0. -1.
         22    1    1    2    0    0  0.14068650061E+04 -0.16913304241E+03  0.10410156792E+04  0.17582914366E+04  0.00000000000E+00 0.  1.
<mgrwt>
<rscale>  0 0.28929872E+04</rscale>
<asrwt>0</asrwt>
<pdfrwt beam="1">  1        2 0.36035488E+00 0.28929872E+04</pdfrwt>
<pdfrwt beam="2">  1       -2 0.13742822E+00 0.28929872E+04</pdfrwt>
<totfact> 0.13957040E+00</totfact>
</mgrwt>
</event>
<event>
 6    1  0.1028026E-006  0.2810385E+04  0.7818608E-02  0.8300051E-01
          1   -1    0    0  501    0  0.00000000000E+00  0.00000000000E+00  0.18571758677E+04  0.18571758677E+04  0.00000000000E+00 0. -1.
         -1   -1    0    0    0  501 -0.00000000000E+00 -0.00000000000E+00 -0.10632089124E+04  0.10632089124E+04  0.00000000000E+00 0.  1.
         23    2    1    2    0    0  0.12775052663E+04  0.52126383495E+03  0.66575080235E+03  0.15346809614E+04  0.91026540987E+02 0.  0.
         13    1    3    3    0    0  0.11622263310E+04  0.46899218031E+03  0.57476241907E+03  0.13787949623E+04  0.00000000000E+00 0. -1.
        -13    1    3    3    0    0  0.11527893532E+03  0.52271654643E+02  0.90988383282E+02  0.15588599905E+03  0.00000000000E+00 0.  1.
         22    1    1    2    0    0 -0.12775052663E+04 -0.52126383495E+03  0.12821615295E+03  0.13857038187E+04  0.00000000000E+00 0. -1.
<mgrwt>
<rscale>  0 0.28103850E+04</rscale>
<asrwt>0</asrwt>
<pdfrwt beam="1">  1        1 0.28571936E+00 0.28103850E+04</pdfrwt>
<pdfrwt beam="2">  1       -1 0.16357060E+00 0.28103850E+04</pdfrwt>
<totfact> 0.88504592E-01</totfact>
</mgrwt>
</event>
<event>
 6    1  0.1028026E-006  0.2265948E+04  0.7818608E-02  0.8491469E-01
         -2   -1    0    0    0  501 -0.00000000000E+00  0.00000000000E+00  0.53326110115E+03  0.53326110115E+03  0.00000000000E+00 0.  1.
          2   -1    0    0  501    0  0.00000000000E+00 -0.00000000000E+00 -0.24071331627E+04  0.24071331627E+04  0.00000000000E+00 0. -1.
         23    2    1    2    0    0  0.40033744512E+02 -0.79418667088E+03 -0.19823129521E+04  0.21378392218E+04  0.91960475933E+02 0.  0.
         11    1    3    3    0    0  0.14814552472E+00 -0.12341827685E+03 -0.40425608965E+03  0.42267609233E+03  0.00000000000E+00 0. -1.
        -11    1    3    3    0    0  0.39885598987E+02 -0.67076839403E+03 -0.15780568624E+04  0.17151631294E+04  0.00000000000E+00 0.  1.
         22    1    1    2    0    0 -0.40033744512E+02  0.79418667088E+03  0.10844089052E+03  0.80255504213E+03  0.00000000000E+00 0.  1.
<mgrwt>
<rscale>  0 0.22659483E+04</rscale>
<asrwt>0</asrwt>
<pdfrwt beam="1">  1        2 0.37032817E+00 0.22659483E+04</pdfrwt>
<pdfrwt beam="2">  1       -2 0.82040170E-01 0.22659483E+04</pdfrwt>
<totfact> 0.46753266E+00</totfact>
</mgrwt>
</event>
<event>
 6    1  0.1028026E-006  0.2402484E+04  0.7818608E-02  0.8438574E-01
         -1   -1    0    0    0  501 -0.00000000000E+00  0.00000000000E+00  0.10214695758E+04  0.10214695758E+04  0.00000000000E+00 0.  1.
          1   -1    0    0  501    0  0.00000000000E+00 -0.00000000000E+00 -0.14126531570E+04  0.14126531570E+04  0.00000000000E+00 0. -1.
         23    2    1    2    0    0 -0.89644783275E+03  0.74091063817E+03  0.10199828702E+03  0.11708746789E+04  0.89311659438E+02 0.  0.
         13    1    3    3    0    0 -0.14935570886E+03  0.16291597878E+03  0.20695695495E+01  0.22102720880E+03  0.00000000000E+00 0. -1.
        -13    1    3    3    0    0 -0.74709212389E+03  0.57799465939E+03  0.99928717467E+02  0.94984747009E+03  0.00000000000E+00 0.  1.
         22    1    1    2    0    0  0.89644783275E+03 -0.74091063817E+03 -0.49318186818E+03  0.12632480539E+04  0.00000000000E+00 0. -1.
<mgrwt>
<rscale>  0 0.24024839E+04</rscale>
<asrwt>0</asrwt>
<pdfrwt beam="1">  1        1 0.21733126E+00 0.24024839E+04</pdfrwt>
<pdfrwt beam="2">  1       -1 0.15714917E+00 0.24024839E+04</pdfrwt>
<totfact> 0.20720110E+00</totfact>
</mgrwt>
</event>
<event>
 6    1  0.1028026E-006  0.6439800E+03  0.7818608E-02  0.9818141E-01
         -1   -1    0    0    0  501 -0.00000000000E+00  0.00000000000E+00  0.88445825691E+02  0.88445825691E+02  0.00000000000E+00 0.  1.
          1   -1    0    0  501    0  0.00000000000E+00 -0.00000000000E+00 -0.11722152946E+04  0.11722152946E+04  0.00000000000E+00 0. -1.
         23    2    1    2    0    0 -0.17584008286E+03 -0.12613137509E+03 -0.10021112390E+04  0.10293670974E+04  0.92416596474E+02 0.  0.
         11    1    3    3    0    0 -0.55624228544E+02  0.43400563259E+01 -0.18562092122E+03  0.19382470763E+03  0.00000000000E+00 0. -1.
        -11    1    3    3    0    0 -0.12021585431E+03 -0.13047143142E+03 -0.81649031775E+03  0.83554238973E+03  0.00000000000E+00 0.  1.
         22    1    1    2    0    0  0.17584008286E+03  0.12613137509E+03 -0.81658229900E+02  0.23129402291E+03  0.00000000000E+00 0.  1.
<mgrwt>
<rscale>  0 0.64397997E+03</rscale>
<asrwt>0</asrwt>
<pdfrwt beam="1">  1        1 0.18034081E+00 0.64397997E+03</pdfrwt>
<pdfrwt beam="2">  1       -1 0.13607050E-01 0.64397997E+03</pdfrwt>
<totfact> 0.43899076E+02</totfact>
</mgrwt>
</event>
<event>
 6    1  0.1028026E-006  0.3666047E+04  0.7818608E-02  0.8075528E-01
          2   -1    0    0  501    0  0.00000000000E+00  0.00000000000E+00  0.23063240014E+04  0.23063240014E+04  0.00000000000E+00 0. -1.
         -2   -1    0    0    0  501 -0.00000000000E+00 -0.00000000000E+00 -0.14568527654E+04  0.14568527654E+04  0.00000000000E+00 0.  1.
         23    2    1    2    0    0  0.67814825818E+03 -0.11767947094E+04  0.16868634843E+04  0.21675713564E+04  0.90146118155E+02 0.  0.
         11    1    3    3    0    0  0.44187531611E+03 -0.81010475064E+03  0.10869287658E+04  0.14258112231E+04  0.00000000000E+00 0.  1.
        -11    1    3    3    0    0  0.23627294207E+03 -0.36668995874E+03  0.59993471843E+03  0.74176013331E+03  0.00000000000E+00 0. -1.
         22    1    1    2    0    0 -0.67814825818E+03  0.11767947094E+04 -0.83739224832E+03  0.15956054104E+04  0.00000000000E+00 0.  1.
<mgrwt>
<rscale>  0 0.36660466E+04</rscale>
<asrwt>0</asrwt>
<pdfrwt beam="1">  1        2 0.35481907E+00 0.36660466E+04</pdfrwt>
<pdfrwt beam="2">  1       -2 0.22413120E+00 0.36660466E+04</pdfrwt>
<totfact> 0.33923345E-01</totfact>
</mgrwt>
</event>
<event>
 6    1  0.1646830E-006  0.4446480E+04  0.7818608E-02  0.7920074E-01
         -2   -1    0    0    0  501 -0.00000000000E+00  0.00000000000E+00  0.15853338632E+04  0.15853338632E+04  0.00000000000E+00 0.  1.
          2   -1    0    0  501    0  0.00000000000E+00 -0.00000000000E+00 -0.31178265093E+04  0.31178265093E+04  0.00000000000E+00 0. -1.
         23    2    1    2    0    0 -0.97333429376E+03 -0.29242008640E+02  0.13462771597E+04  0.16641555457E+04  0.93363521182E+02 0.  0.
         11    1    3    3    0    0 -0.37598396613E+03 -0.25831258353E+02  0.59535268362E+03  0.70461054108E+03  0.00000000000E+00 0.  1.
        -11    1    3    3    0    0 -0.59735032763E+03 -0.34107502867E+01  0.75092447604E+03  0.95954500460E+03  0.00000000000E+00 0. -1.
         22    1    1    2    0    0  0.97333429376E+03  0.29242008640E+02 -0.28787698058E+04  0.30390048268E+04  0.00000000000E+00 0. -1.
<mgrwt>
<rscale>  0 0.44464799E+04</rscale>
<asrwt>0</asrwt>
<pdfrwt beam="1">  1        2 0.47966561E+00 0.44464799E+04</pdfrwt>
<pdfrwt beam="2">  1       -2 0.24389752E+00 0.44464799E+04</pdfrwt>
<totfact> 0.78104377E-02</totfact>
</mgrwt>
</event>
<event>
 6    1  0.1028026E-006  0.1821045E+04  0.7818608E-02  0.8695187E-01
         -2   -1    0    0    0  501 -0.00000000000E+00  0.00000000000E+00  0.40147777249E+03  0.40147777249E+03  0.00000000000E+00 0.  1.
          2   -1    0    0  501    0  0.00000000000E+00 -0.00000000000E+00 -0.20649989133E+04  0.20649989133E+04  0.00000000000E+00 0. -1.
         23    2    1    2    0    0  0.33826345512E+02 -0.64881692185E+02 -0.20600245661E+04  0.20632784444E+04  0.89793488246E+02 0.  0.
         13    1    3    3    0    0  0.93671604343E+00 -0.24255569439E+01 -0.12954114065E+04  0.12954140160E+04  0.00000000000E+00 0. -1.
        -13    1    3    3    0    0  0.32889629469E+02 -0.62456135241E+02 -0.76461315961E+03  0.76786442841E+03  0.00000000000E+00 0.  1.
         22    1    1    2    0    0 -0.33826345512E+02  0.64881692185E+02  0.39650342527E+03  0.40319824142E+03  0.00000000000E+00 0.  1.
<mgrwt>
<rscale>  0 0.18210449E+04</rscale>
<asrwt>0</asrwt>
<pdfrwt beam="1">  1        2 0.31769213E+00 0.18210449E+04</pdfrwt>
<pdfrwt beam="2">  1       -2 0.61765813E-01 0.18210449E+04</pdfrwt>
<totfact> 0.14107864E+01</totfact>
</mgrwt>
</event>
<event>
 6    1  0.1225131E-006  0.1732599E+04  0.7818608E-02  0.8742987E-01
         -2   -1    0    0    0  501 -0.00000000000E+00  0.00000000000E+00  0.58729496631E+03  0.58729496631E+03  0.00000000000E+00 0.  1.
          2   -1    0    0  501    0  0.00000000000E+00 -0.00000000000E+00 -0.12778499596E+04  0.12778499596E+04  0.00000000000E+00 0. -1.
         23    2    1    2    0    0  0.58691631414E+03 -0.60916171229E+03 -0.53933663982E+03  0.10058337239E+04  0.72585931560E+02 0.  0.
         13    1    3    3    0    0  0.36910109597E+03 -0.36186650581E+03 -0.29086306304E+03  0.59311407715E+03  0.00000000000E+00 0.  1.
        -13    1    3    3    0    0  0.21781521817E+03 -0.24729520648E+03 -0.24847357678E+03  0.41271964671E+03  0.00000000000E+00 0. -1.
         22    1    1    2    0    0 -0.58691631414E+03  0.60916171229E+03 -0.15121835345E+03  0.85931120204E+03  0.00000000000E+00 0. -1.
<mgrwt>
<rscale>  0 0.17325990E+04</rscale>
<asrwt>0</asrwt>
<pdfrwt beam="1">  1        2 0.19659230E+00 0.17325990E+04</pdfrwt>
<pdfrwt beam="2">  1       -2 0.90353073E-01 0.17325990E+04</pdfrwt>
<totfact> 0.16932542E+01</totfact>
</mgrwt>
</event>
<event>
 6    1  0.1028026E-006  0.3280644E+04  0.7818608E-02  0.8167838E-01
          2   -1    0    0  501    0  0.00000000000E+00  0.00000000000E+00  0.17411486024E+04  0.17411486024E+04  0.00000000000E+00 0. -1.
         -2   -1    0    0    0  501 -0.00000000000E+00 -0.00000000000E+00 -0.15453340899E+04  0.15453340899E+04  0.00000000000E+00 0.  1.
         23    2    1    2    0    0 -0.67929049692E+03  0.14862348996E+04 -0.29179169759E+02  0.16369518763E+04  0.91816476534E+02 0.  0.
         11    1    3    3    0    0 -0.24547094295E+03  0.45070437110E+03  0.13771949579E+02  0.51340050697E+03  0.00000000000E+00 0. -1.
        -11    1    3    3    0    0 -0.43381955397E+03  0.10355305285E+04 -0.42951119338E+02  0.11235513693E+04  0.00000000000E+00 0.  1.
         22    1    1    2    0    0  0.67929049692E+03 -0.14862348996E+04  0.22499368223E+03  0.16495308160E+04  0.00000000000E+00 0. -1.
<mgrwt>
<rscale>  0 0.32806440E+04</rscale>
<asrwt>0</asrwt>
<pdfrwt beam="1">  1        2 0.26786902E+00 0.32806440E+04</pdfrwt>
<pdfrwt beam="2">  1       -2 0.23774371E+00 0.32806440E+04</pdfrwt>
<totfact> 0.59541176E-01</totfact>
</mgrwt>
</event>
<event>
 6    1  0.1028026E-006  0.4124339E+04  0.7818608E-02  0.7979923E-01
          2   -1    0    0  501    0  0.00000000000E+00  0.00000000000E+00  0.31934956412E+04  0.31934956412E+04  0.00000000000E+00 0. -1.
         -2   -1    0    0    0  501 -0.00000000000E+00 -0.00000000000E+00 -0.13316266021E+04  0.13316266021E+04  0.00000000000E+00 0.  1.
         23    2    1    2    0    0 -0.73318668329E+03 -0.72117192052E+03  0.28912913074E+04  0.30700064892E+04  0.87879281771E+02 0.  0.
         11    1    3    3    0    0 -0.48689351626E+03 -0.53398901425E+03  0.20505547872E+04  0.21741629421E+04  0.00000000000E+00 0.  1.
        -11    1    3    3    0    0 -0.24629316703E+03 -0.18718290627E+03  0.84073652013E+03  0.89584354706E+03  0.00000000000E+00 0. -1.
         22    1    1    2    0    0  0.73318668329E+03  0.72117192052E+03 -0.10294222683E+04  0.14551157541E+04  0.00000000000E+00 0.  1.
<mgrwt>
<rscale>  0 0.41243393E+04</rscale>
<asrwt>0</asrwt>
<pdfrwt beam="1">  1        2 0.49130702E+00 0.41243393E+04</pdfrwt>
<pdfrwt beam="2">  1       -2 0.20486563E+00 0.41243393E+04</pdfrwt>
<totfact> 0.12629481E-01</totfact>
</mgrwt>
</event>
<event>
 6    1  0.1028026E-006  0.2346829E+04  0.7818608E-02  0.8459683E-01
          2   -1    0    0  501    0  0.00000000000E+00  0.00000000000E+00  0.11119866301E+04  0.11119866301E+04  0.00000000000E+00 0. -1.
         -2   -1    0    0    0  501 -0.00000000000E+00 -0.00000000000E+00 -0.12382358044E+04  0.12382358044E+04  0.00000000000E+00 0.  1.
         23    2    1    2    0    0  0.30340456362E+03 -0.89655809326E+03 -0.75516748472E+03  0.12138206635E+04  0.84923079315E+02 0.  0.
         11    1    3    3    0    0  0.18909252121E+03 -0.53323225321E+03 -0.39859864447E+03  0.69207911167E+03  0.00000000000E+00 0. -1.
        -11    1    3    3    0    0  0.11431204241E+03 -0.36332584005E+03 -0.35656884026E+03  0.52174155185E+03  0.00000000000E+00 0.  1.
         22    1    1    2    0    0 -0.30340456362E+03  0.89655809326E+03  0.62891831041E+03  0.11364017709E+04  0.00000000000E+00 0. -1.
<mgrwt>
<rscale>  0 0.23468291E+04</rscale>
<asrwt>0</asrwt>
<pdfrwt beam="1">  1        2 0.17107487E+00 0.23468291E+04</pdfrwt>
<pdfrwt beam="2">  1       -2 0.19049782E+00 0.23468291E+04</pdfrwt>
<totfact> 0.29750908E+00</totfact>
</mgrwt>
</event>
<event>
 6    1  0.1028026E-006  0.1113832E+04  0.7818608E-02  0.9191814E-01
          2   -1    0    0  501    0  0.00000000000E+00  0.00000000000E+00  0.27926375085E+04  0.27926375085E+04  0.00000000000E+00 0. -1.
         -2   -1    0    0    0  501 -0.00000000000E+00 -0.00000000000E+00 -0.11106179810E+03  0.11106179810E+03  0.00000000000E+00 0.  1.
         23    2    1    2    0    0  0.27398802089E+03  0.45073158650E+03  0.91506857373E+03  0.10601223859E+04  0.90997691006E+02 0.  0.
         13    1    3    3    0    0  0.16585005035E+03  0.29650915912E+03  0.50227893235E+03  0.60638935225E+03  0.00000000000E+00 0.  1.
        -13    1    3    3    0    0  0.10813797054E+03  0.15422242738E+03  0.41278964138E+03  0.45373303364E+03  0.00000000000E+00 0. -1.
         22    1    1    2    0    0 -0.27398802089E+03 -0.45073158650E+03  0.17665071367E+04  0.18435769207E+04  0.00000000000E+00 0. -1.
<mgrwt>
<rscale>  0 0.11138318E+04</rscale>
<asrwt>0</asrwt>
<pdfrwt beam="1">  1        2 0.42963649E+00 0.11138318E+04</pdfrwt>
<pdfrwt beam="2">  1       -2 0.17086432E-01 0.11138318E+04</pdfrwt>
<totfact> 0.66053881E+01</totfact>
</mgrwt>
</event>
<event>
 6    1  0.1028026E-006  0.7291511E+03  0.7818608E-02  0.9668639E-01
         -1   -1    0    0    0  501 -0.00000000000E+00  0.00000000000E+00  0.54742172489E+02  0.54742172489E+02  0.00000000000E+00 0.  1.
          1   -1    0    0  501    0  0.00000000000E+00 -0.00000000000E+00 -0.24280241382E+04  0.24280241382E+04  0.00000000000E+00 0. -1.
         23    2    1    2    0    0  0.15424322302E+01 -0.89300800594E+02 -0.23886147935E+04  0.23921456305E+04  0.94356100051E+02 0.  0.
         13    1    3    3    0    0 -0.23584958008E+02 -0.92215441842E+02 -0.14126569514E+04  0.14158600214E+04  0.00000000000E+00 0.  1.
        -13    1    3    3    0    0  0.25127390238E+02  0.29146412475E+01 -0.97595784210E+03  0.97628560905E+03  0.00000000000E+00 0. -1.
         22    1    1    2    0    0 -0.15424322302E+01  0.89300800594E+02  0.15332827740E+02  0.90620680258E+02  0.00000000000E+00 0.  1.
<mgrwt>
<rscale>  0 0.72915106E+03</rscale>
<asrwt>0</asrwt>
<pdfrwt beam="1">  1        1 0.37354218E+00 0.72915106E+03</pdfrwt>
<pdfrwt beam="2">  1       -1 0.84218726E-02 0.72915106E+03</pdfrwt>
<totfact> 0.13107201E+02</totfact>
</mgrwt>
</event>
<event>
 6    1  0.1028026E-006  0.2940859E+04  0.7818608E-02  0.8260823E-01
          1   -1    0    0  501    0  0.00000000000E+00  0.00000000000E+00  0.24840290911E+04  0.24840290911E+04  0.00000000000E+00 0. -1.
         -1   -1    0    0    0  501 -0.00000000000E+00 -0.00000000000E+00 -0.87042581230E+03  0.87042581230E+03  0.00000000000E+00 0.  1.
         23    2    1    2    0    0  0.84977303137E+03  0.31727737176E+03 -0.51100832651E+03  0.10443134339E+04  0.81742908468E+02 0.  0.
         11    1    3    3    0    0  0.31116522715E+03  0.12428797107E+03 -0.23365716539E+03  0.40849353640E+03  0.00000000000E+00 0.  1.
        -11    1    3    3    0    0  0.53860780422E+03  0.19298940069E+03 -0.27735116112E+03  0.63581989755E+03  0.00000000000E+00 0. -1.
         22    1    1    2    0    0 -0.84977303137E+03 -0.31727737176E+03  0.21246116053E+04  0.23101414695E+04  0.00000000000E+00 0. -1.
<mgrwt>
<rscale>  0 0.29408591E+04</rscale>
<asrwt>0</asrwt>
<pdfrwt beam="1">  1        1 0.38215832E+00 0.29408591E+04</pdfrwt>
<pdfrwt beam="2">  1       -1 0.13391166E+00 0.29408591E+04</pdfrwt>
<totfact> 0.55884704E-01</totfact>
</mgrwt>
</event>
<event>
 6    1  0.1028026E-006  0.1766993E+04  0.7818608E-02  0.8724052E-01
          1   -1    0    0  501    0  0.00000000000E+00  0.00000000000E+00  0.18341480665E+04  0.18341480665E+04  0.00000000000E+00 0. -1.
         -1   -1    0    0    0  501 -0.00000000000E+00 -0.00000000000E+00 -0.42557405788E+03  0.42557405788E+03  0.00000000000E+00 0.  1.
         23    2    1    2    0    0  0.76457003841E+03 -0.30399088581E+03  0.11095191492E+04  0.13842727476E+04  0.90556585254E+02 0.  0.
         11    1    3    3    0    0  0.53737849410E+03 -0.19532256163E+03  0.83184895052E+03  0.10094053821E+04  0.00000000000E+00 0. -1.
        -11    1    3    3    0    0  0.22719154431E+03 -0.10866832418E+03  0.27767019867E+03  0.37486736550E+03  0.00000000000E+00 0.  1.
         22    1    1    2    0    0 -0.76457003841E+03  0.30399088581E+03  0.29905485944E+03  0.87544937675E+03  0.00000000000E+00 0.  1.
<mgrwt>
<rscale>  0 0.17669927E+04</rscale>
<asrwt>0</asrwt>
<pdfrwt beam="1">  1        1 0.28217662E+00 0.17669927E+04</pdfrwt>
<pdfrwt beam="2">  1       -1 0.65472933E-01 0.17669927E+04</pdfrwt>
<totfact> 0.86419631E+00</totfact>
</mgrwt>
</event>
<event>
 6    1  0.1028026E-006  0.1848716E+04  0.7818608E-02  0.8680814E-01
         -2   -1    0    0    0  501 -0.00000000000E+00  0.00000000000E+00  0.62011204380E+03  0.62011204380E+03  0.00000000000E+00 0.  1.
          2   -1    0    0  501    0  0.00000000000E+00 -0.00000000000E+00 -0.13778757388E+04  0.13778757388E+04  0.00000000000E+00 0. -1.
         23    2    1    2    0    0  0.67997970716E+03  0.85050143600E+02 -0.10465608346E+04  0.12543415516E+04  0.92071811389E+02 0.  0.
         11    1    3    3    0    0  0.18686946724E+03  0.30564751119E+02 -0.36684187688E+03  0.41282849275E+03  0.00000000000E+00 0.  1.
        -11    1    3    3    0    0  0.49311023992E+03  0.54485392481E+02 -0.67971895774E+03  0.84151305885E+03  0.00000000000E+00 0. -1.
         22    1    1    2    0    0 -0.67997970716E+03 -0.85050143600E+02  0.28879713959E+03  0.74364623102E+03  0.00000000000E+00 0.  1.
<mgrwt>
<rscale>  0 0.18487156E+04</rscale>
<asrwt>0</asrwt>
<pdfrwt beam="1">  1        2 0.21198088E+00 0.18487156E+04</pdfrwt>
<pdfrwt beam="2">  1       -2 0.95401854E-01 0.18487156E+04</pdfrwt>
<totfact> 0.12932567E+01</totfact>
</mgrwt>
</event>
<event>
 6    1  0.1028026E-006  0.2247089E+04  0.7818608E-02  0.8499080E-01
         -1   -1    0    0    0  501 -0.00000000000E+00  0.00000000000E+00  0.74740989598E+03  0.74740989598E+03  0.00000000000E+00 0.  1.
          1   -1    0    0  501    0  0.00000000000E+00 -0.00000000000E+00 -0.16889694565E+04  0.16889694565E+04  0.00000000000E+00 0. -1.
         23    2    1    2    0    0  0.62343567191E+03 -0.11064600417E+03 -0.14755174330E+04  0.16081127379E+04  0.89220554709E+02 0.  0.
         11    1    3    3    0    0  0.47628775421E+03 -0.10499482976E+03 -0.12080312844E+04  0.13027714778E+04  0.00000000000E+00 0. -1.
        -11    1    3    3    0    0  0.14714791770E+03 -0.56511744089E+01 -0.26748614857E+03  0.30534126012E+03  0.00000000000E+00 0.  1.
         22    1    1    2    0    0 -0.62343567191E+03  0.11064600417E+03  0.53395787249E+03  0.82826661459E+03  0.00000000000E+00 0.  1.
<mgrwt>
<rscale>  0 0.22470892E+04</rscale>
<asrwt>0</asrwt>
<pdfrwt beam="1">  1        1 0.25984145E+00 0.22470892E+04</pdfrwt>
<pdfrwt beam="2">  1       -1 0.11498614E+00 0.22470892E+04</pdfrwt>
<totfact> 0.30230852E+00</totfact>
</mgrwt>
</event>
<event>
 6    1  0.1028026E-006  0.8701664E+03  0.7818608E-02  0.9463663E-01
         -1   -1    0    0    0  501 -0.00000000000E+00  0.00000000000E+00  0.14320428066E+03  0.14320428066E+03  0.00000000000E+00 0.  1.
          1   -1    0    0  501    0  0.00000000000E+00 -0.00000000000E+00 -0.13218697831E+04  0.13218697831E+04  0.00000000000E+00 0. -1.
         23    2    1    2    0    0  0.15060454198E+03  0.27684829891E+03 -0.10893293074E+04  0.11374955779E+04  0.89056954102E+02 0.  0.
         13    1    3    3    0    0  0.75409508772E+02  0.97138802334E+02 -0.56294310508E+03  0.57621825769E+03  0.00000000000E+00 0. -1.
        -13    1    3    3    0    0  0.75195033205E+02  0.17970949657E+03 -0.52638620231E+03  0.56127732019E+03  0.00000000000E+00 0.  1.
         22    1    1    2    0    0 -0.15060454198E+03 -0.27684829891E+03 -0.89336195061E+02  0.32757848589E+03  0.00000000000E+00 0.  1.
<mgrwt>
<rscale>  0 0.87016645E+03</rscale>
<asrwt>0</asrwt>
<pdfrwt beam="1">  1        1 0.20336458E+00 0.87016645E+03</pdfrwt>
<pdfrwt beam="2">  1       -1 0.22031428E-01 0.87016645E+03</pdfrwt>
<totfact> 0.15297464E+02</totfact>
</mgrwt>
</event>
<event>
 6    1  0.1058228E-006  0.3215326E+04  0.7818608E-02  0.8184781E-01
         -1   -1    0    0    0  501 -0.00000000000E+00  0.00000000000E+00  0.10234991105E+04  0.10234991105E+04  0.00000000000E+00 0.  1.
          1   -1    0    0  501    0  0.00000000000E+00 -0.00000000000E+00 -0.25252389355E+04  0.25252389355E+04  0.00000000000E+00 0. -1.
         23    2    1    2    0    0 -0.16022159775E+04 -0.55549763494E+02 -0.86350852570E+03  0.18231885665E+04  0.90486243108E+02 0.  0.
         11    1    3    3    0    0 -0.12914970676E+04 -0.11099261358E+02 -0.68052979688E+03  0.14598659780E+04  0.00000000000E+00 0.  1.
        -11    1    3    3    0    0 -0.31071890984E+03 -0.44450502136E+02 -0.18297872883E+03  0.36332258845E+03  0.00000000000E+00 0. -1.
         22    1    1    2    0    0  0.16022159775E+04  0.55549763494E+02 -0.63823129931E+03  0.17255494795E+04  0.00000000000E+00 0.  1.
<mgrwt>
<rscale>  0 0.32153257E+04</rscale>
<asrwt>0</asrwt>
<pdfrwt beam="1">  1        1 0.38849829E+00 0.32153257E+04</pdfrwt>
<pdfrwt beam="2">  1       -1 0.15746140E+00 0.32153257E+04</pdfrwt>
<totfact> 0.33205872E-01</totfact>
</mgrwt>
</event>
<event>
 6    1  0.1028026E-006  0.6642628E+04  0.7818608E-02  0.7615458E-01
          1   -1    0    0  501    0  0.00000000000E+00  0.00000000000E+00  0.33965698599E+04  0.33965698599E+04  0.00000000000E+00 0. -1.
         -1   -1    0    0    0  501 -0.00000000000E+00 -0.00000000000E+00 -0.32477258698E+04  0.32477258698E+04  0.00000000000E+00 0.  1.
         23    2    1    2    0    0  0.24884621296E+04 -0.21103469962E+04 -0.54284756316E+03  0.33089628498E+04  0.92430779711E+02 0.  0.
         13    1    3    3    0    0  0.97716528259E+03 -0.78233190428E+03 -0.23635805584E+03  0.12738761041E+04  0.00000000000E+00 0.  1.
        -13    1    3    3    0    0  0.15112968471E+04 -0.13280150919E+04 -0.30648950732E+03  0.20350867457E+04  0.00000000000E+00 0. -1.
         22    1    1    2    0    0 -0.24884621296E+04  0.21103469962E+04  0.69169155326E+03  0.33353328799E+04  0.00000000000E+00 0.  1.
<mgrwt>
<rscale>  0 0.66426283E+04</rscale>
<asrwt>0</asrwt>
<pdfrwt beam="1">  1        1 0.52254921E+00 0.66426283E+04</pdfrwt>
<pdfrwt beam="2">  1       -1 0.49965013E+00 0.66426283E+04</pdfrwt>
<totfact> 0.29028941E-04</totfact>
</mgrwt>
</event>
<event>
 6    1  0.1028026E-006  0.2005908E+04  0.7818608E-02  0.8603863E-01
          2   -1    0    0  501    0  0.00000000000E+00  0.00000000000E+00  0.90725067190E+03  0.90725067190E+03  0.00000000000E+00 0. -1.
         -2   -1    0    0    0  501 -0.00000000000E+00 -0.00000000000E+00 -0.11087530510E+04  0.11087530510E+04  0.00000000000E+00 0.  1.
         23    2    1    2    0    0 -0.30016579427E+03 -0.91148188009E+03 -0.38666449381E+03  0.10386687084E+04  0.91785255994E+02 0.  0.
         13    1    3    3    0    0 -0.55674037254E+01 -0.56602236782E+02 -0.46449513905E+01  0.57064741885E+02  0.00000000000E+00 0.  1.
        -13    1    3    3    0    0 -0.29459839055E+03 -0.85487964331E+03 -0.38201954242E+03  0.98160396650E+03  0.00000000000E+00 0. -1.
         22    1    1    2    0    0  0.30016579427E+03  0.91148188009E+03  0.18516211475E+03  0.97733501447E+03  0.00000000000E+00 0.  1.
<mgrwt>
<rscale>  0 0.20059082E+04</rscale>
<asrwt>0</asrwt>
<pdfrwt beam="1">  1        2 0.13957703E+00 0.20059082E+04</pdfrwt>
<pdfrwt beam="2">  1       -2 0.17057739E+00 0.20059082E+04</pdfrwt>
<totfact> 0.56823102E+00</totfact>
</mgrwt>
</event>
<event>
 6    1  0.1028026E-006  0.3245463E+04  0.7818608E-02  0.8176913E-01
         -2   -1    0    0    0  501 -0.00000000000E+00  0.00000000000E+00  0.23549805066E+04  0.23549805066E+04  0.00000000000E+00 0.  1.
          2   -1    0    0  501    0  0.00000000000E+00 -0.00000000000E+00 -0.11181651002E+04  0.11181651002E+04  0.00000000000E+00 0. -1.
         23    2    1    2    0    0  0.14320082553E+04 -0.58187602467E+03  0.11430851079E+04  0.19245937930E+04  0.90500567616E+02 0.  0.
         13    1    3    3    0    0  0.60185363756E+03 -0.24675160945E+03  0.42586331523E+03  0.77747908079E+03  0.00000000000E+00 0.  1.
        -13    1    3    3    0    0  0.83015461772E+03 -0.33512441523E+03  0.71722179271E+03  0.11471147122E+04  0.00000000000E+00 0. -1.
         22    1    1    2    0    0 -0.14320082553E+04  0.58187602467E+03  0.93730298375E+02  0.15485518138E+04  0.00000000000E+00 0. -1.
<mgrwt>
<rscale>  0 0.32454627E+04</rscale>
<asrwt>0</asrwt>
<pdfrwt beam="1">  1        2 0.17202540E+00 0.32454627E+04</pdfrwt>
<pdfrwt beam="2">  1       -2 0.36230469E+00 0.32454627E+04</pdfrwt>
<totfact> 0.23145254E-01</totfact>
</mgrwt>
</event>
<event>
 6    1  0.1028026E-006  0.9388576E+03  0.7818608E-02  0.9378270E-01
          2   -1    0    0  501    0  0.00000000000E+00  0.00000000000E+00  0.16061739543E+04  0.16061739543E+04  0.00000000000E+00 0. -1.
         -2   -1    0    0    0  501 -0.00000000000E+00 -0.00000000000E+00 -0.13719771990E+03  0.13719771990E+03  0.00000000000E+00 0.  1.
         23    2    1    2    0    0  0.37463412219E+03  0.16717625016E+03  0.11470425311E+04  0.12218930712E+04  0.94960439549E+02 0.  0.
         11    1    3    3    0    0  0.77915732624E+01  0.24897671836E+02  0.49518114839E+02  0.55970048901E+02  0.00000000000E+00 0. -1.
        -11    1    3    3    0    0  0.36684254893E+03  0.14227857832E+03  0.10975244162E+04  0.11659230222E+04  0.00000000000E+00 0.  1.
         22    1    1    2    0    0 -0.37463412219E+03 -0.16717625016E+03  0.32193370336E+03  0.52147860310E+03  0.00000000000E+00 0.  1.
<mgrwt>
<rscale>  0 0.93885761E+03</rscale>
<asrwt>0</asrwt>
<pdfrwt beam="1">  1        2 0.24710367E+00 0.93885761E+03</pdfrwt>
<pdfrwt beam="2">  1       -2 0.21107343E-01 0.93885761E+03</pdfrwt>
<totfact> 0.21534578E+02</totfact>
</mgrwt>
</event>
<event>
 6    1  0.1028026E-006  0.2791239E+04  0.7818608E-02  0.8305994E-01
         -2   -1    0    0    0  501 -0.00000000000E+00  0.00000000000E+00  0.98124328923E+03  0.98124328923E+03  0.00000000000E+00 0.  1.
          2   -1    0    0  501    0  0.00000000000E+00 -0.00000000000E+00 -0.19849850195E+04  0.19849850195E+04  0.00000000000E+00 0. -1.
         23    2    1    2    0    0 -0.68586507105E+03  0.43005206538E+03  0.70368754605E+03  0.10766065454E+04  0.92465218300E+02 0.  0.
         13    1    3    3    0    0 -0.22644375122E+03  0.14920839670E+03  0.18002251915E+03  0.32549658295E+03  0.00000000000E+00 0. -1.
        -13    1    3    3    0    0 -0.45942131984E+03  0.28084366868E+03  0.52366502690E+03  0.75110996249E+03  0.00000000000E+00 0.  1.
         22    1    1    2    0    0  0.68586507105E+03 -0.43005206538E+03 -0.17074292763E+04  0.18896217633E+04  0.00000000000E+00 0. -1.
<mgrwt>
<rscale>  0 0.27912386E+04</rscale>
<asrwt>0</asrwt>
<pdfrwt beam="1">  1        2 0.30538231E+00 0.27912386E+04</pdfrwt>
<pdfrwt beam="2">  1       -2 0.15096051E+00 0.27912386E+04</pdfrwt>
<totfact> 0.17472596E+00</totfact>
</mgrwt>
</event>
<event>
 6    1  0.1028026E-006  0.7360464E+03  0.7818608E-02  0.9657499E-01
         -1   -1    0    0    0  501 -0.00000000000E+00  0.00000000000E+00  0.20102550014E+03  0.20102550014E+03  0.00000000000E+00 0.  1.
          1   -1    0    0  501    0  0.00000000000E+00 -0.00000000000E+00 -0.67375078492E+03  0.67375078492E+03  0.00000000000E+00 0. -1.
         23    2    1    2    0    0 -0.17579080828E+03 -0.29471596022E+02 -0.61496749201E+03  0.64673280507E+03  0.91144509913E+02 0.  0.
         11    1    3    3    0    0 -0.40164139247E+02  0.31933760684E+02 -0.15589217236E+03  0.16411975066E+03  0.00000000000E+00 0.  1.
        -11    1    3    3    0    0 -0.13562666903E+03 -0.61405356705E+02 -0.45907531964E+03  0.48261305442E+03  0.00000000000E+00 0. -1.
         22    1    1    2    0    0  0.17579080828E+03  0.29471596022E+02  0.14224220723E+03  0.22804347999E+03  0.00000000000E+00 0.  1.
<mgrwt>
<rscale>  0 0.73604643E+03</rscale>
<asrwt>0</asrwt>
<pdfrwt beam="1">  1        1 0.10365397E+00 0.73604643E+03</pdfrwt>
<pdfrwt beam="2">  1       -1 0.30927000E-01 0.73604643E+03</pdfrwt>
<totfact> 0.28227735E+02</totfact>
</mgrwt>
</event>
<event>
 6    1  0.1028026E-006  0.1130480E+04  0.7818608E-02  0.9175983E-01
         -2   -1    0    0    0  501 -0.00000000000E+00  0.00000000000E+00  0.24728300304E+03  0.24728300304E+03  0.00000000000E+00 0.  1.
          2   -1    0    0  501    0  0.00000000000E+00 -0.00000000000E+00 -0.12920267147E+04  0.12920267147E+04  0.00000000000E+00 0. -1.
         23    2    1    2    0    0  0.28169171076E+03 -0.30376043515E+03 -0.10419647686E+04  0.11250292036E+04  0.91539652994E+02 0.  0.
         11    1    3    3    0    0  0.25786425307E+03 -0.24158879422E+03 -0.81046842002E+03  0.88414827848E+03  0.00000000000E+00 0.  1.
        -11    1    3    3    0    0  0.23827457695E+02 -0.62171640934E+02 -0.23149634859E+03  0.24088092512E+03  0.00000000000E+00 0. -1.
         22    1    1    2    0    0 -0.28169171076E+03  0.30376043515E+03 -0.27789430608E+01  0.41428051415E+03  0.00000000000E+00 0.  1.
<mgrwt>
<rscale>  0 0.11304800E+04</rscale>
<asrwt>0</asrwt>
<pdfrwt beam="1">  1        2 0.19877335E+00 0.11304800E+04</pdfrwt>
<pdfrwt beam="2">  1       -2 0.38043538E-01 0.11304800E+04</pdfrwt>
<totfact> 0.10792536E+02</totfact>
</mgrwt>
</event>
<event>
 6    1  0.1028026E-006  0.1776611E+04  0.7818608E-02  0.8718837E-01
         -2   -1    0    0    0  501 -0.00000000000E+00  0.00000000000E+00  0.29815289672E+03  0.29815289672E+03  0.00000000000E+00 0.  1.
          2   -1    0    0  501    0  0.00000000000E+00 -0.00000000000E+00 -0.26465852427E+04  0.26465852427E+04  0.00000000000E+00 0. -1.
         23    2    1    2    0    0  0.43273014839E+02  0.56343400432E+03 -0.46052824182E+02  0.57402476716E+03  0.89739287174E+02 0.  0.
         13    1    3    3    0    0  0.61745312417E+02  0.25472188958E+03 -0.36359152696E+02  0.26460860270E+03  0.00000000000E+00 0.  1.
        -13    1    3    3    0    0 -0.18472297578E+02  0.30871211473E+03 -0.96936714860E+01  0.30941616446E+03  0.00000000000E+00 0. -1.
         22    1    1    2    0    0 -0.43273014839E+02 -0.56343400432E+03 -0.23023795218E+04  0.23707133723E+04  0.00000000000E+00 0. -1.
<mgrwt>
<rscale>  0 0.17766114E+04</rscale>
<asrwt>0</asrwt>
<pdfrwt beam="1">  1        2 0.40716699E+00 0.17766114E+04</pdfrwt>
<pdfrwt beam="2">  1       -2 0.45869673E-01 0.17766114E+04</pdfrwt>
<totfact> 0.12200612E+01</totfact>
</mgrwt>
</event>
<event>
 6    1  0.1028026E-006  0.1291143E+04  0.7818608E-02  0.9036619E-01
         -1   -1    0    0    0  501 -0.00000000000E+00  0.00000000000E+00  0.10315185395E+04  0.10315185395E+04  0.00000000000E+00 0.  1.
          1   -1    0    0  501    0  0.00000000000E+00 -0.00000000000E+00 -0.40402805410E+03  0.40402805410E+03  0.00000000000E+00 0. -1.
         23    2    1    2    0    0 -0.47770325402E+03  0.42614828174E+03  0.37282499715E+03  0.74659284492E+03  0.92734247463E+02 0.  0.
         11    1    3    3    0    0 -0.21572912000E+03  0.15138616431E+03  0.11415502784E+03  0.28720758057E+03  0.00000000000E+00 0.  1.
        -11    1    3    3    0    0 -0.26197413403E+03  0.27476211743E+03  0.25866996932E+03  0.45938526435E+03  0.00000000000E+00 0. -1.
         22    1    1    2    0    0  0.47770325402E+03 -0.42614828174E+03  0.25466548827E+03  0.68895374870E+03  0.00000000000E+00 0. -1.
<mgrwt>
<rscale>  0 0.12911428E+04</rscale>
<asrwt>0</asrwt>
<pdfrwt beam="1">  1        1 0.62158163E-01 0.12911428E+04</pdfrwt>
<pdfrwt beam="2">  1       -1 0.15869516E+00 0.12911428E+04</pdfrwt>
<totfact> 0.17402003E+01</totfact>
</mgrwt>
</event>
<event>
 6    1  0.1028026E-006  0.3107073E+04  0.7818608E-02  0.8213800E-01
          2   -1    0    0  501    0  0.00000000000E+00  0.00000000000E+00  0.28927058937E+04  0.28927058937E+04  0.00000000000E+00 0. -1.
         -2   -1    0    0    0  501 -0.00000000000E+00 -0.00000000000E+00 -0.83433138987E+03  0.83433138987E+03  0.00000000000E+00 0.  1.
         23    2    1    2    0    0 -0.14247225447E+04 -0.51140377460E+03  0.61832462128E+03  0.16377522828E+04  0.92406994676E+02 0.  0.
         13    1    3    3    0    0 -0.94479770471E+03 -0.30955975408E+03  0.44224283984E+03  0.10881400064E+04  0.00000000000E+00 0. -1.
        -13    1    3    3    0    0 -0.47992483998E+03 -0.20184402052E+03  0.17608178144E+03  0.54961227643E+03  0.00000000000E+00 0.  1.
         22    1    1    2    0    0  0.14247225447E+04  0.51140377460E+03  0.14400498825E+04  0.20892850007E+04  0.00000000000E+00 0.  1.
<mgrwt>
<rscale>  0 0.31070728E+04</rscale>
<asrwt>0</asrwt>
<pdfrwt beam="1">  1        2 0.44503167E+00 0.31070728E+04</pdfrwt>
<pdfrwt beam="2">  1       -2 0.12835868E+00 0.31070728E+04</pdfrwt>
<totfact> 0.77207501E-01</totfact>
</mgrwt>
</event>
<event>
 6    1  0.1028026E-006  0.6563877E+03  0.7818608E-02  0.9794866E-01
          2   -1    0    0  501    0  0.00000000000E+00  0.00000000000E+00  0.24801225086E+03  0.24801225086E+03  0.00000000000E+00 0. -1.
         -2   -1    0    0    0  501 -0.00000000000E+00 -0.00000000000E+00 -0.43429785092E+03  0.43429785092E+03  0.00000000000E+00 0.  1.
         23    2    1    2    0    0 -0.21360320186E+03 -0.23879359182E+03 -0.67001180335E+02  0.34043661622E+03  0.93590726897E+02 0.  0.
         13    1    3    3    0    0 -0.21052696770E+03 -0.18769053262E+03 -0.63609153636E+02  0.28912880277E+03  0.00000000000E+00 0. -1.
        -13    1    3    3    0    0 -0.30762341558E+01 -0.51103059201E+02 -0.33920266991E+01  0.51307813454E+02  0.00000000000E+00 0.  1.
         22    1    1    2    0    0  0.21360320186E+03  0.23879359182E+03 -0.11928441972E+03  0.34187348556E+03  0.00000000000E+00 0. -1.
<mgrwt>
<rscale>  0 0.65638765E+03</rscale>
<asrwt>0</asrwt>
<pdfrwt beam="1">  1        2 0.38155731E-01 0.65638765E+03</pdfrwt>
<pdfrwt beam="2">  1       -2 0.66815054E-01 0.65638765E+03</pdfrwt>
<totfact> 0.28216950E+02</totfact>
</mgrwt>
</event>
<event>
 6    1  0.1028026E-006  0.7698988E+03  0.7818608E-02  0.9604639E-01
         -1   -1    0    0    0  501 -0.00000000000E+00  0.00000000000E+00  0.21607325452E+03  0.21607325452E+03  0.00000000000E+00 0.  1.
          1   -1    0    0  501    0  0.00000000000E+00 -0.00000000000E+00 -0.68581396929E+03  0.68581396929E+03  0.00000000000E+00 0. -1.
         23    2    1    2    0    0  0.25658171961E+03  0.22601881286E+03 -0.45110907710E+02  0.35669995722E+03  0.91001004840E+02 0.  0.
         13    1    3    3    0    0  0.10702464430E+03  0.45804059173E+02 -0.37796597486E+02  0.12239636067E+03  0.00000000000E+00 0. -1.
        -13    1    3    3    0    0  0.14955707531E+03  0.18021475369E+03 -0.73143102239E+01  0.23430359655E+03  0.00000000000E+00 0.  1.
         22    1    1    2    0    0 -0.25658171961E+03 -0.22601881286E+03 -0.42462980707E+03  0.54518726659E+03  0.00000000000E+00 0. -1.
<mgrwt>
<rscale>  0 0.76989884E+03</rscale>
<asrwt>0</asrwt>
<pdfrwt beam="1">  1        1 0.10550984E+00 0.76989884E+03</pdfrwt>
<pdfrwt beam="2">  1       -1 0.33242039E-01 0.76989884E+03</pdfrwt>
<totfact> 0.24170130E+02</totfact>
</mgrwt>
</event>
<event>
 6    1  0.1028026E-006  0.1647945E+04  0.7818608E-02  0.8791623E-01
         -2   -1    0    0    0  501 -0.00000000000E+00  0.00000000000E+00  0.42979333309E+03  0.42979333309E+03  0.00000000000E+00 0.  1.
          2   -1    0    0  501    0  0.00000000000E+00 -0.00000000000E+00 -0.15796670291E+04  0.15796670291E+04  0.00000000000E+00 0. -1.
         23    2    1    2    0    0  0.77221090845E+02 -0.81715988832E+03 -0.53476856452E+03  0.98375684619E+03  0.89926274700E+02 0.  0.
         13    1    3    3    0    0  0.47456101803E+02 -0.20111296691E+03 -0.10303450294E+03  0.23089957959E+03  0.00000000000E+00 0. -1.
        -13    1    3    3    0    0  0.29764989042E+02 -0.61604692140E+03 -0.43173406158E+03  0.75285726660E+03  0.00000000000E+00 0.  1.
         22    1    1    2    0    0 -0.77221090845E+02  0.81715988832E+03 -0.61510513147E+03  0.10257035160E+04  0.00000000000E+00 0. -1.
<mgrwt>
<rscale>  0 0.16479446E+04</rscale>
<asrwt>0</asrwt>
<pdfrwt beam="1">  1        2 0.24302570E+00 0.16479446E+04</pdfrwt>
<pdfrwt beam="2">  1       -2 0.66122051E-01 0.16479446E+04</pdfrwt>
<totfact> 0.23011390E+01</totfact>
</mgrwt>
</event>
<event>
 6    1  0.1028026E-006  0.2109629E+04  0.7818608E-02  0.8557013E-01
          2   -1    0    0  501    0  0.00000000000E+00  0.00000000000E+00  0.24445845076E+04  0.24445845076E+04  0.00000000000E+00 0. -1.
         -2   -1    0    0    0  501 -0.00000000000E+00 -0.00000000000E+00 -0.45514243050E+03  0.45514243050E+03  0.00000000000E+00 0.  1.
         23    2    1    2    0    0 -0.10154751548E+04  0.17337693085E+03  0.69784186520E+03  0.12476130021E+04  0.91134976709E+02 0.  0.
         11    1    3    3    0    0 -0.60991935722E+03  0.11677231255E+03  0.47169236622E+03  0.77982759866E+03  0.00000000000E+00 0.  1.
        -11    1    3    3    0    0 -0.40555579759E+03  0.56604618298E+02  0.22614949898E+03  0.46778540342E+03  0.00000000000E+00 0. -1.
         22    1    1    2    0    0  0.10154751548E+04 -0.17337693085E+03  0.12916002119E+04  0.16521139360E+04  0.00000000000E+00 0. -1.
<mgrwt>
<rscale>  0 0.21096295E+04</rscale>
<asrwt>0</asrwt>
<pdfrwt beam="1">  1        2 0.37608992E+00 0.21096295E+04</pdfrwt>
<pdfrwt beam="2">  1       -2 0.70021914E-01 0.21096295E+04</pdfrwt>
<totfact> 0.64118560E+00</totfact>
</mgrwt>
</event>
<event>
 6    1  0.1028026E-006  0.1123250E+04  0.7818608E-02  0.9182822E-01
          1   -1    0    0  501    0  0.00000000000E+00  0.00000000000E+00  0.82891118632E+03  0.82891118632E+03  0.00000000000E+00 0. -1.
         -1   -1    0    0    0  501 -0.00000000000E+00 -0.00000000000E+00 -0.38052664159E+03  0.38052664159E+03  0.00000000000E+00 0.  1.
         23    2    1    2    0    0  0.32289759823E+03  0.45155173087E+02  0.71313357276E+03  0.78944509411E+03  0.91445149732E+02 0.  0.
         13    1    3    3    0    0  0.60373113893E+02 -0.24799632067E+02  0.17129631579E+03  0.18330947176E+03  0.00000000000E+00 0.  1.
        -13    1    3    3    0    0  0.26252448434E+03  0.69954805154E+02  0.54183725697E+03  0.60613562235E+03  0.00000000000E+00 0. -1.
         22    1    1    2    0    0 -0.32289759823E+03 -0.45155173087E+02 -0.26474902804E+03  0.41999273380E+03  0.00000000000E+00 0.  1.
<mgrwt>
<rscale>  0 0.11232503E+04</rscale>
<asrwt>0</asrwt>
<pdfrwt beam="1">  1        1 0.12752480E+00 0.11232503E+04</pdfrwt>
<pdfrwt beam="2">  1       -1 0.58542560E-01 0.11232503E+04</pdfrwt>
<totfact> 0.61406889E+01</totfact>
</mgrwt>
</event>
<event>
 6    1  0.1028026E-006  0.3623522E+04  0.7818608E-02  0.8085125E-01
         -2   -1    0    0    0  501 -0.00000000000E+00  0.00000000000E+00  0.10718004318E+04  0.10718004318E+04  0.00000000000E+00 0.  1.
          2   -1    0    0  501    0  0.00000000000E+00 -0.00000000000E+00 -0.30625823362E+04  0.30625823362E+04  0.00000000000E+00 0. -1.
         23    2    1    2    0    0  0.85582020723E+03  0.77623178543E+03 -0.25865543069E+04  0.28344178580E+04  0.93259847248E+02 0.  0.
         11    1    3    3    0    0  0.57549325740E+03  0.46298057843E+03 -0.16727330028E+04  0.18285456526E+04  0.00000000000E+00 0.  1.
        -11    1    3    3    0    0  0.28032694983E+03  0.31325120700E+03 -0.91382130415E+03  0.10058722053E+04  0.00000000000E+00 0. -1.
         22    1    1    2    0    0 -0.85582020723E+03 -0.77623178543E+03  0.59577240243E+03  0.12999649100E+04  0.00000000000E+00 0.  1.
<mgrwt>
<rscale>  0 0.36235215E+04</rscale>
<asrwt>0</asrwt>
<pdfrwt beam="1">  1        2 0.47116652E+00 0.36235215E+04</pdfrwt>
<pdfrwt beam="2">  1       -2 0.16489237E+00 0.36235215E+04</pdfrwt>
<totfact> 0.29970969E-01</totfact>
</mgrwt>
</event>
<event>
 6    1  0.1028026E-006  0.1691831E+04  0.7818608E-02  0.8766037E-01
          2   -1    0    0  501    0  0.00000000000E+00  0.00000000000E+00  0.11640458773E+04  0.11640458773E+04  0.00000000000E+00 0. -1.
         -2   -1    0    0    0  501 -0.00000000000E+00 -0.00000000000E+00 -0.61472930705E+03  0.61472930705E+03  0.00000000000E+00 0.  1.
         23    2    1    2    0    0 -0.13652391268E+03 -0.81138428466E+03  0.47059771822E+03  0.95222821426E+03  0.91066588388E+02 0.  0.
         13    1    3    3    0    0 -0.69304378817E+02 -0.40816601548E+03  0.18440429903E+03  0.45321908457E+03  0.00000000000E+00 0.  1.
        -13    1    3    3    0    0 -0.67219533866E+02 -0.40321826918E+03  0.28619341919E+03  0.49900912970E+03  0.00000000000E+00 0. -1.
         22    1    1    2    0    0  0.13652391268E+03  0.81138428466E+03  0.78718852049E+02  0.82654697011E+03  0.00000000000E+00 0.  1.
<mgrwt>
<rscale>  0 0.16918311E+04</rscale>
<asrwt>0</asrwt>
<pdfrwt beam="1">  1        2 0.17908398E+00 0.16918311E+04</pdfrwt>
<pdfrwt beam="2">  1       -2 0.94573740E-01 0.16918311E+04</pdfrwt>
<totfact> 0.17856782E+01</totfact>
</mgrwt>
</event>
<event>
 6    1  0.1028026E-006  0.1791859E+04  0.7818608E-02  0.8710641E-01
         -2   -1    0    0    0  501 -0.00000000000E+00  0.00000000000E+00  0.44898659271E+03  0.44898659271E+03  0.00000000000E+00 0.  1.
          2   -1    0    0  501    0  0.00000000000E+00 -0.00000000000E+00 -0.17877805841E+04  0.17877805841E+04  0.00000000000E+00 0. -1.
         23    2    1    2    0    0 -0.79146133555E+03  0.11149499089E+03 -0.16964720016E+03  0.82052341315E+03  0.75075430988E+02 0.  0.
         13    1    3    3    0    0 -0.46121829934E+03  0.96319193629E+02 -0.12015401187E+03  0.48624756377E+03  0.00000000000E+00 0.  1.
        -13    1    3    3    0    0 -0.33024303621E+03  0.15175797259E+02 -0.49493188287E+02  0.33427584937E+03  0.00000000000E+00 0. -1.
         22    1    1    2    0    0  0.79146133555E+03 -0.11149499089E+03 -0.11691467913E+04  0.14162437637E+04  0.00000000000E+00 0.  1.
<mgrwt>
<rscale>  0 0.17918588E+04</rscale>
<asrwt>0</asrwt>
<pdfrwt beam="1">  1        2 0.27504316E+00 0.17918588E+04</pdfrwt>
<pdfrwt beam="2">  1       -2 0.69074861E-01 0.17918588E+04</pdfrwt>
<totfact> 0.15843500E+01</totfact>
</mgrwt>
</event>
<event>
 6    1  0.1028026E-006  0.3793823E+04  0.7818608E-02  0.8047482E-01
         -2   -1    0    0    0  501 -0.00000000000E+00  0.00000000000E+00  0.14639093516E+04  0.14639093516E+04  0.00000000000E+00 0.  1.
          2   -1    0    0  501    0  0.00000000000E+00 -0.00000000000E+00 -0.24579888423E+04  0.24579888423E+04  0.00000000000E+00 0. -1.
         23    2    1    2    0    0 -0.73233336000E+03 -0.10738893862E+03 -0.23016526458E+04  0.24193696284E+04  0.88881732755E+02 0.  0.
         13    1    3    3    0    0 -0.36420972035E+03 -0.22077677920E+02 -0.10275113987E+04  0.10903741646E+04  0.00000000000E+00 0.  1.
        -13    1    3    3    0    0 -0.36812363964E+03 -0.85311260703E+02 -0.12741412471E+04  0.13289954638E+04  0.00000000000E+00 0. -1.
         22    1    1    2    0    0  0.73233336000E+03  0.10738893862E+03  0.13075731551E+04  0.15025285656E+04  0.00000000000E+00 0.  1.
<mgrwt>
<rscale>  0 0.37938228E+04</rscale>
<asrwt>0</asrwt>
<pdfrwt beam="1">  1        2 0.37815212E+00 0.37938228E+04</pdfrwt>
<pdfrwt beam="2">  1       -2 0.22521683E+00 0.37938228E+04</pdfrwt>
<totfact> 0.27057408E-01</totfact>
</mgrwt>
</event>
<event>
 6    1  0.1028026E-006  0.2759674E+04  0.7818608E-02  0.8315899E-01
          2   -1    0    0  501    0  0.00000000000E+00  0.00000000000E+00  0.21496657996E+04  0.21496657996E+04  0.00000000000E+00 0. -1.
         -2   -1    0    0    0  501 -0.00000000000E+00 -0.00000000000E+00 -0.88569568538E+03  0.88569568538E+03  0.00000000000E+00 0.  1.
         23    2    1    2    0    0 -0.61965518788E+03  0.13279056477E+03 -0.71346841372E+03  0.95885744748E+03  0.93619128763E+02 0.  0.
         13    1    3    3    0    0 -0.18358231088E+03  0.17702881918E+02 -0.26472496959E+03  0.32263782547E+03  0.00000000000E+00 0.  1.
        -13    1    3    3    0    0 -0.43607287699E+03  0.11508768285E+03 -0.44874344413E+03  0.63621962202E+03  0.00000000000E+00 0. -1.
         22    1    1    2    0    0  0.61965518788E+03 -0.13279056477E+03  0.19774385279E+04  0.20765040375E+04  0.00000000000E+00 0. -1.
<mgrwt>
<rscale>  0 0.27596737E+04</rscale>
<asrwt>0</asrwt>
<pdfrwt beam="1">  1        2 0.33071781E+00 0.27596737E+04</pdfrwt>
<pdfrwt beam="2">  1       -2 0.13626088E+00 0.27596737E+04</pdfrwt>
<totfact> 0.18535252E+00</totfact>
</mgrwt>
</event>
<event>
 6    1  0.1028026E-006  0.2692516E+04  0.7818608E-02  0.8337437E-01
         -1   -1    0    0    0  501 -0.00000000000E+00  0.00000000000E+00  0.87259413688E+03  0.87259413688E+03  0.00000000000E+00 0.  1.
          1   -1    0    0  501    0  0.00000000000E+00 -0.00000000000E+00 -0.20770377212E+04  0.20770377212E+04  0.00000000000E+00 0. -1.
         23    2    1    2    0    0 -0.10215704030E+04 -0.20429940733E+03  0.32924214311E+03  0.10955724614E+04  0.80834974937E+02 0.  0.
         11    1    3    3    0    0 -0.70979309020E+03 -0.16938456222E+03  0.25679742733E+03  0.77359051151E+03  0.00000000000E+00 0. -1.
        -11    1    3    3    0    0 -0.31177731280E+03 -0.34914845106E+02  0.72444715778E+02  0.32198194985E+03  0.00000000000E+00 0.  1.
         22    1    1    2    0    0  0.10215704030E+04  0.20429940733E+03 -0.15336857274E+04  0.18540593967E+04  0.00000000000E+00 0. -1.
<mgrwt>
<rscale>  0 0.26925162E+04</rscale>
<asrwt>0</asrwt>
<pdfrwt beam="1">  1        1 0.31954427E+00 0.26925162E+04</pdfrwt>
<pdfrwt beam="2">  1       -1 0.13424525E+00 0.26925162E+04</pdfrwt>
<totfact> 0.10784142E+00</totfact>
</mgrwt>
</event>
<event>
 6    1  0.1028026E-006  0.2333134E+04  0.7818608E-02  0.8464970E-01
         -2   -1    0    0    0  501 -0.00000000000E+00  0.00000000000E+00  0.68784981499E+03  0.68784981499E+03  0.00000000000E+00 0.  1.
          2   -1    0    0  501    0  0.00000000000E+00 -0.00000000000E+00 -0.19784522883E+04  0.19784522883E+04  0.00000000000E+00 0. -1.
         23    2    1    2    0    0 -0.11029798893E+04 -0.29350199192E+03 -0.91189251300E+03  0.14637509445E+04  0.91163682430E+02 0.  0.
         13    1    3    3    0    0 -0.56570435620E+03 -0.11710706899E+03 -0.50190790917E+03  0.76527578920E+03  0.00000000000E+00 0.  1.
        -13    1    3    3    0    0 -0.53727553307E+03 -0.17639492293E+03 -0.40998460382E+03  0.69847515535E+03  0.00000000000E+00 0. -1.
         22    1    1    2    0    0  0.11029798893E+04  0.29350199192E+03 -0.37870996032E+03  0.12025511588E+04  0.00000000000E+00 0. -1.
<mgrwt>
<rscale>  0 0.23331335E+04</rscale>
<asrwt>0</asrwt>
<pdfrwt beam="1">  1        2 0.30437727E+00 0.23331335E+04</pdfrwt>
<pdfrwt beam="2">  1       -2 0.10582305E+00 0.23331335E+04</pdfrwt>
<totfact> 0.44797896E+00</totfact>
</mgrwt>
</event>
<event>
 6    1  0.1028026E-006  0.1635530E+04  0.7818608E-02  0.8799013E-01
          2   -1    0    0  501    0  0.00000000000E+00  0.00000000000E+00  0.12832929481E+04  0.12832929481E+04  0.00000000000E+00 0. -1.
         -2   -1    0    0    0  501 -0.00000000000E+00 -0.00000000000E+00 -0.52111242308E+03  0.52111242308E+03  0.00000000000E+00 0.  1.
         23    2    1    2    0    0  0.32202323693E+03 -0.54272801733E+03 -0.18721761045E+03  0.66440121086E+03  0.90143604408E+02 0.  0.
         11    1    3    3    0    0  0.18255907775E+03 -0.36332415935E+03 -0.85818467157E+02  0.41556837095E+03  0.00000000000E+00 0. -1.
        -11    1    3    3    0    0  0.13946415919E+03 -0.17940385798E+03 -0.10139914329E+03  0.24883283991E+03  0.00000000000E+00 0.  1.
         22    1    1    2    0    0 -0.32202323693E+03  0.54272801733E+03  0.94939813549E+03  0.11400041603E+04  0.00000000000E+00 0. -1.
<mgrwt>
<rscale>  0 0.16355304E+04</rscale>
<asrwt>0</asrwt>
<pdfrwt beam="1">  1        2 0.19742968E+00 0.16355304E+04</pdfrwt>
<pdfrwt beam="2">  1       -2 0.80171143E-01 0.16355304E+04</pdfrwt>
<totfact> 0.22245285E+01</totfact>
</mgrwt>
</event>
<event>
 6    1  0.1028026E-006  0.1838014E+04  0.7818608E-02  0.8686341E-01
         -1   -1    0    0    0  501 -0.00000000000E+00  0.00000000000E+00  0.13371836268E+04  0.13371836268E+04  0.00000000000E+00 0.  1.
          1   -1    0    0  501    0  0.00000000000E+00 -0.00000000000E+00 -0.63160632498E+03  0.63160632498E+03  0.00000000000E+00 0. -1.
         23    2    1    2    0    0  0.17718721795E+03 -0.89154820460E+03  0.48143598721E+03  0.10325779884E+04  0.90460936743E+02 0.  0.
         13    1    3    3    0    0  0.46798029547E+02 -0.21398944204E+03  0.73666341734E+02  0.23110228640E+03  0.00000000000E+00 0. -1.
        -13    1    3    3    0    0  0.13038918840E+03 -0.67755876257E+03  0.40776964547E+03  0.80147570203E+03  0.00000000000E+00 0.  1.
         22    1    1    2    0    0 -0.17718721795E+03  0.89154820460E+03  0.22414131458E+03  0.93621196331E+03  0.00000000000E+00 0. -1.
<mgrwt>
<rscale>  0 0.18380138E+04</rscale>
<asrwt>0</asrwt>
<pdfrwt beam="1">  1        1 0.97170204E-01 0.18380138E+04</pdfrwt>
<pdfrwt beam="2">  1       -1 0.20572056E+00 0.18380138E+04</pdfrwt>
<totfact> 0.41082809E+00</totfact>
</mgrwt>
</event>
<event>
 6    1  0.1028026E-006  0.1466795E+04  0.7818608E-02  0.8906839E-01
          1   -1    0    0  501    0  0.00000000000E+00  0.00000000000E+00  0.17323174312E+04  0.17323174312E+04  0.00000000000E+00 0. -1.
         -1   -1    0    0    0  501 -0.00000000000E+00 -0.00000000000E+00 -0.31049253156E+03  0.31049253156E+03  0.00000000000E+00 0.  1.
         23    2    1    2    0    0  0.31426881239E+03  0.49396123305E+03  0.13223598354E+04  0.14489615939E+04  0.89953210384E+02 0.  0.
         13    1    3    3    0    0  0.20622388261E+03  0.30950231090E+03  0.73145426314E+03  0.82057620564E+03  0.00000000000E+00 0. -1.
        -13    1    3    3    0    0  0.10804492978E+03  0.18445892215E+03  0.59090557229E+03  0.62838538826E+03  0.00000000000E+00 0.  1.
         22    1    1    2    0    0 -0.31426881239E+03 -0.49396123305E+03  0.99465064218E+02  0.59384836886E+03  0.00000000000E+00 0.  1.
<mgrwt>
<rscale>  0 0.14667946E+04</rscale>
<asrwt>0</asrwt>
<pdfrwt beam="1">  1        1 0.26651037E+00 0.14667946E+04</pdfrwt>
<pdfrwt beam="2">  1       -1 0.47768083E-01 0.14667946E+04</pdfrwt>
<totfact> 0.19236430E+01</totfact>
</mgrwt>
</event>
<event>
 6    1  0.1028026E-006  0.1959507E+04  0.7818608E-02  0.8625790E-01
          2   -1    0    0  501    0  0.00000000000E+00  0.00000000000E+00  0.15740187410E+04  0.15740187410E+04  0.00000000000E+00 0. -1.
         -2   -1    0    0    0  501 -0.00000000000E+00 -0.00000000000E+00 -0.60985123649E+03  0.60985123649E+03  0.00000000000E+00 0.  1.
         23    2    1    2    0    0 -0.75445053117E+03  0.25504971241E+03 -0.14879316297E+03  0.81532059688E+03  0.91445670018E+02 0.  0.
         11    1    3    3    0    0 -0.46015165634E+03  0.18247284187E+03 -0.55172874397E+02  0.49807623003E+03  0.00000000000E+00 0.  1.
        -11    1    3    3    0    0 -0.29429887483E+03  0.72576870535E+02 -0.93620288578E+02  0.31724436685E+03  0.00000000000E+00 0. -1.
         22    1    1    2    0    0  0.75445053117E+03 -0.25504971241E+03  0.11129606675E+04  0.13685493806E+04  0.00000000000E+00 0. -1.
<mgrwt>
<rscale>  0 0.19595074E+04</rscale>
<asrwt>0</asrwt>
<pdfrwt beam="1">  1        2 0.24215673E+00 0.19595074E+04</pdfrwt>
<pdfrwt beam="2">  1       -2 0.93823268E-01 0.19595074E+04</pdfrwt>
<totfact> 0.10314814E+01</totfact>
</mgrwt>
</event>
<event>
 6    1  0.1028026E-006  0.5618208E+03  0.7818608E-02  0.9987943E-01
          2   -1    0    0  501    0  0.00000000000E+00  0.00000000000E+00  0.63168195084E+03  0.63168195084E+03  0.00000000000E+00 0. -1.
         -2   -1    0    0    0  501 -0.00000000000E+00 -0.00000000000E+00 -0.12492150642E+03  0.12492150642E+03  0.00000000000E+00 0.  1.
         23    2    1    2    0    0 -0.49684438269E+02 -0.18987394197E+03  0.51573766811E+03  0.56013145470E+03  0.96131404836E+02 0.  0.
         11    1    3    3    0    0  0.70925033637E+01 -0.91915163713E+02  0.13936091480E+03  0.16709328382E+03  0.00000000000E+00 0.  1.
        -11    1    3    3    0    0 -0.56776941633E+02 -0.97958778255E+02  0.37637675330E+03  0.39303817088E+03  0.00000000000E+00 0. -1.
         22    1    1    2    0    0  0.49684438269E+02  0.18987394197E+03 -0.89772236925E+01  0.19647200256E+03  0.00000000000E+00 0.  1.
<mgrwt>
<rscale>  0 0.56182083E+03</rscale>
<asrwt>0</asrwt>
<pdfrwt beam="1">  1        2 0.97181837E-01 0.56182083E+03</pdfrwt>
<pdfrwt beam="2">  1       -2 0.19218694E-01 0.56182083E+03</pdfrwt>
<totfact> 0.10693061E+03</totfact>
</mgrwt>
</event>
<event>
 6    1  0.1028026E-006  0.7891021E+03  0.7818608E-02  0.9575927E-01
         -2   -1    0    0    0  501 -0.00000000000E+00  0.00000000000E+00  0.57536375838E+02  0.57536375838E+02  0.00000000000E+00 0.  1.
          2   -1    0    0  501    0  0.00000000000E+00 -0.00000000000E+00 -0.27056018011E+04  0.27056018011E+04  0.00000000000E+00 0. -1.
         23    2    1    2    0    0 -0.33828734064E+03 -0.54282040204E+02 -0.19861810614E+04  0.20178357042E+04  0.96751515802E+02 0.  0.
         11    1    3    3    0    0 -0.13178123316E+03 -0.63581900042E+02 -0.69763936547E+03  0.71281809438E+03  0.00000000000E+00 0. -1.
        -11    1    3    3    0    0 -0.20650610749E+03  0.92998598380E+01 -0.12885416959E+04  0.13050176098E+04  0.00000000000E+00 0.  1.
         22    1    1    2    0    0  0.33828734064E+03  0.54282040204E+02 -0.66188436390E+03  0.74530247276E+03  0.00000000000E+00 0.  1.
<mgrwt>
<rscale>  0 0.78910208E+03</rscale>
<asrwt>0</asrwt>
<pdfrwt beam="1">  1        2 0.41624649E+00 0.78910208E+03</pdfrwt>
<pdfrwt beam="2">  1       -2 0.88517489E-02 0.78910208E+03</pdfrwt>
<totfact> 0.22934315E+02</totfact>
</mgrwt>
</event>
<event>
 6    1  0.1028026E-006  0.3699809E+04  0.7818608E-02  0.8068004E-01
          2   -1    0    0  501    0  0.00000000000E+00  0.00000000000E+00  0.16855528938E+04  0.16855528938E+04  0.00000000000E+00 0. -1.
         -2   -1    0    0    0  501 -0.00000000000E+00 -0.00000000000E+00 -0.20302814930E+04  0.20302814930E+04  0.00000000000E+00 0.  1.
         23    2    1    2    0    0  0.92900094207E+03  0.73979920795E+03  0.12506180557E+04  0.17269963924E+04  0.90140997469E+02 0.  0.
         13    1    3    3    0    0  0.64381548112E+03  0.53976770499E+03  0.93395542177E+03  0.12562325736E+04  0.00000000000E+00 0. -1.
        -13    1    3    3    0    0  0.28518546095E+03  0.20003150296E+03  0.31666263397E+03  0.47076381877E+03  0.00000000000E+00 0.  1.
         22    1    1    2    0    0 -0.92900094207E+03 -0.73979920795E+03 -0.15953466550E+04  0.19888379944E+04  0.00000000000E+00 0.  1.
<mgrwt>
<rscale>  0 0.36998091E+04</rscale>
<asrwt>0</asrwt>
<pdfrwt beam="1">  1        2 0.25931583E+00 0.36998091E+04</pdfrwt>
<pdfrwt beam="2">  1       -2 0.31235100E+00 0.36998091E+04</pdfrwt>
<totfact> 0.21554040E-01</totfact>
</mgrwt>
</event>
<event>
 6    1  0.1028026E-006  0.7589027E+03  0.7818608E-02  0.9621486E-01
          2   -1    0    0  501    0  0.00000000000E+00  0.00000000000E+00  0.95079139217E+03  0.95079139217E+03  0.00000000000E+00 0. -1.
         -2   -1    0    0    0  501 -0.00000000000E+00 -0.00000000000E+00 -0.15143524205E+03  0.15143524205E+03  0.00000000000E+00 0.  1.
         23    2    1    2    0    0  0.98097694559E+02 -0.30782066142E+03  0.67916445974E+03  0.75751986070E+03  0.90527668197E+02 0.  0.
         13    1    3    3    0    0  0.85817991267E+02 -0.14412625881E+03  0.39867324198E+03  0.43252451951E+03  0.00000000000E+00 0. -1.
        -13    1    3    3    0    0  0.12279703293E+02 -0.16369440260E+03  0.28049121776E+03  0.32499534119E+03  0.00000000000E+00 0.  1.
         22    1    1    2    0    0 -0.98097694559E+02  0.30782066142E+03  0.12019169038E+03  0.34470677352E+03  0.00000000000E+00 0.  1.
<mgrwt>
<rscale>  0 0.75890269E+03</rscale>
<asrwt>0</asrwt>
<pdfrwt beam="1">  1        2 0.14627560E+00 0.75890269E+03</pdfrwt>
<pdfrwt beam="2">  1       -2 0.23297730E-01 0.75890269E+03</pdfrwt>
<totfact> 0.44383184E+02</totfact>
</mgrwt>
</event>
<event>
 6    1  0.1028026E-006  0.1151924E+04  0.7818608E-02  0.9156010E-01
          1   -1    0    0  501    0  0.00000000000E+00  0.00000000000E+00  0.11287175999E+04  0.11287175999E+04  0.00000000000E+00 0. -1.
         -1   -1    0    0    0  501 -0.00000000000E+00 -0.00000000000E+00 -0.29390211085E+03  0.29390211085E+03  0.00000000000E+00 0.  1.
         23    2    1    2    0    0  0.52807752295E+03  0.18120488786E+03  0.26476192197E+03  0.62470859354E+03  0.91982986936E+02 0.  0.
         13    1    3    3    0    0  0.25687316653E+03  0.45454903303E+02  0.14649100016E+03  0.29918152525E+03  0.00000000000E+00 0.  1.
        -13    1    3    3    0    0  0.27120435642E+03  0.13574998455E+03  0.11827092181E+03  0.32552706829E+03  0.00000000000E+00 0. -1.
         22    1    1    2    0    0 -0.52807752295E+03 -0.18120488786E+03  0.57005356706E+03  0.79791111720E+03  0.00000000000E+00 0.  1.
<mgrwt>
<rscale>  0 0.11519245E+04</rscale>
<asrwt>0</asrwt>
<pdfrwt beam="1">  1        1 0.17364886E+00 0.11519245E+04</pdfrwt>
<pdfrwt beam="2">  1       -1 0.45215710E-01 0.11519245E+04</pdfrwt>
<totfact> 0.58124473E+01</totfact>
</mgrwt>
</event>
<event>
 6    1  0.1028026E-006  0.2815216E+04  0.7818608E-02  0.8298560E-01
          1   -1    0    0  501    0  0.00000000000E+00  0.00000000000E+00  0.23451609271E+04  0.23451609271E+04  0.00000000000E+00 0. -1.
         -1   -1    0    0    0  501 -0.00000000000E+00 -0.00000000000E+00 -0.84487201174E+03  0.84487201174E+03  0.00000000000E+00 0.  1.
         23    2    1    2    0    0 -0.48918637187E+03  0.12775014558E+04  0.11199372777E+04  0.17701806070E+04  0.89255809787E+02 0.  0.
         13    1    3    3    0    0 -0.42585445989E+03  0.10136739734E+04  0.89210812135E+03  0.14158897717E+04  0.00000000000E+00 0. -1.
        -13    1    3    3    0    0 -0.63331911979E+02  0.26382748233E+03  0.22782915634E+03  0.35429083531E+03  0.00000000000E+00 0.  1.
         22    1    1    2    0    0  0.48918637187E+03 -0.12775014558E+04  0.38035163765E+03  0.14198523318E+04  0.00000000000E+00 0. -1.
<mgrwt>
<rscale>  0 0.28152164E+04</rscale>
<asrwt>0</asrwt>
<pdfrwt beam="1">  1        1 0.36079399E+00 0.28152164E+04</pdfrwt>
<pdfrwt beam="2">  1       -1 0.12998031E+00 0.28152164E+04</pdfrwt>
<totfact> 0.75990199E-01</totfact>
</mgrwt>
</event>
<event>
 6    1  0.1028026E-006  0.9152560E+03  0.7818608E-02  0.9406709E-01
         -2   -1    0    0    0  501 -0.00000000000E+00  0.00000000000E+00  0.79128690710E+02  0.79128690710E+02  0.00000000000E+00 0.  1.
          2   -1    0    0  501    0  0.00000000000E+00 -0.00000000000E+00 -0.26466173459E+04  0.26466173459E+04  0.00000000000E+00 0. -1.
         23    2    1    2    0    0  0.34440257522E+02 -0.17352093274E+03 -0.25382078389E+04  0.25464334279E+04  0.10260859495E+03 0.  0.
         11    1    3    3    0    0  0.63439698789E+02 -0.16032722316E+03 -0.20967811359E+04  0.21038584900E+04  0.00000000000E+00 0. -1.
        -11    1    3    3    0    0 -0.28999441268E+02 -0.13193709577E+02 -0.44142670296E+03  0.44257493789E+03  0.00000000000E+00 0.  1.
         22    1    1    2    0    0 -0.34440257522E+02  0.17352093274E+03 -0.29280816265E+02  0.17931260870E+03  0.00000000000E+00 0.  1.
<mgrwt>
<rscale>  0 0.91525595E+03</rscale>
<asrwt>0</asrwt>
<pdfrwt beam="1">  1        2 0.40717186E+00 0.91525595E+03</pdfrwt>
<pdfrwt beam="2">  1       -2 0.12173646E-01 0.91525595E+03</pdfrwt>
<totfact> 0.14555912E+02</totfact>
</mgrwt>
</event>
<event>
 6    1  0.1028026E-006  0.1975952E+04  0.7818608E-02  0.8617947E-01
          2   -1    0    0  501    0  0.00000000000E+00  0.00000000000E+00  0.12048552829E+04  0.12048552829E+04  0.00000000000E+00 0. -1.
         -2   -1    0    0    0  501 -0.00000000000E+00 -0.00000000000E+00 -0.81013583742E+03  0.81013583742E+03  0.00000000000E+00 0.  1.
         23    2    1    2    0    0 -0.90619961139E+03  0.28091082640E+03  0.47120874993E+03  0.10631722080E+04  0.90492153668E+02 0.  0.
         13    1    3    3    0    0 -0.36708848947E+03  0.98444434239E+02  0.23573472225E+03  0.44723162344E+03  0.00000000000E+00 0. -1.
        -13    1    3    3    0    0 -0.53911112192E+03  0.18246639216E+03  0.23547402768E+03  0.61594058460E+03  0.00000000000E+00 0.  1.
         22    1    1    2    0    0  0.90619961139E+03 -0.28091082640E+03 -0.76489304446E+02  0.95181891228E+03  0.00000000000E+00 0.  1.
<mgrwt>
<rscale>  0 0.19759519E+04</rscale>
<asrwt>0</asrwt>
<pdfrwt beam="1">  1        2 0.18536235E+00 0.19759519E+04</pdfrwt>
<pdfrwt beam="2">  1       -2 0.12463628E+00 0.19759519E+04</pdfrwt>
<totfact> 0.84605435E+00</totfact>
</mgrwt>
</event>
<event>
 6    1  0.1028026E-006  0.1491249E+04  0.7818608E-02  0.8890293E-01
         -2   -1    0    0    0  501 -0.00000000000E+00  0.00000000000E+00  0.93115910177E+03  0.93115910177E+03  0.00000000000E+00 0.  1.
          2   -1    0    0  501    0  0.00000000000E+00 -0.00000000000E+00 -0.59705766893E+03  0.59705766893E+03  0.00000000000E+00 0. -1.
         23    2    1    2    0    0 -0.26607980090E+03  0.58425387025E+03 -0.21521746641E+03  0.68328937831E+03  0.91732062599E+02 0.  0.
         13    1    3    3    0    0 -0.11715561853E+03  0.33689143288E+03 -0.85665232670E+02  0.36682394768E+03  0.00000000000E+00 0. -1.
        -13    1    3    3    0    0 -0.14892418237E+03  0.24736243737E+03 -0.12955223374E+03  0.31646543063E+03  0.00000000000E+00 0.  1.
         22    1    1    2    0    0  0.26607980090E+03 -0.58425387025E+03  0.54931889926E+03  0.84492739240E+03  0.00000000000E+00 0.  1.
<mgrwt>
<rscale>  0 0.14912487E+04</rscale>
<asrwt>0</asrwt>
<pdfrwt beam="1">  1        2 0.91855026E-01 0.14912487E+04</pdfrwt>
<pdfrwt beam="2">  1       -2 0.14325525E+00 0.14912487E+04</pdfrwt>
<totfact> 0.16305781E+01</totfact>
</mgrwt>
</event>
<event>
 6    1  0.1028026E-006  0.2556214E+04  0.7818608E-02  0.8383228E-01
          2   -1    0    0  501    0  0.00000000000E+00  0.00000000000E+00  0.39881834459E+04  0.39881834459E+04  0.00000000000E+00 0. -1.
         -2   -1    0    0    0  501 -0.00000000000E+00 -0.00000000000E+00 -0.40959951054E+03  0.40959951054E+03  0.00000000000E+00 0.  1.
         23    2    1    2    0    0 -0.36535245798E+03  0.61162043250E+03 -0.30844200550E+02  0.71871603122E+03  0.89662683529E+02 0.  0.
         13    1    3    3    0    0 -0.53804597162E+02  0.11102273150E+03 -0.37844950787E+02  0.12904736295E+03  0.00000000000E+00 0. -1.
        -13    1    3    3    0    0 -0.31154786082E+03  0.50059770101E+03  0.70007502370E+01  0.58966866827E+03  0.00000000000E+00 0.  1.
         22    1    1    2    0    0  0.36535245798E+03 -0.61162043250E+03  0.36094281359E+04  0.36790669252E+04  0.00000000000E+00 0. -1.
<mgrwt>
<rscale>  0 0.25562144E+04</rscale>
<asrwt>0</asrwt>
<pdfrwt beam="1">  1        2 0.61356666E+00 0.25562144E+04</pdfrwt>
<pdfrwt beam="2">  1       -2 0.63015312E-01 0.25562144E+04</pdfrwt>
<totfact> 0.72648579E-01</totfact>
</mgrwt>
</event>
<event>
 6    1  0.1028026E-006  0.1583591E+04  0.7818608E-02  0.8830692E-01
         -2   -1    0    0    0  501 -0.00000000000E+00  0.00000000000E+00  0.49042092514E+03  0.49042092514E+03  0.00000000000E+00 0.  1.
          2   -1    0    0  501    0  0.00000000000E+00 -0.00000000000E+00 -0.12783719503E+04  0.12783719503E+04  0.00000000000E+00 0. -1.
         23    2    1    2    0    0  0.52837159114E+03 -0.47215272234E+03 -0.71031489039E+01  0.71436026147E+03  0.90307236159E+02 0.  0.
         13    1    3    3    0    0  0.18331111294E+03 -0.22078509459E+03 -0.15279078459E+02  0.28737166241E+03  0.00000000000E+00 0.  1.
        -13    1    3    3    0    0  0.34506047820E+03 -0.25136762775E+03  0.81759295547E+01  0.42698859906E+03  0.00000000000E+00 0. -1.
         22    1    1    2    0    0 -0.52837159114E+03  0.47215272234E+03 -0.78084787623E+03  0.10544326139E+04  0.00000000000E+00 0. -1.
<mgrwt>
<rscale>  0 0.15835913E+04</rscale>
<asrwt>0</asrwt>
<pdfrwt beam="1">  1        2 0.19667261E+00 0.15835913E+04</pdfrwt>
<pdfrwt beam="2">  1       -2 0.75449373E-01 0.15835913E+04</pdfrwt>
<totfact> 0.25752541E+01</totfact>
</mgrwt>
</event>
<event>
 6    1  0.1028026E-006  0.2462880E+04  0.7818608E-02  0.8416330E-01
         -4   -1    0    0    0  501 -0.00000000000E+00  0.00000000000E+00  0.12232851844E+04  0.12232851844E+04  0.00000000000E+00 0.  1.
          4   -1    0    0  501    0  0.00000000000E+00 -0.00000000000E+00 -0.12396491561E+04  0.12396491561E+04  0.00000000000E+00 0. -1.
         23    2    1    2    0    0 -0.63850865575E+03  0.10352961886E+04  0.17282017312E+03  0.12319501236E+04  0.91119663502E+02 0.  0.
         11    1    3    3    0    0 -0.25972389328E+03  0.35440895071E+03  0.88848615137E+02  0.44828147574E+03  0.00000000000E+00 0. -1.
        -11    1    3    3    0    0 -0.37878476248E+03  0.68088723791E+03  0.83971557985E+02  0.78366864783E+03  0.00000000000E+00 0.  1.
         22    1    1    2    0    0  0.63850865575E+03 -0.10352961886E+04 -0.18918414485E+03  0.12309842169E+04  0.00000000000E+00 0. -1.
<mgrwt>
<rscale>  0 0.24628800E+04</rscale>
<asrwt>0</asrwt>
<pdfrwt beam="1">  1        4 0.19071525E+00 0.24628800E+04</pdfrwt>
<pdfrwt beam="2">  1       -4 0.18819772E+00 0.24628800E+04</pdfrwt>
<totfact> 0.42778152E-02</totfact>
</mgrwt>
</event>
<event>
 6    1  0.1028026E-006  0.2935731E+04  0.7818608E-02  0.8262325E-01
         -1   -1    0    0    0  501 -0.00000000000E+00  0.00000000000E+00  0.20016192302E+04  0.20016192302E+04  0.00000000000E+00 0.  1.
          1   -1    0    0  501    0  0.00000000000E+00 -0.00000000000E+00 -0.10764427358E+04  0.10764427358E+04  0.00000000000E+00 0. -1.
         23    2    1    2    0    0 -0.37833573114E+03  0.12962271865E+04 -0.13667689231E+03  0.13602507251E+04  0.90876938213E+02 0.  0.
         13    1    3    3    0    0 -0.22997410519E+03  0.62826359700E+03 -0.59573173515E+02  0.67167864293E+03  0.00000000000E+00 0.  1.
        -13    1    3    3    0    0 -0.14836162595E+03  0.66796358949E+03 -0.77103718792E+02  0.68857208221E+03  0.00000000000E+00 0. -1.
         22    1    1    2    0    0  0.37833573114E+03 -0.12962271865E+04  0.10618533866E+04  0.17178112409E+04  0.00000000000E+00 0.  1.
<mgrwt>
<rscale>  0 0.29357306E+04</rscale>
<asrwt>0</asrwt>
<pdfrwt beam="1">  1        1 0.16560658E+00 0.29357306E+04</pdfrwt>
<pdfrwt beam="2">  1       -1 0.30794142E+00 0.29357306E+04</pdfrwt>
<totfact> 0.33149045E-01</totfact>
</mgrwt>
</event>
<event>
 6    1  0.1028026E-006  0.1498454E+04  0.7818608E-02  0.8885482E-01
         -1   -1    0    0    0  501 -0.00000000000E+00  0.00000000000E+00  0.44698972684E+03  0.44698972684E+03  0.00000000000E+00 0.  1.
          1   -1    0    0  501    0  0.00000000000E+00 -0.00000000000E+00 -0.12558257653E+04  0.12558257653E+04  0.00000000000E+00 0. -1.
         23    2    1    2    0    0 -0.52175332473E+03 -0.48691605778E+03 -0.15708896490E+03  0.73633319687E+03  0.90530960033E+02 0.  0.
         13    1    3    3    0    0 -0.31797497947E+03 -0.33958769897E+03 -0.13225264206E+03  0.48365137671E+03  0.00000000000E+00 0.  1.
        -13    1    3    3    0    0 -0.20377834525E+03 -0.14732835881E+03 -0.24836322837E+02  0.25268182016E+03  0.00000000000E+00 0. -1.
         22    1    1    2    0    0  0.52175332473E+03  0.48691605778E+03 -0.65174707358E+03  0.96648229529E+03  0.00000000000E+00 0.  1.
<mgrwt>
<rscale>  0 0.14984542E+04</rscale>
<asrwt>0</asrwt>
<pdfrwt beam="1">  1        1 0.19320397E+00 0.14984542E+04</pdfrwt>
<pdfrwt beam="2">  1       -1 0.68767650E-01 0.14984542E+04</pdfrwt>
<totfact> 0.20147907E+01</totfact>
</mgrwt>
</event>
<event>
 6    1  0.1028026E-006  0.4388195E+04  0.7818608E-02  0.7930508E-01
          2   -1    0    0  501    0  0.00000000000E+00  0.00000000000E+00  0.20347907891E+04  0.20347907891E+04  0.00000000000E+00 0. -1.
         -2   -1    0    0    0  501 -0.00000000000E+00 -0.00000000000E+00 -0.23658770717E+04  0.23658770717E+04  0.00000000000E+00 0.  1.
         23    2    1    2    0    0  0.17049212002E+04 -0.41227809985E+03 -0.14857893861E+04  0.23006514828E+04  0.93261005114E+02 0.  0.
         11    1    3    3    0    0  0.62161559375E+03 -0.10542038726E+03 -0.52049955656E+03  0.81758130655E+03  0.00000000000E+00 0. -1.
        -11    1    3    3    0    0  0.10833056065E+04 -0.30685771259E+03 -0.96528982956E+03  0.14830701763E+04  0.00000000000E+00 0.  1.
         22    1    1    2    0    0 -0.17049212002E+04  0.41227809985E+03  0.11547031035E+04  0.21000163780E+04  0.00000000000E+00 0. -1.
<mgrwt>
<rscale>  0 0.43881955E+04</rscale>
<asrwt>0</asrwt>
<pdfrwt beam="1">  1        2 0.31304474E+00 0.43881955E+04</pdfrwt>
<pdfrwt beam="2">  1       -2 0.36398109E+00 0.43881955E+04</pdfrwt>
<totfact> 0.61965532E-02</totfact>
</mgrwt>
</event>
<event>
 6    1  0.1028026E-006  0.1364698E+04  0.7818608E-02  0.8979776E-01
          2   -1    0    0  501    0  0.00000000000E+00  0.00000000000E+00  0.25177199064E+04  0.25177199064E+04  0.00000000000E+00 0. -1.
         -2   -1    0    0    0  501 -0.00000000000E+00 -0.00000000000E+00 -0.18492921453E+03  0.18492921453E+03  0.00000000000E+00 0.  1.
         23    2    1    2    0    0 -0.91217784732E+02 -0.67163882032E+03  0.10822261145E+04  0.12802106683E+04  0.91140568626E+02 0.  0.
         11    1    3    3    0    0 -0.32382499822E+02 -0.43230948758E+03  0.62236690579E+03  0.75847259988E+03  0.00000000000E+00 0. -1.
        -11    1    3    3    0    0 -0.58835284910E+02 -0.23932933273E+03  0.45985920867E+03  0.52173806844E+03  0.00000000000E+00 0.  1.
         22    1    1    2    0    0  0.91217784732E+02  0.67163882032E+03  0.12505645774E+04  0.14224384526E+04  0.00000000000E+00 0. -1.
<mgrwt>
<rscale>  0 0.13646977E+04</rscale>
<asrwt>0</asrwt>
<pdfrwt beam="1">  1        2 0.38734150E+00 0.13646977E+04</pdfrwt>
<pdfrwt beam="2">  1       -2 0.28450650E-01 0.13646977E+04</pdfrwt>
<totfact> 0.37701028E+01</totfact>
</mgrwt>
</event>
<event>
 6    1  0.1289594E-006  0.3817300E+04  0.7818608E-02  0.8042453E-01
          1   -1    0    0  501    0  0.00000000000E+00  0.00000000000E+00  0.26868363386E+04  0.26868363386E+04  0.00000000000E+00 0. -1.
         -1   -1    0    0    0  501 -0.00000000000E+00 -0.00000000000E+00 -0.13558489595E+04  0.13558489595E+04  0.00000000000E+00 0.  1.
         23    2    1    2    0    0 -0.14955897620E+03 -0.14900567224E+04 -0.58549164172E+03  0.16104992936E+04  0.90942778351E+02 0.  0.
         13    1    3    3    0    0 -0.13629236187E+03 -0.99479389620E+03 -0.36759596575E+03  0.10692601638E+04  0.00000000000E+00 0.  1.
        -13    1    3    3    0    0 -0.13266614324E+02 -0.49526282621E+03 -0.21789567597E+03  0.54123912986E+03  0.00000000000E+00 0. -1.
         22    1    1    2    0    0  0.14955897620E+03  0.14900567224E+04  0.19164790208E+04  0.24321860045E+04  0.00000000000E+00 0. -1.
<mgrwt>
<rscale>  0 0.38172997E+04</rscale>
<asrwt>0</asrwt>
<pdfrwt beam="1">  1        1 0.41335944E+00 0.38172997E+04</pdfrwt>
<pdfrwt beam="2">  1       -1 0.20859215E+00 0.38172997E+04</pdfrwt>
<totfact> 0.10467108E-01</totfact>
</mgrwt>
</event>
<event>
 6    1  0.1028026E-006  0.3403259E+04  0.7818608E-02  0.8137107E-01
          2   -1    0    0  501    0  0.00000000000E+00  0.00000000000E+00  0.20553979183E+04  0.20553979183E+04  0.00000000000E+00 0. -1.
         -2   -1    0    0    0  501 -0.00000000000E+00 -0.00000000000E+00 -0.14087506960E+04  0.14087506960E+04  0.00000000000E+00 0.  1.
         23    2    1    2    0    0  0.14717791855E+04  0.42212673279E+02  0.11893145344E+04  0.18949438181E+04  0.91799408184E+02 0.  0.
         13    1    3    3    0    0  0.93100193194E+03  0.49899337904E+02  0.80066173977E+03  0.12289482344E+04  0.00000000000E+00 0.  1.
        -13    1    3    3    0    0  0.54077725360E+03 -0.76866646250E+01  0.38865279462E+03  0.66599558376E+03  0.00000000000E+00 0. -1.
         22    1    1    2    0    0 -0.14717791855E+04 -0.42212673279E+02 -0.54266731205E+03  0.15692047962E+04  0.00000000000E+00 0.  1.
<mgrwt>
<rscale>  0 0.34032592E+04</rscale>
<asrwt>0</asrwt>
<pdfrwt beam="1">  1        2 0.31621506E+00 0.34032592E+04</pdfrwt>
<pdfrwt beam="2">  1       -2 0.21673088E+00 0.34032592E+04</pdfrwt>
<totfact> 0.53437767E-01</totfact>
</mgrwt>
</event>
<event>
 6    1  0.1028026E-006  0.1944880E+04  0.7818608E-02  0.8632834E-01
          1   -1    0    0  501    0  0.00000000000E+00  0.00000000000E+00  0.18301034309E+04  0.18301034309E+04  0.00000000000E+00 0. -1.
         -1   -1    0    0    0  501 -0.00000000000E+00 -0.00000000000E+00 -0.51671358293E+03  0.51671358293E+03  0.00000000000E+00 0.  1.
         23    2    1    2    0    0 -0.72480717194E+03 -0.53284751252E+03  0.10969258605E+04  0.14215448560E+04  0.90947931398E+02 0.  0.
         13    1    3    3    0    0 -0.67518976026E+03 -0.52144529821E+03  0.10286806365E+04  0.13364019842E+04  0.00000000000E+00 0.  1.
        -13    1    3    3    0    0 -0.49617411678E+02 -0.11402214309E+02  0.68245223903E+02  0.85142871800E+02  0.00000000000E+00 0. -1.
         22    1    1    2    0    0  0.72480717194E+03  0.53284751252E+03  0.21646398749E+03  0.92527215779E+03  0.00000000000E+00 0.  1.
<mgrwt>
<rscale>  0 0.19448797E+04</rscale>
<asrwt>0</asrwt>
<pdfrwt beam="1">  1        1 0.28155437E+00 0.19448797E+04</pdfrwt>
<pdfrwt beam="2">  1       -1 0.79494398E-01 0.19448797E+04</pdfrwt>
<totfact> 0.57268857E+00</totfact>
</mgrwt>
</event>
<event>
 6    1  0.1028026E-006  0.3182432E+04  0.7818608E-02  0.8193472E-01
          1   -1    0    0  501    0  0.00000000000E+00  0.00000000000E+00  0.10693274556E+04  0.10693274556E+04  0.00000000000E+00 0. -1.
         -1   -1    0    0    0  501 -0.00000000000E+00 -0.00000000000E+00 -0.23678133492E+04  0.23678133492E+04  0.00000000000E+00 0.  1.
         23    2    1    2    0    0  0.10228256573E+04 -0.20858573149E+03 -0.19449171709E+04  0.22093160091E+04  0.93242125124E+02 0.  0.
         11    1    3    3    0    0  0.76122337092E+02  0.75293260778E+01 -0.16024060794E+03  0.17756225215E+03  0.00000000000E+00 0.  1.
        -11    1    3    3    0    0  0.94670332017E+03 -0.21611505756E+03 -0.17846765630E+04  0.20317537570E+04  0.00000000000E+00 0. -1.
         22    1    1    2    0    0 -0.10228256573E+04  0.20858573149E+03  0.64643127737E+03  0.12278247957E+04  0.00000000000E+00 0. -1.
<mgrwt>
<rscale>  0 0.31824317E+04</rscale>
<asrwt>0</asrwt>
<pdfrwt beam="1">  1        1 0.16451192E+00 0.31824317E+04</pdfrwt>
<pdfrwt beam="2">  1       -1 0.36427898E+00 0.31824317E+04</pdfrwt>
<totfact> 0.13981734E-01</totfact>
</mgrwt>
</event>
<event>
 6    1  0.1028026E-006  0.9143596E+03  0.7818608E-02  0.9407807E-01
         -2   -1    0    0    0  501 -0.00000000000E+00  0.00000000000E+00  0.21085324226E+03  0.21085324226E+03  0.00000000000E+00 0.  1.
          2   -1    0    0  501    0  0.00000000000E+00 -0.00000000000E+00 -0.99127410604E+03  0.99127410604E+03  0.00000000000E+00 0. -1.
         23    2    1    2    0    0 -0.19431304269E+03 -0.38964818629E+03 -0.23799118238E+03  0.50656050975E+03  0.10188463824E+03 0.  0.
         13    1    3    3    0    0 -0.15847480852E+03 -0.20801089604E+03 -0.12711159510E+03  0.29075789829E+03  0.00000000000E+00 0. -1.
        -13    1    3    3    0    0 -0.35838234164E+02 -0.18163729026E+03 -0.11087958728E+03  0.21580261147E+03  0.00000000000E+00 0.  1.
         22    1    1    2    0    0  0.19431304269E+03  0.38964818629E+03 -0.54242968140E+03  0.69556683856E+03  0.00000000000E+00 0. -1.
<mgrwt>
<rscale>  0 0.91435958E+03</rscale>
<asrwt>0</asrwt>
<pdfrwt beam="1">  1        2 0.15250371E+00 0.91435958E+03</pdfrwt>
<pdfrwt beam="2">  1       -2 0.32438960E-01 0.91435958E+03</pdfrwt>
<totfact> 0.22607643E+02</totfact>
</mgrwt>
</event>
<event>
 6    1  0.1028026E-006  0.3304422E+04  0.7818608E-02  0.8161771E-01
          2   -1    0    0  501    0  0.00000000000E+00  0.00000000000E+00  0.22479810383E+04  0.22479810383E+04  0.00000000000E+00 0. -1.
         -2   -1    0    0    0  501 -0.00000000000E+00 -0.00000000000E+00 -0.12143345884E+04  0.12143345884E+04  0.00000000000E+00 0.  1.
         23    2    1    2    0    0  0.99108072974E+03 -0.47573333298E+03 -0.77317529532E+03  0.13473290934E+04  0.94511542085E+02 0.  0.
         11    1    3    3    0    0  0.43232775401E+03 -0.15630933761E+03 -0.31454653101E+03  0.55702730281E+03  0.00000000000E+00 0. -1.
        -11    1    3    3    0    0  0.55875297573E+03 -0.31942399538E+03 -0.45862876431E+03  0.79030179056E+03  0.00000000000E+00 0.  1.
         22    1    1    2    0    0 -0.99108072974E+03  0.47573333298E+03  0.18068217453E+04  0.21149865333E+04  0.00000000000E+00 0. -1.
<mgrwt>
<rscale>  0 0.33044220E+04</rscale>
<asrwt>0</asrwt>
<pdfrwt beam="1">  1        2 0.34584324E+00 0.33044220E+04</pdfrwt>
<pdfrwt beam="2">  1       -2 0.18682071E+00 0.33044220E+04</pdfrwt>
<totfact> 0.65966511E-01</totfact>
</mgrwt>
</event>
<event>
 6    1  0.1028026E-006  0.3086947E+04  0.7818608E-02  0.8219329E-01
         -2   -1    0    0    0  501 -0.00000000000E+00  0.00000000000E+00  0.84223757013E+03  0.84223757013E+03  0.00000000000E+00 0.  1.
          2   -1    0    0  501    0  0.00000000000E+00 -0.00000000000E+00 -0.28285497916E+04  0.28285497916E+04  0.00000000000E+00 0. -1.
         23    2    1    2    0    0  0.56837374234E+03 -0.10113079491E+03  0.70622027554E+03  0.91706126857E+03  0.94753068871E+02 0.  0.
         11    1    3    3    0    0  0.26028698408E+03 -0.31482145447E+01  0.34700085187E+03  0.43378429725E+03  0.00000000000E+00 0. -1.
        -11    1    3    3    0    0  0.30808675825E+03 -0.97982580362E+02  0.35921942367E+03  0.48327697132E+03  0.00000000000E+00 0.  1.
         22    1    1    2    0    0 -0.56837374234E+03  0.10113079491E+03 -0.26925324971E+04  0.27537260932E+04  0.00000000000E+00 0. -1.
<mgrwt>
<rscale>  0 0.30869473E+04</rscale>
<asrwt>0</asrwt>
<pdfrwt beam="1">  1        2 0.43516150E+00 0.30869473E+04</pdfrwt>
<pdfrwt beam="2">  1       -2 0.12957501E+00 0.30869473E+04</pdfrwt>
<totfact> 0.82659937E-01</totfact>
</mgrwt>
</event>
<event>
 6    1  0.1028026E-006  0.1763121E+04  0.7818608E-02  0.8726161E-01
         -2   -1    0    0    0  501 -0.00000000000E+00  0.00000000000E+00  0.44280263787E+03  0.44280263787E+03  0.00000000000E+00 0.  1.
          2   -1    0    0  501    0  0.00000000000E+00 -0.00000000000E+00 -0.17550676596E+04  0.17550676596E+04  0.00000000000E+00 0. -1.
         23    2    1    2    0    0 -0.74930620898E+03 -0.45595899918E+03 -0.58242721948E+03  0.10568086772E+04  0.90910452468E+02 0.  0.
         13    1    3    3    0    0 -0.49261053633E+03 -0.28853905258E+03 -0.42877650568E+03  0.71398124429E+03  0.00000000000E+00 0. -1.
        -13    1    3    3    0    0 -0.25669567266E+03 -0.16741994659E+03 -0.15365071380E+03  0.34282743287E+03  0.00000000000E+00 0.  1.
         22    1    1    2    0    0  0.74930620898E+03  0.45595899918E+03 -0.72983780224E+03  0.11410616203E+04  0.00000000000E+00 0.  1.
<mgrwt>
<rscale>  0 0.17631206E+04</rscale>
<asrwt>0</asrwt>
<pdfrwt beam="1">  1        2 0.27001041E+00 0.17631206E+04</pdfrwt>
<pdfrwt beam="2">  1       -2 0.68123483E-01 0.17631206E+04</pdfrwt>
<totfact> 0.17065767E+01</totfact>
</mgrwt>
</event>
<event>
 6    1  0.1028026E-006  0.2808331E+04  0.7818608E-02  0.8300687E-01
         -2   -1    0    0    0  501 -0.00000000000E+00  0.00000000000E+00  0.88483607006E+03  0.88483607006E+03  0.00000000000E+00 0.  1.
          2   -1    0    0  501    0  0.00000000000E+00 -0.00000000000E+00 -0.22283008841E+04  0.22283008841E+04  0.00000000000E+00 0. -1.
         23    2    1    2    0    0 -0.82887750468E+03 -0.10164770018E+04 -0.12242008470E+04  0.17961375970E+04  0.84729809652E+02 0.  0.
         13    1    3    3    0    0 -0.36861582684E+03 -0.44225724851E+03 -0.59449248964E+03  0.82758106665E+03  0.00000000000E+00 0. -1.
        -13    1    3    3    0    0 -0.46026167785E+03 -0.57421975327E+03 -0.62970835740E+03  0.96855653037E+03  0.00000000000E+00 0.  1.
         22    1    1    2    0    0  0.82887750468E+03  0.10164770018E+04 -0.11926396702E+03  0.13169993572E+04  0.00000000000E+00 0.  1.
<mgrwt>
<rscale>  0 0.28083312E+04</rscale>
<asrwt>0</asrwt>
<pdfrwt beam="1">  1        2 0.34281552E+00 0.28083312E+04</pdfrwt>
<pdfrwt beam="2">  1       -2 0.13612863E+00 0.28083312E+04</pdfrwt>
<totfact> 0.16714733E+00</totfact>
</mgrwt>
</event>
<event>
 6    1  0.1028026E-006  0.1761533E+04  0.7818608E-02  0.8727028E-01
         -2   -1    0    0    0  501 -0.00000000000E+00  0.00000000000E+00  0.85701177656E+03  0.85701177656E+03  0.00000000000E+00 0.  1.
          2   -1    0    0  501    0  0.00000000000E+00 -0.00000000000E+00 -0.90517957914E+03  0.90517957914E+03  0.00000000000E+00 0. -1.
         23    2    1    2    0    0 -0.33043938173E+03  0.56700338403E+03 -0.60849448215E+03  0.89926087741E+03  0.87872454889E+02 0.  0.
         13    1    3    3    0    0 -0.16613825043E+03  0.36970420718E+03 -0.37790840513E+03  0.55416412887E+03  0.00000000000E+00 0. -1.
        -13    1    3    3    0    0 -0.16430113131E+03  0.19729917685E+03 -0.23058607702E+03  0.34509674854E+03  0.00000000000E+00 0.  1.
         22    1    1    2    0    0  0.33043938173E+03 -0.56700338403E+03  0.56032667957E+03  0.86293047828E+03  0.00000000000E+00 0.  1.
<mgrwt>
<rscale>  0 0.17615329E+04</rscale>
<asrwt>0</asrwt>
<pdfrwt beam="1">  1        2 0.13925840E+00 0.17615329E+04</pdfrwt>
<pdfrwt beam="2">  1       -2 0.13184797E+00 0.17615329E+04</pdfrwt>
<totfact> 0.11539793E+01</totfact>
</mgrwt>
</event>
<event>
 6    1  0.1028026E-006  0.5335348E+04  0.7818608E-02  0.7778761E-01
         -2   -1    0    0    0  501 -0.00000000000E+00  0.00000000000E+00  0.19357703714E+04  0.19357703714E+04  0.00000000000E+00 0.  1.
          2   -1    0    0  501    0  0.00000000000E+00 -0.00000000000E+00 -0.36763066056E+04  0.36763066056E+04  0.00000000000E+00 0. -1.
         23    2    1    2    0    0  0.24640670219E+03 -0.18415411753E+04  0.11419295015E+04  0.21827040197E+04  0.90574211810E+02 0.  0.
         11    1    3    3    0    0  0.16947522852E+03 -0.10577901394E+04  0.61674162989E+03  0.12361278534E+04  0.00000000000E+00 0. -1.
        -11    1    3    3    0    0  0.76931473667E+02 -0.78375103597E+03  0.52518787158E+03  0.94657616623E+03  0.00000000000E+00 0.  1.
         22    1    1    2    0    0 -0.24640670219E+03  0.18415411753E+04 -0.28824657357E+04  0.34293729574E+04  0.00000000000E+00 0. -1.
<mgrwt>
<rscale>  0 0.53353483E+04</rscale>
<asrwt>0</asrwt>
<pdfrwt beam="1">  1        2 0.56558562E+00 0.53353483E+04</pdfrwt>
<pdfrwt beam="2">  1       -2 0.29781083E+00 0.53353483E+04</pdfrwt>
<totfact> 0.14080393E-02</totfact>
</mgrwt>
</event>
<event>
 6    1  0.1028026E-006  0.3165239E+04  0.7818608E-02  0.8198058E-01
         -1   -1    0    0    0  501 -0.00000000000E+00  0.00000000000E+00  0.17657414082E+04  0.17657414082E+04  0.00000000000E+00 0.  1.
          1   -1    0    0  501    0  0.00000000000E+00 -0.00000000000E+00 -0.14184890826E+04  0.14184890826E+04  0.00000000000E+00 0. -1.
         23    2    1    2    0    0  0.15796906028E+04 -0.63388370792E+02  0.16628961848E+03  0.15929454794E+04  0.10189493230E+03 0.  0.
         13    1    3    3    0    0  0.12821320985E+04 -0.76297615787E+02  0.10352548556E+03  0.12885657027E+04  0.00000000000E+00 0. -1.
        -13    1    3    3    0    0  0.29755850430E+03  0.12909244995E+02  0.62764132919E+02  0.30437977671E+03  0.00000000000E+00 0.  1.
         22    1    1    2    0    0 -0.15796906028E+04  0.63388370792E+02  0.18096270705E+03  0.15912850114E+04  0.00000000000E+00 0.  1.
<mgrwt>
<rscale>  0 0.31652393E+04</rscale>
<asrwt>0</asrwt>
<pdfrwt beam="1">  1        1 0.21822909E+00 0.31652393E+04</pdfrwt>
<pdfrwt beam="2">  1       -1 0.27165252E+00 0.31652393E+04</pdfrwt>
<totfact> 0.31539757E-01</totfact>
</mgrwt>
</event>
<event>
 6    1  0.1028026E-006  0.2268997E+04  0.7818608E-02  0.8490247E-01
         -2   -1    0    0    0  501 -0.00000000000E+00  0.00000000000E+00  0.67198468347E+03  0.67198468347E+03  0.00000000000E+00 0.  1.
          2   -1    0    0  501    0  0.00000000000E+00 -0.00000000000E+00 -0.19153509254E+04  0.19153509254E+04  0.00000000000E+00 0. -1.
         23    2    1    2    0    0 -0.16055617909E+03  0.85947696916E+03 -0.14436786148E+04  0.16903383994E+04  0.92504131093E+02 0.  0.
         13    1    3    3    0    0 -0.38934513167E+02  0.26970054528E+03 -0.37302589789E+03  0.46195519364E+03  0.00000000000E+00 0. -1.
        -13    1    3    3    0    0 -0.12162166593E+03  0.58977642388E+03 -0.10706527169E+04  0.12283832057E+04  0.00000000000E+00 0.  1.
         22    1    1    2    0    0  0.16055617909E+03 -0.85947696916E+03  0.20031237289E+03  0.89699720952E+03  0.00000000000E+00 0.  1.
<mgrwt>
<rscale>  0 0.22689967E+04</rscale>
<asrwt>0</asrwt>
<pdfrwt beam="1">  1        2 0.29466937E+00 0.22689967E+04</pdfrwt>
<pdfrwt beam="2">  1       -2 0.10338226E+00 0.22689967E+04</pdfrwt>
<totfact> 0.51634092E+00</totfact>
</mgrwt>
</event>
<event>
 6    1  0.1028026E-006  0.2527095E+04  0.7818608E-02  0.8393396E-01
          1   -1    0    0  501    0  0.00000000000E+00  0.00000000000E+00  0.32788918082E+04  0.32788918082E+04  0.00000000000E+00 0. -1.
         -1   -1    0    0    0  501 -0.00000000000E+00 -0.00000000000E+00 -0.48691840370E+03  0.48691840370E+03  0.00000000000E+00 0.  1.
         23    2    1    2    0    0 -0.99727532198E+03 -0.25738018733E+03  0.24843340272E+04  0.26908941151E+04  0.90514923156E+02 0.  0.
         11    1    3    3    0    0 -0.52828198999E+03 -0.91678479973E+02  0.12542870235E+04  0.13640831141E+04  0.00000000000E+00 0.  1.
        -11    1    3    3    0    0 -0.46899333199E+03 -0.16570170735E+03  0.12300470037E+04  0.13268110010E+04  0.00000000000E+00 0. -1.
         22    1    1    2    0    0  0.99727532198E+03  0.25738018733E+03  0.30763937727E+03  0.10749160968E+04  0.00000000000E+00 0. -1.
<mgrwt>
<rscale>  0 0.25270954E+04</rscale>
<asrwt>0</asrwt>
<pdfrwt beam="1">  1        1 0.50444488E+00 0.25270954E+04</pdfrwt>
<pdfrwt beam="2">  1       -1 0.74910526E-01 0.25270954E+04</pdfrwt>
<totfact> 0.58890670E-01</totfact>
</mgrwt>
</event>
<event>
 6    1  0.1028026E-006  0.3393617E+04  0.7818608E-02  0.8139475E-01
          2   -1    0    0  501    0  0.00000000000E+00  0.00000000000E+00  0.39662031804E+04  0.39662031804E+04  0.00000000000E+00 0. -1.
         -2   -1    0    0    0  501 -0.00000000000E+00 -0.00000000000E+00 -0.72592312700E+03  0.72592312700E+03  0.00000000000E+00 0.  1.
         23    2    1    2    0    0 -0.15300244998E+04 -0.45499015542E+03  0.83097456065E+03  0.18020148962E+04  0.93530498970E+02 0.  0.
         11    1    3    3    0    0 -0.59771726162E+03 -0.21695702237E+03  0.36019122123E+03  0.73080366053E+03  0.00000000000E+00 0. -1.
        -11    1    3    3    0    0 -0.93230723820E+03 -0.23803313305E+03  0.47078333942E+03  0.10712112357E+04  0.00000000000E+00 0.  1.
         22    1    1    2    0    0  0.15300244998E+04  0.45499015542E+03  0.24093054928E+04  0.28901114112E+04  0.00000000000E+00 0.  1.
<mgrwt>
<rscale>  0 0.33936167E+04</rscale>
<asrwt>0</asrwt>
<pdfrwt beam="1">  1        2 0.61018509E+00 0.33936167E+04</pdfrwt>
<pdfrwt beam="2">  1       -2 0.11168048E+00 0.33936167E+04</pdfrwt>
<totfact> 0.19076110E-01</totfact>
</mgrwt>
</event>
<event>
 6    1  0.1028026E-006  0.3162528E+04  0.7818608E-02  0.8198784E-01
          2   -1    0    0  501    0  0.00000000000E+00  0.00000000000E+00  0.27013347437E+04  0.27013347437E+04  0.00000000000E+00 0. -1.
         -2   -1    0    0    0  501 -0.00000000000E+00 -0.00000000000E+00 -0.92561488696E+03  0.92561488696E+03  0.00000000000E+00 0.  1.
         23    2    1    2    0    0 -0.18657250457E+03 -0.12790089752E+04 -0.15351872769E+03  0.13047449080E+04  0.90100039777E+02 0.  0.
         11    1    3    3    0    0 -0.15525678124E+03 -0.10784111218E+04 -0.16217229607E+03  0.11015330542E+04  0.00000000000E+00 0. -1.
        -11    1    3    3    0    0 -0.31315723330E+02 -0.20059785340E+03  0.86535683746E+01  0.20321185389E+03  0.00000000000E+00 0.  1.
         22    1    1    2    0    0  0.18657250457E+03  0.12790089752E+04  0.19292385845E+04  0.23222047227E+04  0.00000000000E+00 0. -1.
<mgrwt>
<rscale>  0 0.31625279E+04</rscale>
<asrwt>0</asrwt>
<pdfrwt beam="1">  1        2 0.41558996E+00 0.31625279E+04</pdfrwt>
<pdfrwt beam="2">  1       -2 0.14240229E+00 0.31625279E+04</pdfrwt>
<totfact> 0.76893950E-01</totfact>
</mgrwt>
</event>
<event>
 6    1  0.1028026E-006  0.1906446E+04  0.7818608E-02  0.8651655E-01
          2   -1    0    0  501    0  0.00000000000E+00  0.00000000000E+00  0.98797851749E+03  0.98797851749E+03  0.00000000000E+00 0. -1.
         -2   -1    0    0    0  501 -0.00000000000E+00 -0.00000000000E+00 -0.91968972624E+03  0.91968972624E+03  0.00000000000E+00 0.  1.
         23    2    1    2    0    0  0.52101765335E+03 -0.78926321494E+03 -0.65495657330E+02  0.95252736603E+03  0.92859487072E+02 0.  0.
         13    1    3    3    0    0  0.43507097549E+03 -0.63381281844E+03 -0.86683063336E+02  0.77364035314E+03  0.00000000000E+00 0. -1.
        -13    1    3    3    0    0  0.85946677867E+02 -0.15545039650E+03  0.21187406006E+02  0.17888701289E+03  0.00000000000E+00 0.  1.
         22    1    1    2    0    0 -0.52101765335E+03  0.78926321494E+03  0.13378444858E+03  0.95514087770E+03  0.00000000000E+00 0. -1.
<mgrwt>
<rscale>  0 0.19064456E+04</rscale>
<asrwt>0</asrwt>
<pdfrwt beam="1">  1        2 0.15199669E+00 0.19064456E+04</pdfrwt>
<pdfrwt beam="2">  1       -2 0.14149073E+00 0.19064456E+04</pdfrwt>
<totfact> 0.83858356E+00</totfact>
</mgrwt>
</event>
<event>
 6    1  0.1028026E-006  0.1814581E+04  0.7818608E-02  0.8698584E-01
          2   -1    0    0  501    0  0.00000000000E+00  0.00000000000E+00  0.72636655734E+03  0.72636655734E+03  0.00000000000E+00 0. -1.
         -2   -1    0    0    0  501 -0.00000000000E+00 -0.00000000000E+00 -0.11332789337E+04  0.11332789337E+04  0.00000000000E+00 0.  1.
         23    2    1    2    0    0 -0.12290036425E+03  0.17959406419E+02 -0.11227231953E+04  0.11331386649E+04  0.89826614385E+02 0.  0.
         11    1    3    3    0    0 -0.75401073827E+01  0.17571941119E+02 -0.46374991650E+03  0.46414395546E+03  0.00000000000E+00 0. -1.
        -11    1    3    3    0    0 -0.11536025686E+03  0.38746530016E+00 -0.65897327885E+03  0.66899470942E+03  0.00000000000E+00 0.  1.
         22    1    1    2    0    0  0.12290036425E+03 -0.17959406419E+02  0.71581081901E+03  0.72650682614E+03  0.00000000000E+00 0. -1.
<mgrwt>
<rscale>  0 0.18145809E+04</rscale>
<asrwt>0</asrwt>
<pdfrwt beam="1">  1        2 0.11174870E+00 0.18145809E+04</pdfrwt>
<pdfrwt beam="2">  1       -2 0.17435061E+00 0.18145809E+04</pdfrwt>
<totfact> 0.73129913E+00</totfact>
</mgrwt>
</event>
<event>
 6    1  0.1028026E-006  0.2635209E+04  0.7818608E-02  0.8356339E-01
          2   -1    0    0  501    0  0.00000000000E+00  0.00000000000E+00  0.10395408512E+04  0.10395408512E+04  0.00000000000E+00 0. -1.
         -2   -1    0    0    0  501 -0.00000000000E+00 -0.00000000000E+00 -0.16700463999E+04  0.16700463999E+04  0.00000000000E+00 0.  1.
         23    2    1    2    0    0  0.14398918982E+02 -0.13129348133E+04 -0.40537495478E+03  0.13774127366E+04  0.94508413711E+02 0.  0.
         13    1    3    3    0    0  0.53783840945E+02 -0.71173968682E+03 -0.23044851947E+03  0.75004840075E+03  0.00000000000E+00 0. -1.
        -13    1    3    3    0    0 -0.39384921962E+02 -0.60119512648E+03 -0.17492643531E+03  0.62736433589E+03  0.00000000000E+00 0.  1.
         22    1    1    2    0    0 -0.14398918982E+02  0.13129348133E+04 -0.22513059391E+03  0.13321745145E+04  0.00000000000E+00 0. -1.
<mgrwt>
<rscale>  0 0.26352089E+04</rscale>
<asrwt>0</asrwt>
<pdfrwt beam="1">  1        2 0.15992936E+00 0.26352089E+04</pdfrwt>
<pdfrwt beam="2">  1       -2 0.25693021E+00 0.26352089E+04</pdfrwt>
<totfact> 0.12212156E+00</totfact>
</mgrwt>
</event>
<event>
 6    1  0.1028026E-006  0.2437903E+04  0.7818608E-02  0.8425448E-01
          2   -1    0    0  501    0  0.00000000000E+00  0.00000000000E+00  0.20292136195E+04  0.20292136195E+04  0.00000000000E+00 0. -1.
         -2   -1    0    0    0  501 -0.00000000000E+00 -0.00000000000E+00 -0.73222587683E+03  0.73222587683E+03  0.00000000000E+00 0.  1.
         23    2    1    2    0    0 -0.13546853382E+03  0.88178600656E+03  0.15873984534E+04  0.18232302095E+04  0.91849126778E+02 0.  0.
         13    1    3    3    0    0 -0.21028068381E+02  0.12370040942E+03  0.29436468046E+03  0.31999146247E+03  0.00000000000E+00 0. -1.
        -13    1    3    3    0    0 -0.11444046543E+03  0.75808559714E+03  0.12930337729E+04  0.15032387471E+04  0.00000000000E+00 0.  1.
         22    1    1    2    0    0  0.13546853382E+03 -0.88178600656E+03 -0.29041071069E+03  0.93820928683E+03  0.00000000000E+00 0. -1.
<mgrwt>
<rscale>  0 0.24379030E+04</rscale>
<asrwt>0</asrwt>
<pdfrwt beam="1">  1        2 0.31218671E+00 0.24379030E+04</pdfrwt>
<pdfrwt beam="2">  1       -2 0.11265014E+00 0.24379030E+04</pdfrwt>
<totfact> 0.35772844E+00</totfact>
</mgrwt>
</event>
<event>
 6    1  0.1028026E-006  0.2646426E+04  0.7818608E-02  0.8352600E-01
         -2   -1    0    0    0  501 -0.00000000000E+00  0.00000000000E+00  0.86783489397E+03  0.86783489397E+03  0.00000000000E+00 0.  1.
          2   -1    0    0  501    0  0.00000000000E+00 -0.00000000000E+00 -0.20175410407E+04  0.20175410407E+04  0.00000000000E+00 0. -1.
         23    2    1    2    0    0  0.73389018623E+03 -0.96499353630E+03 -0.16851223894E+01  0.12157174059E+04  0.90325194369E+02 0.  0.
         13    1    3    3    0    0  0.53646123208E+03 -0.70716515210E+03  0.38784118994E+02  0.88846914058E+03  0.00000000000E+00 0.  1.
        -13    1    3    3    0    0  0.19742895415E+03 -0.25782838420E+03 -0.40469241384E+02  0.32724826529E+03  0.00000000000E+00 0. -1.
         22    1    1    2    0    0 -0.73389018623E+03  0.96499353630E+03 -0.11480210244E+04  0.16696585289E+04  0.00000000000E+00 0. -1.
<mgrwt>
<rscale>  0 0.26464259E+04</rscale>
<asrwt>0</asrwt>
<pdfrwt beam="1">  1        2 0.31039092E+00 0.26464259E+04</pdfrwt>
<pdfrwt beam="2">  1       -2 0.13351306E+00 0.26464259E+04</pdfrwt>
<totfact> 0.23362188E+00</totfact>
</mgrwt>
</event>
<event>
 6    1  0.1028026E-006  0.4021386E+04  0.7818608E-02  0.8000246E-01
         -2   -1    0    0    0  501 -0.00000000000E+00  0.00000000000E+00  0.18683506137E+04  0.18683506137E+04  0.00000000000E+00 0.  1.
          2   -1    0    0  501    0  0.00000000000E+00 -0.00000000000E+00 -0.21638800036E+04  0.21638800036E+04  0.00000000000E+00 0. -1.
         23    2    1    2    0    0 -0.65641093128E+03  0.84213881903E+02  0.17548609256E+04  0.18776847870E+04  0.90531776370E+02 0.  0.
         13    1    3    3    0    0 -0.18276341844E+03  0.34306106615E+01  0.38988793345E+03  0.43061216525E+03  0.00000000000E+00 0. -1.
        -13    1    3    3    0    0 -0.47364751284E+03  0.80783271241E+02  0.13649729922E+04  0.14470726218E+04  0.00000000000E+00 0.  1.
         22    1    1    2    0    0  0.65641093128E+03 -0.84213881903E+02 -0.20503903156E+04  0.21545458303E+04  0.00000000000E+00 0. -1.
<mgrwt>
<rscale>  0 0.40213861E+04</rscale>
<asrwt>0</asrwt>
<pdfrwt beam="1">  1        2 0.33290461E+00 0.40213861E+04</pdfrwt>
<pdfrwt beam="2">  1       -2 0.28743856E+00 0.40213861E+04</pdfrwt>
<totfact> 0.16164962E-01</totfact>
</mgrwt>
</event>
<event>
 6    1  0.1028026E-006  0.2014523E+04  0.7818608E-02  0.8599861E-01
         -2   -1    0    0    0  501 -0.00000000000E+00  0.00000000000E+00  0.31950552453E+03  0.31950552453E+03  0.00000000000E+00 0.  1.
          2   -1    0    0  501    0  0.00000000000E+00 -0.00000000000E+00 -0.31754568543E+04  0.31754568543E+04  0.00000000000E+00 0. -1.
         23    2    1    2    0    0  0.58475580817E+03 -0.48972799146E+03 -0.25667120653E+04  0.26792220936E+04  0.91909411650E+02 0.  0.
         11    1    3    3    0    0  0.48599467200E+03 -0.36259589098E+03 -0.20797691796E+04  0.21663578748E+04  0.00000000000E+00 0. -1.
        -11    1    3    3    0    0  0.98761136175E+02 -0.12713210048E+03 -0.48694288573E+03  0.51286421883E+03  0.00000000000E+00 0.  1.
         22    1    1    2    0    0 -0.58475580817E+03  0.48972799146E+03 -0.28923926447E+03  0.81574028521E+03  0.00000000000E+00 0.  1.
<mgrwt>
<rscale>  0 0.20145233E+04</rscale>
<asrwt>0</asrwt>
<pdfrwt beam="1">  1        2 0.48853184E+00 0.20145233E+04</pdfrwt>
<pdfrwt beam="2">  1       -2 0.49154694E-01 0.20145233E+04</pdfrwt>
<totfact> 0.49077118E+00</totfact>
</mgrwt>
</event>
<event>
 6    1  0.1028026E-006  0.1398695E+04  0.7818608E-02  0.8954764E-01
          2   -1    0    0  501    0  0.00000000000E+00  0.00000000000E+00  0.21609636267E+04  0.21609636267E+04  0.00000000000E+00 0. -1.
         -2   -1    0    0    0  501 -0.00000000000E+00 -0.00000000000E+00 -0.22632820744E+03  0.22632820744E+03  0.00000000000E+00 0.  1.
         23    2    1    2    0    0 -0.15262223457E+03  0.30606448077E+03 -0.63815361117E+02  0.35978732502E+03  0.91681547020E+02 0.  0.
         13    1    3    3    0    0 -0.34575352845E+02  0.17195340644E+03 -0.29539857601E+02  0.17786520795E+03  0.00000000000E+00 0. -1.
        -13    1    3    3    0    0 -0.11804688172E+03  0.13411107432E+03 -0.34275503516E+02  0.18192211707E+03  0.00000000000E+00 0.  1.
         22    1    1    2    0    0  0.15262223457E+03 -0.30606448077E+03  0.19984507804E+04  0.20275045091E+04  0.00000000000E+00 0. -1.
<mgrwt>
<rscale>  0 0.13986951E+04</rscale>
<asrwt>0</asrwt>
<pdfrwt beam="1">  1        2 0.33245593E+00 0.13986951E+04</pdfrwt>
<pdfrwt beam="2">  1       -2 0.34819726E-01 0.13986951E+04</pdfrwt>
<totfact> 0.40959687E+01</totfact>
</mgrwt>
</event>
<event>
 6    1  0.1028026E-006  0.5743746E+03  0.7818608E-02  0.9960045E-01
          2   -1    0    0  501    0  0.00000000000E+00  0.00000000000E+00  0.59850966652E+03  0.59850966652E+03  0.00000000000E+00 0. -1.
         -2   -1    0    0    0  501 -0.00000000000E+00 -0.00000000000E+00 -0.13780317607E+03  0.13780317607E+03  0.00000000000E+00 0.  1.
         23    2    1    2    0    0 -0.19429388400E+03 -0.16029605342E+03  0.80663923411E+02  0.28037722119E+03  0.93057936380E+02 0.  0.
         13    1    3    3    0    0 -0.13598739190E+03 -0.63287223776E+02  0.18175298622E+02  0.15108998950E+03  0.00000000000E+00 0. -1.
        -13    1    3    3    0    0 -0.58306492099E+02 -0.97008829644E+02  0.62488624790E+02  0.12928723169E+03  0.00000000000E+00 0.  1.
         22    1    1    2    0    0  0.19429388400E+03  0.16029605342E+03  0.38004256704E+03  0.45593562140E+03  0.00000000000E+00 0. -1.
<mgrwt>
<rscale>  0 0.57437456E+03</rscale>
<asrwt>0</asrwt>
<pdfrwt beam="1">  1        2 0.92078409E-01 0.57437456E+03</pdfrwt>
<pdfrwt beam="2">  1       -2 0.21200489E-01 0.57437456E+03</pdfrwt>
<totfact> 0.96149563E+02</totfact>
</mgrwt>
</event>
<event>
 6    1  0.1028026E-006  0.1772596E+04  0.7818608E-02  0.8721010E-01
         -2   -1    0    0    0  501 -0.00000000000E+00  0.00000000000E+00  0.59708431258E+03  0.59708431258E+03  0.00000000000E+00 0.  1.
          2   -1    0    0  501    0  0.00000000000E+00 -0.00000000000E+00 -0.13156002588E+04  0.13156002588E+04  0.00000000000E+00 0. -1.
         23    2    1    2    0    0  0.79196896010E+03  0.35949038298E+03 -0.53119357569E+03  0.10230004478E+04  0.88967028278E+02 0.  0.
         13    1    3    3    0    0  0.56406198564E+03  0.21990894877E+03 -0.33951374247E+03  0.69411486853E+03  0.00000000000E+00 0. -1.
        -13    1    3    3    0    0  0.22790697446E+03  0.13958143421E+03 -0.19167983322E+03  0.32888557926E+03  0.00000000000E+00 0.  1.
         22    1    1    2    0    0 -0.79196896010E+03 -0.35949038298E+03 -0.18732237050E+03  0.88968412355E+03  0.00000000000E+00 0.  1.
<mgrwt>
<rscale>  0 0.17725961E+04</rscale>
<asrwt>0</asrwt>
<pdfrwt beam="1">  1        2 0.20240004E+00 0.17725961E+04</pdfrwt>
<pdfrwt beam="2">  1       -2 0.91859125E-01 0.17725961E+04</pdfrwt>
<totfact> 0.15440396E+01</totfact>
</mgrwt>
</event>
<event>
 6    1  0.1028026E-006  0.2638261E+04  0.7818608E-02  0.8355320E-01
         -2   -1    0    0    0  501 -0.00000000000E+00  0.00000000000E+00  0.10017858092E+04  0.10017858092E+04  0.00000000000E+00 0.  1.
          2   -1    0    0  501    0  0.00000000000E+00 -0.00000000000E+00 -0.17370034070E+04  0.17370034070E+04  0.00000000000E+00 0. -1.
         23    2    1    2    0    0 -0.10573134226E+04  0.76104321377E+03 -0.57181690708E+03  0.14258542474E+04  0.94801438701E+02 0.  0.
         13    1    3    3    0    0 -0.47378146851E+03  0.39391971038E+03 -0.24814039122E+03  0.66424037207E+03  0.00000000000E+00 0. -1.
        -13    1    3    3    0    0 -0.58353195406E+03  0.36712350339E+03 -0.32367651586E+03  0.76161387532E+03  0.00000000000E+00 0.  1.
         22    1    1    2    0    0  0.10573134226E+04 -0.76104321377E+03 -0.16340069075E+03  0.13129349689E+04  0.00000000000E+00 0. -1.
<mgrwt>
<rscale>  0 0.26382611E+04</rscale>
<asrwt>0</asrwt>
<pdfrwt beam="1">  1        2 0.26723129E+00 0.26382611E+04</pdfrwt>
<pdfrwt beam="2">  1       -2 0.15412089E+00 0.26382611E+04</pdfrwt>
<totfact> 0.22991608E+00</totfact>
</mgrwt>
</event>
<event>
 6    1  0.1028026E-006  0.9730750E+03  0.7818608E-02  0.9338579E-01
          1   -1    0    0  501    0  0.00000000000E+00  0.00000000000E+00  0.14909607297E+04  0.14909607297E+04  0.00000000000E+00 0. -1.
         -1   -1    0    0    0  501 -0.00000000000E+00 -0.00000000000E+00 -0.15876925408E+03  0.15876925408E+03  0.00000000000E+00 0.  1.
         23    2    1    2    0    0  0.27954804910E+03  0.14896127740E+03  0.12884785601E+04  0.13299685213E+04  0.91119118742E+02 0.  0.
         13    1    3    3    0    0  0.14365206396E+03  0.26389693459E+02  0.61001154279E+03  0.62725306993E+03  0.00000000000E+00 0.  1.
        -13    1    3    3    0    0  0.13589598514E+03  0.12257158394E+03  0.67846701733E+03  0.70271545135E+03  0.00000000000E+00 0. -1.
         22    1    1    2    0    0 -0.27954804910E+03 -0.14896127740E+03  0.43712915505E+02  0.31976146250E+03  0.00000000000E+00 0.  1.
<mgrwt>
<rscale>  0 0.97307497E+03</rscale>
<asrwt>0</asrwt>
<pdfrwt beam="1">  1        1 0.22937856E+00 0.97307497E+03</pdfrwt>
<pdfrwt beam="2">  1       -1 0.24426040E-01 0.97307497E+03</pdfrwt>
<totfact> 0.97152102E+01</totfact>
</mgrwt>
</event>
<event>
 6    1  0.1028026E-006  0.2288139E+04  0.7818608E-02  0.8482612E-01
          2   -1    0    0  501    0  0.00000000000E+00  0.00000000000E+00  0.13475816620E+04  0.13475816620E+04  0.00000000000E+00 0. -1.
         -2   -1    0    0    0  501 -0.00000000000E+00 -0.00000000000E+00 -0.97129175935E+03  0.97129175935E+03  0.00000000000E+00 0.  1.
         23    2    1    2    0    0 -0.44433965532E+03 -0.78035944492E+03 -0.52792608333E+03  0.10445088182E+04  0.76773232228E+02 0.  0.
         13    1    3    3    0    0 -0.42728666972E+03 -0.70812667075E+03 -0.48488247482E+03  0.95871178899E+03  0.00000000000E+00 0. -1.
        -13    1    3    3    0    0 -0.17052985606E+02 -0.72232774166E+02 -0.43043608508E+02  0.85797029175E+02  0.00000000000E+00 0.  1.
         22    1    1    2    0    0  0.44433965532E+03  0.78035944492E+03  0.90421598600E+03  0.12743646032E+04  0.00000000000E+00 0. -1.
<mgrwt>
<rscale>  0 0.22881389E+04</rscale>
<asrwt>0</asrwt>
<pdfrwt beam="1">  1        2 0.20732026E+00 0.22881389E+04</pdfrwt>
<pdfrwt beam="2">  1       -2 0.14942950E+00 0.22881389E+04</pdfrwt>
<totfact> 0.42611416E+00</totfact>
</mgrwt>
</event>
<event>
 6    1  0.1028026E-006  0.2725576E+04  0.7818608E-02  0.8326754E-01
         -2   -1    0    0    0  501 -0.00000000000E+00  0.00000000000E+00  0.71150933547E+03  0.71150933547E+03  0.00000000000E+00 0.  1.
          2   -1    0    0  501    0  0.00000000000E+00 -0.00000000000E+00 -0.26102129179E+04  0.26102129179E+04  0.00000000000E+00 0. -1.
         23    2    1    2    0    0 -0.56684293432E+03 -0.12366202467E+04 -0.88918651310E+03  0.16277136170E+04  0.90875833666E+02 0.  0.
         11    1    3    3    0    0 -0.10410796276E+03 -0.24160645521E+03 -0.13083441884E+03  0.29381931908E+03  0.00000000000E+00 0.  1.
        -11    1    3    3    0    0 -0.46273497156E+03 -0.99501379150E+03 -0.75835209426E+03  0.13338942979E+04  0.00000000000E+00 0. -1.
         22    1    1    2    0    0  0.56684293432E+03  0.12366202467E+04 -0.10095170693E+04  0.16940086364E+04  0.00000000000E+00 0. -1.
<mgrwt>
<rscale>  0 0.27255758E+04</rscale>
<asrwt>0</asrwt>
<pdfrwt beam="1">  1        2 0.40157123E+00 0.27255758E+04</pdfrwt>
<pdfrwt beam="2">  1       -2 0.10946297E+00 0.27255758E+04</pdfrwt>
<totfact> 0.17465057E+00</totfact>
</mgrwt>
</event>
<event>
 6    1  0.1028026E-006  0.2882643E+04  0.7818608E-02  0.8278060E-01
         -2   -1    0    0    0  501 -0.00000000000E+00  0.00000000000E+00  0.15728606398E+04  0.15728606398E+04  0.00000000000E+00 0.  1.
          2   -1    0    0  501    0  0.00000000000E+00 -0.00000000000E+00 -0.13207832207E+04  0.13207832207E+04  0.00000000000E+00 0. -1.
         23    2    1    2    0    0 -0.15784839426E+03  0.13246888137E+04 -0.41787909647E+03  0.14008082026E+04  0.89017483227E+02 0.  0.
         13    1    3    3    0    0 -0.15125440483E+03  0.12162385723E+04 -0.40788841906E+03  0.12916993157E+04  0.00000000000E+00 0. -1.
        -13    1    3    3    0    0 -0.65939894233E+01  0.10845024137E+03 -0.99906774136E+01  0.10910888683E+03  0.00000000000E+00 0.  1.
         22    1    1    2    0    0  0.15784839426E+03 -0.13246888137E+04  0.66995651558E+03  0.14928356579E+04  0.00000000000E+00 0.  1.
<mgrwt>
<rscale>  0 0.28826432E+04</rscale>
<asrwt>0</asrwt>
<pdfrwt beam="1">  1        2 0.20319742E+00 0.28826432E+04</pdfrwt>
<pdfrwt beam="2">  1       -2 0.24197856E+00 0.28826432E+04</pdfrwt>
<totfact> 0.10006756E+00</totfact>
</mgrwt>
</event>
<event>
 6    1  0.1028026E-006  0.1465892E+04  0.7818608E-02  0.8907456E-01
          2   -1    0    0  501    0  0.00000000000E+00  0.00000000000E+00  0.30732330005E+03  0.30732330005E+03  0.00000000000E+00 0. -1.
         -2   -1    0    0    0  501 -0.00000000000E+00 -0.00000000000E+00 -0.17480286634E+04  0.17480286634E+04  0.00000000000E+00 0.  1.
         23    2    1    2    0    0  0.56368026512E+03 -0.29212719625E+03 -0.21736915924E+03  0.67708304615E+03  0.90101941847E+02 0.  0.
         13    1    3    3    0    0  0.26389537172E+03 -0.11016688607E+03 -0.57570477866E+02  0.29170510781E+03  0.00000000000E+00 0. -1.
        -13    1    3    3    0    0  0.29978489340E+03 -0.18196031018E+03 -0.15979868137E+03  0.38537793834E+03  0.00000000000E+00 0.  1.
         22    1    1    2    0    0 -0.56368026512E+03  0.29212719625E+03 -0.12233362041E+04  0.13782689173E+04  0.00000000000E+00 0.  1.
<mgrwt>
<rscale>  0 0.14658921E+04</rscale>
<asrwt>0</asrwt>
<pdfrwt beam="1">  1        2 0.47280508E-01 0.14658921E+04</pdfrwt>
<pdfrwt beam="2">  1       -2 0.26892748E+00 0.14658921E+04</pdfrwt>
<totfact> 0.51034045E+00</totfact>
</mgrwt>
</event>
<event>
 6    1  0.1028026E-006  0.1914809E+04  0.7818608E-02  0.8647520E-01
          2   -1    0    0  501    0  0.00000000000E+00  0.00000000000E+00  0.14047102348E+04  0.14047102348E+04  0.00000000000E+00 0. -1.
         -2   -1    0    0    0  501 -0.00000000000E+00 -0.00000000000E+00 -0.65253545058E+03  0.65253545058E+03  0.00000000000E+00 0.  1.
         23    2    1    2    0    0  0.29277140762E+03  0.58167388841E+03 -0.37468672469E+03  0.75575558943E+03  0.81955840045E+02 0.  0.
         11    1    3    3    0    0  0.13960422786E+03  0.25043833069E+03 -0.20990406498E+03  0.35534267181E+03  0.00000000000E+00 0.  1.
        -11    1    3    3    0    0  0.15316717976E+03  0.33123555772E+03 -0.16478265971E+03  0.40041291762E+03  0.00000000000E+00 0. -1.
         22    1    1    2    0    0 -0.29277140762E+03 -0.58167388841E+03  0.11268615089E+04  0.13014900959E+04  0.00000000000E+00 0. -1.
<mgrwt>
<rscale>  0 0.19148088E+04</rscale>
<asrwt>0</asrwt>
<pdfrwt beam="1">  1        2 0.21610927E+00 0.19148088E+04</pdfrwt>
<pdfrwt beam="2">  1       -2 0.10039007E+00 0.19148088E+04</pdfrwt>
<totfact> 0.11011295E+01</totfact>
</mgrwt>
</event>
<event>
 6    1  0.1028026E-006  0.2025747E+04  0.7818608E-02  0.8594677E-01
         -2   -1    0    0    0  501 -0.00000000000E+00  0.00000000000E+00  0.45582942049E+03  0.45582942049E+03  0.00000000000E+00 0.  1.
          2   -1    0    0  501    0  0.00000000000E+00 -0.00000000000E+00 -0.22506496455E+04  0.22506496455E+04  0.00000000000E+00 0. -1.
         23    2    1    2    0    0  0.53393700988E+03  0.48358366267E+02 -0.20441412668E+04  0.21152191874E+04  0.90616938994E+02 0.  0.
         13    1    3    3    0    0  0.39556215604E+03  0.41605265913E+02 -0.16559431548E+04  0.17030408537E+04  0.00000000000E+00 0. -1.
        -13    1    3    3    0    0  0.13837485384E+03  0.67531003540E+01 -0.38819811202E+03  0.41217833363E+03  0.00000000000E+00 0.  1.
         22    1    1    2    0    0 -0.53393700988E+03 -0.48358366267E+02  0.24932104188E+03  0.59125987859E+03  0.00000000000E+00 0.  1.
<mgrwt>
<rscale>  0 0.20257466E+04</rscale>
<asrwt>0</asrwt>
<pdfrwt beam="1">  1        2 0.34625380E+00 0.20257466E+04</pdfrwt>
<pdfrwt beam="2">  1       -2 0.70127601E-01 0.20257466E+04</pdfrwt>
<totfact> 0.83002995E+00</totfact>
</mgrwt>
</event>
<event>
 6    1  0.1028026E-006  0.2553687E+04  0.7818608E-02  0.8384105E-01
         -1   -1    0    0    0  501 -0.00000000000E+00  0.00000000000E+00  0.23298987206E+04  0.23298987206E+04  0.00000000000E+00 0.  1.
          1   -1    0    0  501    0  0.00000000000E+00 -0.00000000000E+00 -0.69974235883E+03  0.69974235883E+03  0.00000000000E+00 0. -1.
         23    2    1    2    0    0  0.12281221605E+04 -0.22500782127E+03  0.50823465837E+03  0.13510640423E+04  0.90327280755E+02 0.  0.
         13    1    3    3    0    0  0.32551552736E+03 -0.50061346452E+02  0.17639889047E+03  0.37360817111E+03  0.00000000000E+00 0.  1.
        -13    1    3    3    0    0  0.90260663319E+03 -0.17494647482E+03  0.33183576790E+03  0.97745587122E+03  0.00000000000E+00 0. -1.
         22    1    1    2    0    0 -0.12281221605E+04  0.22500782127E+03  0.11219217034E+04  0.16785770371E+04  0.00000000000E+00 0.  1.
<mgrwt>
<rscale>  0 0.25536866E+04</rscale>
<asrwt>0</asrwt>
<pdfrwt beam="1">  1        1 0.10765267E+00 0.25536866E+04</pdfrwt>
<pdfrwt beam="2">  1       -1 0.35844595E+00 0.25536866E+04</pdfrwt>
<totfact> 0.32916779E-01</totfact>
</mgrwt>
</event>
<event>
 6    1  0.1028026E-006  0.7370245E+03  0.7818608E-02  0.9655930E-01
          2   -1    0    0  501    0  0.00000000000E+00  0.00000000000E+00  0.17091350940E+03  0.17091350940E+03  0.00000000000E+00 0. -1.
         -2   -1    0    0    0  501 -0.00000000000E+00 -0.00000000000E+00 -0.79456133554E+03  0.79456133554E+03  0.00000000000E+00 0.  1.
         23    2    1    2    0    0  0.15139156214E+03 -0.33013723246E+03 -0.30610827827E+03  0.48304209129E+03  0.87848657321E+02 0.  0.
         13    1    3    3    0    0  0.15794815942E+03 -0.29336155967E+03 -0.29227334539E+03  0.44320687515E+03  0.00000000000E+00 0.  1.
        -13    1    3    3    0    0 -0.65565972862E+01 -0.36775672788E+02 -0.13834932877E+02  0.39835216137E+02  0.00000000000E+00 0. -1.
         22    1    1    2    0    0 -0.15139156214E+03  0.33013723246E+03 -0.31753954787E+03  0.48243275366E+03  0.00000000000E+00 0.  1.
<mgrwt>
<rscale>  0 0.73702447E+03</rscale>
<asrwt>0</asrwt>
<pdfrwt beam="1">  1        2 0.26294386E-01 0.73702447E+03</pdfrwt>
<pdfrwt beam="2">  1       -2 0.12224021E+00 0.73702447E+03</pdfrwt>
<totfact> 0.10589323E+02</totfact>
</mgrwt>
</event>
<event>
 6    1  0.1028026E-006  0.1308237E+04  0.7818608E-02  0.9023058E-01
         -1   -1    0    0    0  501 -0.00000000000E+00  0.00000000000E+00  0.34420556564E+03  0.34420556564E+03  0.00000000000E+00 0.  1.
          1   -1    0    0  501    0  0.00000000000E+00 -0.00000000000E+00 -0.12430688295E+04  0.12430688295E+04  0.00000000000E+00 0. -1.
         23    2    1    2    0    0  0.56422037053E+02  0.13255077980E+03 -0.12218724668E+04  0.12335964333E+04  0.89636375384E+02 0.  0.
         13    1    3    3    0    0  0.65364857019E+02  0.11038291420E+03 -0.73308435844E+03  0.74422417917E+03  0.00000000000E+00 0. -1.
        -13    1    3    3    0    0 -0.89428199660E+01  0.22167865596E+02 -0.48878810835E+03  0.48937225417E+03  0.00000000000E+00 0.  1.
         22    1    1    2    0    0 -0.56422037053E+02 -0.13255077980E+03  0.32300920292E+03  0.35367796180E+03  0.00000000000E+00 0.  1.
<mgrwt>
<rscale>  0 0.13082373E+04</rscale>
<asrwt>0</asrwt>
<pdfrwt beam="1">  1        1 0.19124136E+00 0.13082373E+04</pdfrwt>
<pdfrwt beam="2">  1       -1 0.52954702E-01 0.13082373E+04</pdfrwt>
<totfact> 0.35090259E+01</totfact>
</mgrwt>
</event>
<event>
 6    1  0.1028026E-006  0.2985632E+04  0.7818608E-02  0.8247846E-01
          1   -1    0    0  501    0  0.00000000000E+00  0.00000000000E+00  0.24434980010E+04  0.24434980010E+04  0.00000000000E+00 0. -1.
         -1   -1    0    0    0  501 -0.00000000000E+00 -0.00000000000E+00 -0.91201189847E+03  0.91201189847E+03  0.00000000000E+00 0.  1.
         23    2    1    2    0    0 -0.70759932750E+03  0.82018727319E+03 -0.38529891341E+03  0.11538131064E+04  0.97084810385E+02 0.  0.
         11    1    3    3    0    0 -0.20478513573E+02  0.51842347510E+02 -0.31430433888E+02  0.63991176641E+02  0.00000000000E+00 0.  1.
        -11    1    3    3    0    0 -0.68712081392E+03  0.76834492568E+03 -0.35386847952E+03  0.10898219297E+04  0.00000000000E+00 0. -1.
         22    1    1    2    0    0  0.70759932750E+03 -0.82018727319E+03  0.19167850160E+04  0.22016967931E+04  0.00000000000E+00 0. -1.
<mgrwt>
<rscale>  0 0.29856318E+04</rscale>
<asrwt>0</asrwt>
<pdfrwt beam="1">  1        1 0.37592277E+00 0.29856318E+04</pdfrwt>
<pdfrwt beam="2">  1       -1 0.14030952E+00 0.29856318E+04</pdfrwt>
<totfact> 0.52627480E-01</totfact>
</mgrwt>
</event>
<event>
 6    1  0.1028026E-006  0.2571693E+04  0.7818608E-02  0.8377880E-01
          1   -1    0    0  501    0  0.00000000000E+00  0.00000000000E+00  0.30076725843E+04  0.30076725843E+04  0.00000000000E+00 0. -1.
         -1   -1    0    0    0  501 -0.00000000000E+00 -0.00000000000E+00 -0.54972789187E+03  0.54972789187E+03  0.00000000000E+00 0.  1.
         23    2    1    2    0    0 -0.12094305399E+03  0.88516139228E+03 -0.45704671305E+02  0.89913072891E+03  0.90604845279E+02 0.  0.
         11    1    3    3    0    0 -0.12804223334E+02  0.42304459900E+03 -0.13931929486E+02  0.42346756610E+03  0.00000000000E+00 0. -1.
        -11    1    3    3    0    0 -0.10813883065E+03  0.46211679328E+03 -0.31772741819E+02  0.47566316281E+03  0.00000000000E+00 0.  1.
         22    1    1    2    0    0  0.12094305399E+03 -0.88516139228E+03  0.25036493638E+04  0.26582697473E+04  0.00000000000E+00 0. -1.
<mgrwt>
<rscale>  0 0.25716932E+04</rscale>
<asrwt>0</asrwt>
<pdfrwt beam="1">  1        1 0.46271885E+00 0.25716932E+04</pdfrwt>
<pdfrwt beam="2">  1       -1 0.84573524E-01 0.25716932E+04</pdfrwt>
<totfact> 0.72096163E-01</totfact>
</mgrwt>
</event>
<event>
 6    1  0.1028026E-006  0.2098974E+04  0.7818608E-02  0.8561695E-01
          2   -1    0    0  501    0  0.00000000000E+00  0.00000000000E+00  0.26249472252E+04  0.26249472252E+04  0.00000000000E+00 0. -1.
         -2   -1    0    0    0  501 -0.00000000000E+00 -0.00000000000E+00 -0.41959829070E+03  0.41959829070E+03  0.00000000000E+00 0.  1.
         23    2    1    2    0    0  0.18699556893E+03  0.93163492086E+03  0.17443888269E+04  0.19884228008E+04  0.89564985680E+02 0.  0.
         13    1    3    3    0    0  0.15309849159E+03  0.85915958907E+03  0.16285373629E+04  0.18476277466E+04  0.00000000000E+00 0.  1.
        -13    1    3    3    0    0  0.33897077344E+02  0.72475331793E+02  0.11585146397E+03  0.14079505415E+03  0.00000000000E+00 0. -1.
         22    1    1    2    0    0 -0.18699556893E+03 -0.93163492086E+03  0.46096010758E+03  0.10561227151E+04  0.00000000000E+00 0.  1.
<mgrwt>
<rscale>  0 0.20989744E+04</rscale>
<asrwt>0</asrwt>
<pdfrwt beam="1">  1        2 0.40383802E+00 0.20989744E+04</pdfrwt>
<pdfrwt beam="2">  1       -2 0.64553585E-01 0.20989744E+04</pdfrwt>
<totfact> 0.60113690E+00</totfact>
</mgrwt>
</event>
<event>
 6    1  0.1028026E-006  0.1013239E+04  0.7818608E-02  0.9294142E-01
         -1   -1    0    0    0  501 -0.00000000000E+00  0.00000000000E+00  0.39204324240E+03  0.39204324240E+03  0.00000000000E+00 0.  1.
          1   -1    0    0  501    0  0.00000000000E+00 -0.00000000000E+00 -0.65468176340E+03  0.65468176340E+03  0.00000000000E+00 0. -1.
         23    2    1    2    0    0 -0.45003332464E+03 -0.81874672685E+02 -0.34728931894E+03  0.58153771781E+03  0.91338879275E+02 0.  0.
         13    1    3    3    0    0 -0.28909547281E+03 -0.36147777608E+02 -0.16801536747E+03  0.33632130164E+03  0.00000000000E+00 0.  1.
        -13    1    3    3    0    0 -0.16093785183E+03 -0.45726895077E+02 -0.17927395147E+03  0.24521641617E+03  0.00000000000E+00 0. -1.
         22    1    1    2    0    0  0.45003332464E+03  0.81874672685E+02  0.84650797946E+02  0.46518728799E+03  0.00000000000E+00 0.  1.
<mgrwt>
<rscale>  0 0.10132395E+04</rscale>
<asrwt>0</asrwt>
<pdfrwt beam="1">  1        1 0.10072027E+00 0.10132395E+04</pdfrwt>
<pdfrwt beam="2">  1       -1 0.60314345E-01 0.10132395E+04</pdfrwt>
<totfact> 0.84164248E+01</totfact>
</mgrwt>
</event>
<event>
 6    1  0.1874755E-006  0.4029158E+04  0.7818608E-02  0.7998690E-01
         -2   -1    0    0    0  501 -0.00000000000E+00  0.00000000000E+00  0.14451920694E+04  0.14451920694E+04  0.00000000000E+00 0.  1.
          2   -1    0    0  501    0  0.00000000000E+00 -0.00000000000E+00 -0.28082972488E+04  0.28082972488E+04  0.00000000000E+00 0. -1.
         23    2    1    2    0    0 -0.19767173858E+04 -0.16391258737E+03 -0.10479421724E+04  0.22451052214E+04  0.89642059318E+02 0.  0.
         13    1    3    3    0    0 -0.12215953365E+04 -0.14467550689E+03 -0.65490672672E+03  0.13936028807E+04  0.00000000000E+00 0. -1.
        -13    1    3    3    0    0 -0.75512204925E+03 -0.19237080479E+02 -0.39303544570E+03  0.85150234064E+03  0.00000000000E+00 0.  1.
         22    1    1    2    0    0  0.19767173858E+04  0.16391258737E+03 -0.31516300701E+03  0.20083840968E+04  0.00000000000E+00 0.  1.
<mgrwt>
<rscale>  0 0.40291582E+04</rscale>
<asrwt>0</asrwt>
<pdfrwt beam="1">  1        2 0.43204573E+00 0.40291582E+04</pdfrwt>
<pdfrwt beam="2">  1       -2 0.22233724E+00 0.40291582E+04</pdfrwt>
<totfact> 0.17180045E-01</totfact>
</mgrwt>
</event>
<event>
 6    1  0.1028026E-006  0.3907101E+04  0.7818608E-02  0.8023554E-01
          2   -1    0    0  501    0  0.00000000000E+00  0.00000000000E+00  0.17775947678E+04  0.17775947678E+04  0.00000000000E+00 0. -1.
         -2   -1    0    0    0  501 -0.00000000000E+00 -0.00000000000E+00 -0.21469228541E+04  0.21469228541E+04  0.00000000000E+00 0.  1.
         23    2    1    2    0    0  0.75078025011E+03  0.10802672970E+04 -0.16339664008E+04  0.20997002384E+04  0.90810105809E+02 0.  0.
         11    1    3    3    0    0  0.39115680982E+03  0.59510355327E+03 -0.94971605199E+03  0.11870604316E+04  0.00000000000E+00 0.  1.
        -11    1    3    3    0    0  0.35962344028E+03  0.48516374370E+03 -0.68425034877E+03  0.91263980671E+03  0.00000000000E+00 0. -1.
         22    1    1    2    0    0 -0.75078025011E+03 -0.10802672970E+04  0.12646383144E+04  0.18248173835E+04  0.00000000000E+00 0. -1.
<mgrwt>
<rscale>  0 0.39071006E+04</rscale>
<asrwt>0</asrwt>
<pdfrwt beam="1">  1        2 0.27347612E+00 0.39071006E+04</pdfrwt>
<pdfrwt beam="2">  1       -2 0.33029582E+00 0.39071006E+04</pdfrwt>
<totfact> 0.14586334E-01</totfact>
</mgrwt>
</event>
<event>
 6    1  0.1028026E-006  0.1805235E+04  0.7818608E-02  0.8703520E-01
          2   -1    0    0  501    0  0.00000000000E+00  0.00000000000E+00  0.10404228405E+04  0.10404228405E+04  0.00000000000E+00 0. -1.
         -2   -1    0    0    0  501 -0.00000000000E+00 -0.00000000000E+00 -0.78306504861E+03  0.78306504861E+03  0.00000000000E+00 0.  1.
         23    2    1    2    0    0 -0.55383207746E+02  0.88152608912E+03  0.30470010687E+03  0.93895589974E+03  0.92954187797E+02 0.  0.
         11    1    3    3    0    0 -0.18998655967E+02  0.21180878573E+03  0.11586559818E+03  0.24217503480E+03  0.00000000000E+00 0. -1.
        -11    1    3    3    0    0 -0.36384551779E+02  0.66971730339E+03  0.18883450870E+03  0.69678086494E+03  0.00000000000E+00 0.  1.
         22    1    1    2    0    0  0.55383207746E+02 -0.88152608912E+03 -0.47342314955E+02  0.88453198940E+03  0.00000000000E+00 0. -1.
<mgrwt>
<rscale>  0 0.18052355E+04</rscale>
<asrwt>0</asrwt>
<pdfrwt beam="1">  1        2 0.16006505E+00 0.18052355E+04</pdfrwt>
<pdfrwt beam="2">  1       -2 0.12047155E+00 0.18052355E+04</pdfrwt>
<totfact> 0.11779656E+01</totfact>
</mgrwt>
</event>
<event>
 6    1  0.1028026E-006  0.1608490E+04  0.7818608E-02  0.8815349E-01
         -1   -1    0    0    0  501 -0.00000000000E+00  0.00000000000E+00  0.20783897634E+04  0.20783897634E+04  0.00000000000E+00 0.  1.
          1   -1    0    0  501    0  0.00000000000E+00 -0.00000000000E+00 -0.31120712447E+03  0.31120712447E+03  0.00000000000E+00 0. -1.
         23    2    1    2    0    0 -0.74543215957E+03  0.43613300335E+02  0.45586052770E+03  0.88057836450E+03  0.10019087193E+03 0.  0.
         11    1    3    3    0    0 -0.52366123290E+03 -0.55768049756E+01  0.35059101955E+03  0.63021127456E+03  0.00000000000E+00 0. -1.
        -11    1    3    3    0    0 -0.22177092667E+03  0.49190105311E+02  0.10526950815E+03  0.25036708994E+03  0.00000000000E+00 0.  1.
         22    1    1    2    0    0  0.74543215957E+03 -0.43613300335E+02  0.13113221112E+04  0.15090185234E+04  0.00000000000E+00 0.  1.
<mgrwt>
<rscale>  0 0.16084896E+04</rscale>
<asrwt>0</asrwt>
<pdfrwt beam="1">  1        1 0.47878020E-01 0.16084896E+04</pdfrwt>
<pdfrwt beam="2">  1       -1 0.31975226E+00 0.16084896E+04</pdfrwt>
<totfact> 0.19738983E+00</totfact>
</mgrwt>
</event>
<event>
 6    1  0.1028026E-006  0.2259589E+04  0.7818608E-02  0.8494027E-01
          2   -1    0    0  501    0  0.00000000000E+00  0.00000000000E+00  0.29474595752E+04  0.29474595752E+04  0.00000000000E+00 0. -1.
         -2   -1    0    0    0  501 -0.00000000000E+00 -0.00000000000E+00 -0.43306316440E+03  0.43306316440E+03  0.00000000000E+00 0.  1.
         23    2    1    2    0    0 -0.14052520593E+03 -0.20170585187E+03  0.29056898050E+04  0.29184154960E+04  0.11697512601E+03 0.  0.
         11    1    3    3    0    0 -0.24679940865E+02 -0.11409461421E+03  0.91170302487E+03  0.91914584590E+03  0.00000000000E+00 0. -1.
        -11    1    3    3    0    0 -0.11584526507E+03 -0.87611237659E+02  0.19939867802E+04  0.19992696501E+04  0.00000000000E+00 0.  1.
         22    1    1    2    0    0  0.14052520593E+03  0.20170585187E+03 -0.39129339425E+03  0.46210724357E+03  0.00000000000E+00 0.  1.
<mgrwt>
<rscale>  0 0.22595895E+04</rscale>
<asrwt>0</asrwt>
<pdfrwt beam="1">  1        2 0.45345531E+00 0.22595895E+04</pdfrwt>
<pdfrwt beam="2">  1       -2 0.66625104E-01 0.22595895E+04</pdfrwt>
<totfact> 0.35382049E+00</totfact>
</mgrwt>
</event>
<event>
 6    1  0.1028026E-006  0.7967633E+03  0.7818608E-02  0.9564714E-01
          2   -1    0    0  501    0  0.00000000000E+00  0.00000000000E+00  0.11871953135E+04  0.11871953135E+04  0.00000000000E+00 0. -1.
         -2   -1    0    0    0  501 -0.00000000000E+00 -0.00000000000E+00 -0.13368307713E+03  0.13368307713E+03  0.00000000000E+00 0.  1.
         23    2    1    2    0    0 -0.17812284403E+03 -0.27646348497E+03  0.89162017522E+03  0.95431482786E+03  0.87008319852E+02 0.  0.
         11    1    3    3    0    0 -0.11890411671E+03 -0.20649310630E+03  0.52728720019E+03  0.57862715405E+03  0.00000000000E+00 0.  1.
        -11    1    3    3    0    0 -0.59218727323E+02 -0.69970378668E+02  0.36433297503E+03  0.37568767381E+03  0.00000000000E+00 0. -1.
         22    1    1    2    0    0  0.17812284403E+03  0.27646348497E+03  0.16189206115E+03  0.36656356277E+03  0.00000000000E+00 0.  1.
<mgrwt>
<rscale>  0 0.79676326E+03</rscale>
<asrwt>0</asrwt>
<pdfrwt beam="1">  1        2 0.18264543E+00 0.79676326E+03</pdfrwt>
<pdfrwt beam="2">  1       -2 0.20566628E-01 0.79676326E+03</pdfrwt>
<totfact> 0.39401820E+02</totfact>
</mgrwt>
</event>
<event>
 6    1  0.1028026E-006  0.1711934E+04  0.7818608E-02  0.8754587E-01
         -2   -1    0    0    0  501 -0.00000000000E+00  0.00000000000E+00  0.43667059128E+03  0.43667059128E+03  0.00000000000E+00 0.  1.
          2   -1    0    0  501    0  0.00000000000E+00 -0.00000000000E+00 -0.16778777303E+04  0.16778777303E+04  0.00000000000E+00 0. -1.
         23    2    1    2    0    0 -0.44234019862E+03 -0.61851181500E+03 -0.11007889023E+04  0.13412831680E+04  0.95302742218E+02 0.  0.
         11    1    3    3    0    0 -0.31253183114E+03 -0.47594066222E+03 -0.75857445684E+03  0.94848872740E+03  0.00000000000E+00 0.  1.
        -11    1    3    3    0    0 -0.12980836749E+03 -0.14257115278E+03 -0.34221444545E+03  0.39279444057E+03  0.00000000000E+00 0. -1.
         22    1    1    2    0    0  0.44234019862E+03  0.61851181500E+03 -0.14041823677E+03  0.77326515364E+03  0.00000000000E+00 0. -1.
<mgrwt>
<rscale>  0 0.17119344E+04</rscale>
<asrwt>0</asrwt>
<pdfrwt beam="1">  1        2 0.25813503E+00 0.17119344E+04</pdfrwt>
<pdfrwt beam="2">  1       -2 0.67180092E-01 0.17119344E+04</pdfrwt>
<totfact> 0.19497107E+01</totfact>
</mgrwt>
</event>
<event>
 6    1  0.1028026E-006  0.2151114E+04  0.7818608E-02  0.8539055E-01
          4   -1    0    0  501    0  0.00000000000E+00  0.00000000000E+00  0.90826070157E+03  0.90826070157E+03  0.00000000000E+00 0. -1.
         -4   -1    0    0    0  501 -0.00000000000E+00 -0.00000000000E+00 -0.12736686031E+04  0.12736686031E+04  0.00000000000E+00 0.  1.
         23    2    1    2    0    0 -0.77221986923E+03  0.33667518884E+03 -0.85817045797E+03  0.12059740566E+04  0.90791965677E+02 0.  0.
         11    1    3    3    0    0 -0.48884101667E+03  0.23901989665E+03 -0.60417670313E+03  0.81309626686E+03  0.00000000000E+00 0.  1.
        -11    1    3    3    0    0 -0.28337885255E+03  0.97655292196E+02 -0.25399375484E+03  0.39287778974E+03  0.00000000000E+00 0. -1.
         22    1    1    2    0    0  0.77221986923E+03 -0.33667518884E+03  0.49276255645E+03  0.97595524807E+03  0.00000000000E+00 0. -1.
<mgrwt>
<rscale>  0 0.21511143E+04</rscale>
<asrwt>0</asrwt>
<pdfrwt beam="1">  1        4 0.13973242E+00 0.21511143E+04</pdfrwt>
<pdfrwt beam="2">  1       -4 0.19594902E+00 0.21511143E+04</pdfrwt>
<totfact> 0.92254492E-02</totfact>
</mgrwt>
</event>
<event>
 6    1  0.1028026E-006  0.1877982E+04  0.7818608E-02  0.8665894E-01
         -2   -1    0    0    0  501 -0.00000000000E+00  0.00000000000E+00  0.10686398211E+04  0.10686398211E+04  0.00000000000E+00 0.  1.
          2   -1    0    0  501    0  0.00000000000E+00 -0.00000000000E+00 -0.82507156544E+03  0.82507156544E+03  0.00000000000E+00 0. -1.
         23    2    1    2    0    0 -0.15400937677E+03 -0.27553294709E+03  0.10113004007E+04  0.10636210664E+04  0.94466815787E+02 0.  0.
         11    1    3    3    0    0 -0.12172726861E+03 -0.19018803162E+03  0.83645575793E+03  0.86639901331E+03  0.00000000000E+00 0. -1.
        -11    1    3    3    0    0 -0.32282108158E+02 -0.85344915473E+02  0.17484464281E+03  0.19722205309E+03  0.00000000000E+00 0.  1.
         22    1    1    2    0    0  0.15400937677E+03  0.27553294709E+03 -0.76773214506E+03  0.83009032016E+03  0.00000000000E+00 0. -1.
<mgrwt>
<rscale>  0 0.18779822E+04</rscale>
<asrwt>0</asrwt>
<pdfrwt beam="1">  1        2 0.12693409E+00 0.18779822E+04</pdfrwt>
<pdfrwt beam="2">  1       -2 0.16440613E+00 0.18779822E+04</pdfrwt>
<totfact> 0.72472209E+00</totfact>
</mgrwt>
</event>
<event>
 6    1  0.1028026E-006  0.1666822E+04  0.7818608E-02  0.8780516E-01
         -1   -1    0    0    0  501 -0.00000000000E+00  0.00000000000E+00  0.53660627318E+03  0.53660627318E+03  0.00000000000E+00 0.  1.
          1   -1    0    0  501    0  0.00000000000E+00 -0.00000000000E+00 -0.12943834512E+04  0.12943834512E+04  0.00000000000E+00 0. -1.
         23    2    1    2    0    0 -0.81899010107E+03 -0.90916476342E+02 -0.49214361347E+03  0.96521158770E+03  0.10206606403E+03 0.  0.
         11    1    3    3    0    0 -0.13042144183E+03  0.18108659737E+01 -0.11902316596E+03  0.17657730817E+03  0.00000000000E+00 0. -1.
        -11    1    3    3    0    0 -0.68856865923E+03 -0.92727342316E+02 -0.37312044751E+03  0.78863427952E+03  0.00000000000E+00 0.  1.
         22    1    1    2    0    0  0.81899010107E+03  0.90916476342E+02 -0.26563356454E+03  0.86577813666E+03  0.00000000000E+00 0.  1.
<mgrwt>
<rscale>  0 0.16668225E+04</rscale>
<asrwt>0</asrwt>
<pdfrwt beam="1">  1        1 0.19913592E+00 0.16668225E+04</pdfrwt>
<pdfrwt beam="2">  1       -1 0.82554811E-01 0.16668225E+04</pdfrwt>
<totfact> 0.12705319E+01</totfact>
</mgrwt>
</event>
<event>
 6    1  0.1028026E-006  0.2721419E+04  0.7818608E-02  0.8328089E-01
          1   -1    0    0  501    0  0.00000000000E+00  0.00000000000E+00  0.13261031411E+04  0.13261031411E+04  0.00000000000E+00 0. -1.
         -1   -1    0    0    0  501 -0.00000000000E+00 -0.00000000000E+00 -0.13962186045E+04  0.13962186045E+04  0.00000000000E+00 0.  1.
         23    2    1    2    0    0 -0.99757879560E+03  0.91941677927E+03  0.49230958072E+02  0.13604354670E+04  0.88714740051E+02 0.  0.
         13    1    3    3    0    0 -0.51376073581E+03  0.46228831986E+03  0.68680630435E+02  0.69453409804E+03  0.00000000000E+00 0.  1.
        -13    1    3    3    0    0 -0.48381805979E+03  0.45712845941E+03 -0.19449672363E+02  0.66590136893E+03  0.00000000000E+00 0. -1.
         22    1    1    2    0    0  0.99757879560E+03 -0.91941677927E+03 -0.11934642149E+03  0.13618862786E+04  0.00000000000E+00 0. -1.
<mgrwt>
<rscale>  0 0.27214187E+04</rscale>
<asrwt>0</asrwt>
<pdfrwt beam="1">  1        1 0.20401587E+00 0.27214187E+04</pdfrwt>
<pdfrwt beam="2">  1       -1 0.21480286E+00 0.27214187E+04</pdfrwt>
<totfact> 0.90089273E-01</totfact>
</mgrwt>
</event>
<event>
 6    1  0.1028026E-006  0.2483856E+04  0.7818608E-02  0.8408759E-01
          2   -1    0    0  501    0  0.00000000000E+00  0.00000000000E+00  0.19476053496E+04  0.19476053496E+04  0.00000000000E+00 0. -1.
         -2   -1    0    0    0  501 -0.00000000000E+00 -0.00000000000E+00 -0.79193948464E+03  0.79193948464E+03  0.00000000000E+00 0.  1.
         23    2    1    2    0    0  0.32538746373E+02  0.82006668579E+03 -0.44677066768E+03  0.93916404665E+03  0.94111305700E+02 0.  0.
         13    1    3    3    0    0  0.55413444813E+02  0.36139229133E+03 -0.22355340804E+03  0.42854540523E+03  0.00000000000E+00 0.  1.
        -13    1    3    3    0    0 -0.22874698439E+02  0.45867439446E+03 -0.22321725964E+03  0.51061864142E+03  0.00000000000E+00 0. -1.
         22    1    1    2    0    0 -0.32538746373E+02 -0.82006668579E+03  0.16024365326E+04  0.18003807875E+04  0.00000000000E+00 0. -1.
<mgrwt>
<rscale>  0 0.24838563E+04</rscale>
<asrwt>0</asrwt>
<pdfrwt beam="1">  1        2 0.29963159E+00 0.24838563E+04</pdfrwt>
<pdfrwt beam="2">  1       -2 0.12183684E+00 0.24838563E+04</pdfrwt>
<totfact> 0.32624392E+00</totfact>
</mgrwt>
</event>
<event>
 6    1  0.1028026E-006  0.1988452E+04  0.7818608E-02  0.8612039E-01
         -3   -1    0    0    0  501 -0.00000000000E+00  0.00000000000E+00  0.12747754443E+04  0.12747754443E+04  0.00000000000E+00 0.  1.
          3   -1    0    0  501    0  0.00000000000E+00 -0.00000000000E+00 -0.77541952861E+03  0.77541952861E+03  0.00000000000E+00 0. -1.
         23    2    1    2    0    0 -0.93813942108E+03 -0.83339634736E+02 -0.71877778543E+02  0.94866921218E+03  0.88066968762E+02 0.  0.
         11    1    3    3    0    0 -0.74747752481E+03 -0.36091126509E+02 -0.75994243939E+02  0.75219701184E+03  0.00000000000E+00 0.  1.
        -11    1    3    3    0    0 -0.19066189627E+03 -0.47248508228E+02  0.41164653959E+01  0.19647220034E+03  0.00000000000E+00 0. -1.
         22    1    1    2    0    0  0.93813942108E+03  0.83339634736E+02  0.57123369421E+03  0.11015257607E+04  0.00000000000E+00 0.  1.
<mgrwt>
<rscale>  0 0.19884524E+04</rscale>
<asrwt>0</asrwt>
<pdfrwt beam="1">  1        3 0.11929531E+00 0.19884524E+04</pdfrwt>
<pdfrwt beam="2">  1       -3 0.19611930E+00 0.19884524E+04</pdfrwt>
<totfact> 0.21645970E-01</totfact>
</mgrwt>
</event>
<event>
 6    1  0.1028026E-006  0.4653270E+04  0.7818608E-02  0.7884340E-01
         -1   -1    0    0    0  501 -0.00000000000E+00  0.00000000000E+00  0.14446300275E+04  0.14446300275E+04  0.00000000000E+00 0.  1.
          1   -1    0    0  501    0  0.00000000000E+00 -0.00000000000E+00 -0.37471395593E+04  0.37471395593E+04  0.00000000000E+00 0. -1.
         23    2    1    2    0    0  0.16452175756E+04 -0.32098876565E+03 -0.29505137367E+04  0.33946373967E+04  0.90868508900E+02 0.  0.
         11    1    3    3    0    0  0.80161783287E+03 -0.19810692700E+03 -0.14119080637E+04  0.16356411235E+04  0.00000000000E+00 0. -1.
        -11    1    3    3    0    0  0.84359974273E+03 -0.12288183865E+03 -0.15386056730E+04  0.17589962732E+04  0.00000000000E+00 0.  1.
         22    1    1    2    0    0 -0.16452175756E+04  0.32098876565E+03  0.64800420495E+03  0.17971321900E+04  0.00000000000E+00 0.  1.
<mgrwt>
<rscale>  0 0.46532700E+04</rscale>
<asrwt>0</asrwt>
<pdfrwt beam="1">  1        1 0.57648300E+00 0.46532700E+04</pdfrwt>
<pdfrwt beam="2">  1       -1 0.22225078E+00 0.46532700E+04</pdfrwt>
<totfact> 0.12417472E-02</totfact>
</mgrwt>
</event>
<event>
 6    1  0.1028026E-006  0.2735666E+04  0.7818608E-02  0.8323524E-01
          1   -1    0    0  501    0  0.00000000000E+00  0.00000000000E+00  0.30185404802E+04  0.30185404802E+04  0.00000000000E+00 0. -1.
         -1   -1    0    0    0  501 -0.00000000000E+00 -0.00000000000E+00 -0.61982529252E+03  0.61982529252E+03  0.00000000000E+00 0.  1.
         23    2    1    2    0    0 -0.95196508942E+03 -0.30799963508E+03  0.24381814942E+04  0.26370372073E+04  0.90193832800E+02 0.  0.
         11    1    3    3    0    0 -0.66157779447E+03 -0.17789346676E+03  0.17268010044E+04  0.18577332889E+04  0.00000000000E+00 0.  1.
        -11    1    3    3    0    0 -0.29038729495E+03 -0.13010616832E+03  0.71138048972E+03  0.77930391842E+03  0.00000000000E+00 0. -1.
         22    1    1    2    0    0  0.95196508942E+03  0.30799963508E+03 -0.39466306438E+02  0.10013285655E+04  0.00000000000E+00 0.  1.
<mgrwt>
<rscale>  0 0.27356665E+04</rscale>
<asrwt>0</asrwt>
<pdfrwt beam="1">  1        1 0.46439083E+00 0.27356665E+04</pdfrwt>
<pdfrwt beam="2">  1       -1 0.95357739E-01 0.27356665E+04</pdfrwt>
<totfact> 0.53521045E-01</totfact>
</mgrwt>
</event>
<event>
 6    1  0.1028026E-006  0.1549294E+04  0.7818608E-02  0.8852319E-01
         -1   -1    0    0    0  501 -0.00000000000E+00  0.00000000000E+00  0.34295802383E+03  0.34295802383E+03  0.00000000000E+00 0.  1.
          1   -1    0    0  501    0  0.00000000000E+00 -0.00000000000E+00 -0.17497123108E+04  0.17497123108E+04  0.00000000000E+00 0. -1.
         23    2    1    2    0    0  0.12140941254E+03 -0.62130996647E+03 -0.11020113049E+03  0.64982023589E+03  0.96725022217E+02 0.  0.
         11    1    3    3    0    0  0.13202577259E+01 -0.13087634626E+03  0.84121080799E+01  0.13115305812E+03  0.00000000000E+00 0.  1.
        -11    1    3    3    0    0  0.12008915481E+03 -0.49043362021E+03 -0.11861323857E+03  0.51866717777E+03  0.00000000000E+00 0. -1.
         22    1    1    2    0    0 -0.12140941254E+03  0.62130996647E+03 -0.12965531565E+04  0.14428500988E+04  0.00000000000E+00 0. -1.
<mgrwt>
<rscale>  0 0.15492939E+04</rscale>
<asrwt>0</asrwt>
<pdfrwt beam="1">  1        1 0.26918651E+00 0.15492939E+04</pdfrwt>
<pdfrwt beam="2">  1       -1 0.52762773E-01 0.15492939E+04</pdfrwt>
<totfact> 0.15379114E+01</totfact>
</mgrwt>
</event>
<event>
 6    1  0.1028026E-006  0.1707282E+04  0.7818608E-02  0.8757222E-01
          2   -1    0    0  501    0  0.00000000000E+00  0.00000000000E+00  0.28763284210E+04  0.28763284210E+04  0.00000000000E+00 0. -1.
         -2   -1    0    0    0  501 -0.00000000000E+00 -0.00000000000E+00 -0.25334469843E+03  0.25334469843E+03  0.00000000000E+00 0.  1.
         23    2    1    2    0    0  0.11628747170E+03  0.24959614380E+03  0.27917275408E+04  0.28067250010E+04  0.90230583352E+02 0.  0.
         11    1    3    3    0    0  0.66054341578E+02  0.74233885587E+02  0.69344912052E+03  0.70053231799E+03  0.00000000000E+00 0. -1.
        -11    1    3    3    0    0  0.50233130122E+02  0.17536225821E+03  0.20982784203E+04  0.21061926830E+04  0.00000000000E+00 0.  1.
         22    1    1    2    0    0 -0.11628747170E+03 -0.24959614380E+03 -0.16874381816E+03  0.32294811850E+03  0.00000000000E+00 0.  1.
<mgrwt>
<rscale>  0 0.17072815E+04</rscale>
<asrwt>0</asrwt>
<pdfrwt beam="1">  1        2 0.44251204E+00 0.17072815E+04</pdfrwt>
<pdfrwt beam="2">  1       -2 0.38976110E-01 0.17072815E+04</pdfrwt>
<totfact> 0.12340080E+01</totfact>
</mgrwt>
</event>
<event>
 6    1  0.1028026E-006  0.3591286E+04  0.7818608E-02  0.8092491E-01
          1   -1    0    0  501    0  0.00000000000E+00  0.00000000000E+00  0.20509686131E+04  0.20509686131E+04  0.00000000000E+00 0. -1.
         -1   -1    0    0    0  501 -0.00000000000E+00 -0.00000000000E+00 -0.15721027093E+04  0.15721027093E+04  0.00000000000E+00 0.  1.
         23    2    1    2    0    0 -0.15048955330E+03 -0.28947138679E+03  0.20198524336E+04  0.20479267974E+04  0.88088163260E+02 0.  0.
         13    1    3    3    0    0 -0.53199841703E+02 -0.39001353574E+02  0.29622792356E+03  0.30348362630E+03  0.00000000000E+00 0. -1.
        -13    1    3    3    0    0 -0.97289711596E+02 -0.25047003321E+03  0.17236245101E+04  0.17444431711E+04  0.00000000000E+00 0.  1.
         22    1    1    2    0    0  0.15048955330E+03  0.28947138679E+03 -0.15409865299E+04  0.15751445250E+04  0.00000000000E+00 0.  1.
<mgrwt>
<rscale>  0 0.35912857E+04</rscale>
<asrwt>0</asrwt>
<pdfrwt beam="1">  1        1 0.31553363E+00 0.35912857E+04</pdfrwt>
<pdfrwt beam="2">  1       -1 0.24186196E+00 0.35912857E+04</pdfrwt>
<totfact> 0.17562167E-01</totfact>
</mgrwt>
</event>
<event>
 6    1  0.1028026E-006  0.2710139E+04  0.7818608E-02  0.8331723E-01
         -2   -1    0    0    0  501 -0.00000000000E+00  0.00000000000E+00  0.45379660011E+03  0.45379660011E+03  0.00000000000E+00 0.  1.
          2   -1    0    0  501    0  0.00000000000E+00 -0.00000000000E+00 -0.40463369949E+04  0.40463369949E+04  0.00000000000E+00 0. -1.
         23    2    1    2    0    0 -0.30596051901E+03  0.13007641822E+04 -0.14403035730E+04  0.19668111453E+04  0.90952747801E+02 0.  0.
         11    1    3    3    0    0 -0.10826629534E+03  0.48051069785E+03 -0.59584065633E+03  0.77307063661E+03  0.00000000000E+00 0.  1.
        -11    1    3    3    0    0 -0.19769422366E+03  0.82025348432E+03 -0.84446291664E+03  0.11937405087E+04  0.00000000000E+00 0. -1.
         22    1    1    2    0    0  0.30596051901E+03 -0.13007641822E+04 -0.21522368219E+04  0.25333224497E+04  0.00000000000E+00 0. -1.
<mgrwt>
<rscale>  0 0.27101395E+04</rscale>
<asrwt>0</asrwt>
<pdfrwt beam="1">  1        2 0.62251340E+00 0.27101395E+04</pdfrwt>
<pdfrwt beam="2">  1       -2 0.69814859E-01 0.27101395E+04</pdfrwt>
<totfact> 0.51470823E-01</totfact>
</mgrwt>
</event>
<event>
 6    1  0.1028026E-006  0.1979165E+04  0.7818608E-02  0.8616424E-01
          2   -1    0    0  501    0  0.00000000000E+00  0.00000000000E+00  0.89244855499E+03  0.89244855499E+03  0.00000000000E+00 0. -1.
         -2   -1    0    0    0  501 -0.00000000000E+00 -0.00000000000E+00 -0.10972881135E+04  0.10972881135E+04  0.00000000000E+00 0.  1.
         23    2    1    2    0    0 -0.83741835356E+03 -0.42780546362E+03 -0.40703942877E+03  0.10278781544E+04  0.81027094859E+02 0.  0.
         11    1    3    3    0    0 -0.70399886680E+03 -0.33245262481E+03 -0.35639375182E+03  0.85624509256E+03  0.00000000000E+00 0. -1.
        -11    1    3    3    0    0 -0.13341948676E+03 -0.95352838811E+02 -0.50645676947E+02  0.17163306182E+03  0.00000000000E+00 0.  1.
         22    1    1    2    0    0  0.83741835356E+03  0.42780546362E+03  0.20219987028E+03  0.96185851409E+03  0.00000000000E+00 0. -1.
<mgrwt>
<rscale>  0 0.19791647E+04</rscale>
<asrwt>0</asrwt>
<pdfrwt beam="1">  1        2 0.13729978E+00 0.19791647E+04</pdfrwt>
<pdfrwt beam="2">  1       -2 0.16881356E+00 0.19791647E+04</pdfrwt>
<totfact> 0.59987740E+00</totfact>
</mgrwt>
</event>
<event>
 6    1  0.1028026E-006  0.5220121E+04  0.7818608E-02  0.7795420E-01
          2   -1    0    0  501    0  0.00000000000E+00  0.00000000000E+00  0.19164455223E+04  0.19164455223E+04  0.00000000000E+00 0. -1.
         -2   -1    0    0    0  501 -0.00000000000E+00 -0.00000000000E+00 -0.35547140411E+04  0.35547140411E+04  0.00000000000E+00 0.  1.
         23    2    1    2    0    0  0.20045105611E+03  0.20768162195E+04 -0.24615158833E+04  0.32281521049E+04  0.92516665011E+02 0.  0.
         13    1    3    3    0    0  0.14052443031E+02  0.15031280679E+03 -0.14302991644E+03  0.20796386234E+03  0.00000000000E+00 0. -1.
        -13    1    3    3    0    0  0.18639861308E+03  0.19265034127E+04 -0.23184859668E+04  0.30201882426E+04  0.00000000000E+00 0.  1.
         22    1    1    2    0    0 -0.20045105611E+03 -0.20768162195E+04  0.82324736444E+03  0.22430074584E+04  0.00000000000E+00 0. -1.
<mgrwt>
<rscale>  0 0.52201210E+04</rscale>
<asrwt>0</asrwt>
<pdfrwt beam="1">  1        2 0.29483778E+00 0.52201210E+04</pdfrwt>
<pdfrwt beam="2">  1       -2 0.54687908E+00 0.52201210E+04</pdfrwt>
<totfact> 0.47699779E-03</totfact>
</mgrwt>
</event>
<event>
 6    1  0.1028026E-006  0.3182541E+04  0.7818608E-02  0.8193443E-01
          1   -1    0    0  501    0  0.00000000000E+00  0.00000000000E+00  0.39537106581E+04  0.39537106581E+04  0.00000000000E+00 0. -1.
         -1   -1    0    0    0  501 -0.00000000000E+00 -0.00000000000E+00 -0.64044710552E+03  0.64044710552E+03  0.00000000000E+00 0.  1.
         23    2    1    2    0    0 -0.93673374645E+02 -0.10036729167E+04  0.34329425955E+04  0.35790434360E+04  0.91230631822E+02 0.  0.
         11    1    3    3    0    0 -0.64518313113E+02 -0.26975051401E+03  0.97996050900E+03  0.10184549827E+04  0.00000000000E+00 0. -1.
        -11    1    3    3    0    0 -0.29155061532E+02 -0.73392240273E+03  0.24529820865E+04  0.25605884533E+04  0.00000000000E+00 0.  1.
         22    1    1    2    0    0  0.93673374645E+02  0.10036729167E+04 -0.11967904285E+03  0.10151143277E+04  0.00000000000E+00 0.  1.
<mgrwt>
<rscale>  0 0.31825415E+04</rscale>
<asrwt>0</asrwt>
<pdfrwt beam="1">  1        1 0.60826316E+00 0.31825415E+04</pdfrwt>
<pdfrwt beam="2">  1       -1 0.98530327E-01 0.31825415E+04</pdfrwt>
<totfact> 0.86882474E-02</totfact>
</mgrwt>
</event>
<event>
 6    1  0.1028026E-006  0.2783756E+04  0.7818608E-02  0.8308329E-01
          1   -1    0    0  501    0  0.00000000000E+00  0.00000000000E+00  0.35342397223E+04  0.35342397223E+04  0.00000000000E+00 0. -1.
         -1   -1    0    0    0  501 -0.00000000000E+00 -0.00000000000E+00 -0.54815858262E+03  0.54815858262E+03  0.00000000000E+00 0.  1.
         23    2    1    2    0    0 -0.13001216303E+04 -0.37481554412E+03  0.10261077042E+04  0.17007394684E+04  0.93887022374E+02 0.  0.
         13    1    3    3    0    0 -0.11223846525E+04 -0.34781826397E+03  0.86188746037E+03  0.14572490683E+04  0.00000000000E+00 0. -1.
        -13    1    3    3    0    0 -0.17773697787E+03 -0.26997280152E+02  0.16422024378E+03  0.24349040003E+03  0.00000000000E+00 0.  1.
         22    1    1    2    0    0  0.13001216303E+04  0.37481554412E+03  0.19599734355E+04  0.23816588366E+04  0.00000000000E+00 0. -1.
<mgrwt>
<rscale>  0 0.27837556E+04</rscale>
<asrwt>0</asrwt>
<pdfrwt beam="1">  1        1 0.54372918E+00 0.27837556E+04</pdfrwt>
<pdfrwt beam="2">  1       -1 0.84332091E-01 0.27837556E+04</pdfrwt>
<totfact> 0.28339887E-01</totfact>
</mgrwt>
</event>
<event>
 6    1  0.1028026E-006  0.2304208E+04  0.7818608E-02  0.8476264E-01
          1   -1    0    0  501    0  0.00000000000E+00  0.00000000000E+00  0.18576597874E+04  0.18576597874E+04  0.00000000000E+00 0. -1.
         -1   -1    0    0    0  501 -0.00000000000E+00 -0.00000000000E+00 -0.71452473174E+03  0.71452473174E+03  0.00000000000E+00 0.  1.
         23    2    1    2    0    0 -0.94702286345E+03  0.38936215881E+03 -0.12759710353E+02  0.10279863762E+04  0.90210779702E+02 0.  0.
         11    1    3    3    0    0 -0.46428302254E+03  0.17842798315E+03 -0.49790802036E+02  0.49987437838E+03  0.00000000000E+00 0. -1.
        -11    1    3    3    0    0 -0.48273984091E+03  0.21093417566E+03  0.37031091683E+02  0.52811199780E+03  0.00000000000E+00 0.  1.
         22    1    1    2    0    0  0.94702286345E+03 -0.38936215881E+03  0.11558947660E+04  0.15441981430E+04  0.00000000000E+00 0. -1.
<mgrwt>
<rscale>  0 0.23042082E+04</rscale>
<asrwt>0</asrwt>
<pdfrwt beam="1">  1        1 0.28579381E+00 0.23042082E+04</pdfrwt>
<pdfrwt beam="2">  1       -1 0.10992688E+00 0.23042082E+04</pdfrwt>
<totfact> 0.25706512E+00</totfact>
</mgrwt>
</event>
<event>
 6    1  0.1028026E-006  0.1518850E+04  0.7818608E-02  0.8872014E-01
          1   -1    0    0  501    0  0.00000000000E+00  0.00000000000E+00  0.26324653987E+03  0.26324653987E+03  0.00000000000E+00 0. -1.
         -1   -1    0    0    0  501 -0.00000000000E+00 -0.00000000000E+00 -0.21908224320E+04  0.21908224320E+04  0.00000000000E+00 0.  1.
         23    2    1    2    0    0 -0.48050051805E+03  0.78109889312E+02 -0.19033821715E+04  0.19666602740E+04  0.88921536812E+02 0.  0.
         13    1    3    3    0    0 -0.30808334430E+03  0.10800247717E+02 -0.12619689016E+04  0.12990756332E+04  0.00000000000E+00 0. -1.
        -13    1    3    3    0    0 -0.17241717375E+03  0.67309641594E+02 -0.64141326996E+03  0.66758464072E+03  0.00000000000E+00 0.  1.
         22    1    1    2    0    0  0.48050051805E+03 -0.78109889312E+02 -0.24193720591E+02  0.48740869788E+03  0.00000000000E+00 0. -1.
<mgrwt>
<rscale>  0 0.15188501E+04</rscale>
<asrwt>0</asrwt>
<pdfrwt beam="1">  1        1 0.40499468E-01 0.15188501E+04</pdfrwt>
<pdfrwt beam="2">  1       -1 0.33704961E+00 0.15188501E+04</pdfrwt>
<totfact> 0.19083307E+00</totfact>
</mgrwt>
</event>
<event>
 6    1  0.1028026E-006  0.4479163E+04  0.7818608E-02  0.7914295E-01
          2   -1    0    0  501    0  0.00000000000E+00  0.00000000000E+00  0.24997587861E+04  0.24997587861E+04  0.00000000000E+00 0. -1.
         -2   -1    0    0    0  501 -0.00000000000E+00 -0.00000000000E+00 -0.20064833218E+04  0.20064833218E+04  0.00000000000E+00 0.  1.
         23    2    1    2    0    0  0.17682880433E+04  0.13523311214E+04  0.92876215786E+01  0.22281099129E+04  0.93517154751E+02 0.  0.
         13    1    3    3    0    0  0.12220564704E+04  0.97397683765E+03  0.35702404458E+02  0.15631146979E+04  0.00000000000E+00 0.  1.
        -13    1    3    3    0    0  0.54623157284E+03  0.37835428377E+03 -0.26414782879E+02  0.66499521500E+03  0.00000000000E+00 0. -1.
         22    1    1    2    0    0 -0.17682880433E+04 -0.13523311214E+04  0.48398784273E+03  0.22781321950E+04  0.00000000000E+00 0. -1.
<mgrwt>
<rscale>  0 0.44791626E+04</rscale>
<asrwt>0</asrwt>
<pdfrwt beam="1">  1        2 0.38457827E+00 0.44791626E+04</pdfrwt>
<pdfrwt beam="2">  1       -2 0.30868974E+00 0.44791626E+04</pdfrwt>
<totfact> 0.74298711E-02</totfact>
</mgrwt>
</event>
<event>
 6    1  0.1028026E-006  0.1051257E+04  0.7818608E-02  0.9254047E-01
          1   -1    0    0  501    0  0.00000000000E+00  0.00000000000E+00  0.96152432322E+03  0.96152432322E+03  0.00000000000E+00 0. -1.
         -1   -1    0    0    0  501 -0.00000000000E+00 -0.00000000000E+00 -0.28734105577E+03  0.28734105577E+03  0.00000000000E+00 0.  1.
         23    2    1    2    0    0 -0.78515924701E+02 -0.23882008136E+03 -0.20316387002E+03  0.33621112829E+03  0.92534226155E+02 0.  0.
         13    1    3    3    0    0 -0.83943504794E+02 -0.10966642005E+03 -0.94549858039E+02  0.16737058087E+03  0.00000000000E+00 0. -1.
        -13    1    3    3    0    0  0.54275800936E+01 -0.12915366131E+03 -0.10861401198E+03  0.16884054742E+03  0.00000000000E+00 0.  1.
         22    1    1    2    0    0  0.78515924701E+02  0.23882008136E+03  0.87734713747E+03  0.91265425070E+03  0.00000000000E+00 0. -1.
<mgrwt>
<rscale>  0 0.10512572E+04</rscale>
<asrwt>0</asrwt>
<pdfrwt beam="1">  1        1 0.14792682E+00 0.10512572E+04</pdfrwt>
<pdfrwt beam="2">  1       -1 0.44206317E-01 0.10512572E+04</pdfrwt>
<totfact> 0.82066373E+01</totfact>
</mgrwt>
</event>
<event>
 6    1  0.1028026E-006  0.4606048E+04  0.7818608E-02  0.7892329E-01
         -2   -1    0    0    0  501 -0.00000000000E+00  0.00000000000E+00  0.13900943061E+04  0.13900943061E+04  0.00000000000E+00 0.  1.
          2   -1    0    0  501    0  0.00000000000E+00 -0.00000000000E+00 -0.38155109216E+04  0.38155109216E+04  0.00000000000E+00 0. -1.
         23    2    1    2    0    0  0.31063908088E+03  0.10162464012E+04  0.10947713757E+04  0.15285171297E+04  0.92665335198E+02 0.  0.
         11    1    3    3    0    0  0.77160096226E+02  0.38031138982E+03  0.36423657186E+03  0.53222055011E+03  0.00000000000E+00 0.  1.
        -11    1    3    3    0    0  0.23347898466E+03  0.63593501135E+03  0.73053480381E+03  0.99629657960E+03  0.00000000000E+00 0. -1.
         22    1    1    2    0    0 -0.31063908088E+03 -0.10162464012E+04 -0.35201879913E+04  0.36770880980E+04  0.00000000000E+00 0. -1.
<mgrwt>
<rscale>  0 0.46060482E+04</rscale>
<asrwt>0</asrwt>
<pdfrwt beam="1">  1        2 0.58700168E+00 0.46060482E+04</pdfrwt>
<pdfrwt beam="2">  1       -2 0.21386066E+00 0.46060482E+04</pdfrwt>
<totfact> 0.38702676E-02</totfact>
</mgrwt>
</event>
<event>
 6    1  0.1028026E-006  0.1615240E+04  0.7818608E-02  0.8811240E-01
          1   -1    0    0  501    0  0.00000000000E+00  0.00000000000E+00  0.10810684199E+04  0.10810684199E+04  0.00000000000E+00 0. -1.
         -1   -1    0    0    0  501 -0.00000000000E+00 -0.00000000000E+00 -0.60333862922E+03  0.60333862922E+03  0.00000000000E+00 0.  1.
         23    2    1    2    0    0  0.41818614983E+03 -0.66863372675E+03  0.40807569599E+03  0.89269851096E+03  0.91837581441E+02 0.  0.
         11    1    3    3    0    0  0.29675950526E+03 -0.51201858697E+03  0.26586029416E+03  0.64877648954E+03  0.00000000000E+00 0. -1.
        -11    1    3    3    0    0  0.12142664457E+03 -0.15661513978E+03  0.14221540183E+03  0.24392202143E+03  0.00000000000E+00 0.  1.
         22    1    1    2    0    0 -0.41818614983E+03  0.66863372675E+03  0.69654094668E+02  0.79170853813E+03  0.00000000000E+00 0.  1.
<mgrwt>
<rscale>  0 0.16152403E+04</rscale>
<asrwt>0</asrwt>
<pdfrwt beam="1">  1        1 0.16631822E+00 0.16152403E+04</pdfrwt>
<pdfrwt beam="2">  1       -1 0.92821328E-01 0.16152403E+04</pdfrwt>
<totfact> 0.14166540E+01</totfact>
</mgrwt>
</event>
<event>
 6    1  0.1028026E-006  0.5044414E+03  0.7818608E-02  0.1012626E+00
          2   -1    0    0  501    0  0.00000000000E+00  0.00000000000E+00  0.21200628774E+04  0.21200628774E+04  0.00000000000E+00 0. -1.
         -2   -1    0    0    0  501 -0.00000000000E+00 -0.00000000000E+00 -0.30006314444E+02  0.30006314444E+02  0.00000000000E+00 0.  1.
         23    2    1    2    0    0 -0.24375082715E+03  0.11457390754E+01  0.10806403071E+04  0.11116391480E+04  0.92424799110E+02 0.  0.
         11    1    3    3    0    0 -0.23798860813E+03 -0.17677372081E+02  0.10305259021E+04  0.10577970987E+04  0.00000000000E+00 0. -1.
        -11    1    3    3    0    0 -0.57622190235E+01  0.18823111156E+02  0.50114404980E+02  0.53842049257E+02  0.00000000000E+00 0.  1.
         22    1    1    2    0    0  0.24375082715E+03 -0.11457390754E+01  0.10094162558E+04  0.10384300439E+04  0.00000000000E+00 0. -1.
<mgrwt>
<rscale>  0 0.50444137E+03</rscale>
<asrwt>0</asrwt>
<pdfrwt beam="1">  1        2 0.32616340E+00 0.50444137E+03</pdfrwt>
<pdfrwt beam="2">  1       -2 0.46163577E-02 0.50444137E+03</pdfrwt>
<totfact> 0.13935345E+03</totfact>
</mgrwt>
</event>
<event>
 6    1  0.1028026E-006  0.9627404E+03  0.7818608E-02  0.9350382E-01
          1   -1    0    0  501    0  0.00000000000E+00  0.00000000000E+00  0.40175757721E+03  0.40175757721E+03  0.00000000000E+00 0. -1.
         -1   -1    0    0    0  501 -0.00000000000E+00 -0.00000000000E+00 -0.57675897701E+03  0.57675897701E+03  0.00000000000E+00 0.  1.
         23    2    1    2    0    0 -0.40998657431E+03 -0.15138790786E+03  0.10623385767E+03  0.45880455725E+03  0.90601873473E+02 0.  0.
         11    1    3    3    0    0 -0.29058361082E+03 -0.79534284419E+02  0.10622163296E+03  0.31944885754E+03  0.00000000000E+00 0. -1.
        -11    1    3    3    0    0 -0.11940296349E+03 -0.71853623437E+02  0.12224706753E-01  0.13935569970E+03  0.00000000000E+00 0.  1.
         22    1    1    2    0    0  0.40998657431E+03  0.15138790786E+03 -0.28123525747E+03  0.51971199698E+03  0.00000000000E+00 0.  1.
<mgrwt>
<rscale>  0 0.96274044E+03</rscale>
<asrwt>0</asrwt>
<pdfrwt beam="1">  1        1 0.61808858E-01 0.96274044E+03</pdfrwt>
<pdfrwt beam="2">  1       -1 0.88732150E-01 0.96274044E+03</pdfrwt>
<totfact> 0.74736614E+01</totfact>
</mgrwt>
</event>
<event>
 6    1  0.1028026E-006  0.3464510E+04  0.7818608E-02  0.8122253E-01
         -2   -1    0    0    0  501 -0.00000000000E+00  0.00000000000E+00  0.11902487010E+04  0.11902487010E+04  0.00000000000E+00 0.  1.
          2   -1    0    0  501    0  0.00000000000E+00 -0.00000000000E+00 -0.25210752847E+04  0.25210752847E+04  0.00000000000E+00 0. -1.
         23    2    1    2    0    0 -0.30265090042E+03 -0.13023088402E+04 -0.18433550562E+04  0.22794401503E+04  0.10140834692E+03 0.  0.
         11    1    3    3    0    0 -0.69097966866E+02 -0.32184754460E+03 -0.53019363192E+03  0.62407183746E+03  0.00000000000E+00 0. -1.
        -11    1    3    3    0    0 -0.23355293355E+03 -0.98046129559E+03 -0.13131614243E+04  0.16553683129E+04  0.00000000000E+00 0.  1.
         22    1    1    2    0    0  0.30265090042E+03  0.13023088402E+04  0.51252847252E+03  0.14318838353E+04  0.00000000000E+00 0.  1.
<mgrwt>
<rscale>  0 0.34645095E+04</rscale>
<asrwt>0</asrwt>
<pdfrwt beam="1">  1        2 0.38785774E+00 0.34645095E+04</pdfrwt>
<pdfrwt beam="2">  1       -2 0.18311518E+00 0.34645095E+04</pdfrwt>
<totfact> 0.48129914E-01</totfact>
</mgrwt>
</event>
<event>
 6    1  0.1028026E-006  0.1149908E+04  0.7818608E-02  0.9157868E-01
         -2   -1    0    0    0  501 -0.00000000000E+00  0.00000000000E+00  0.76170038437E+03  0.76170038437E+03  0.00000000000E+00 0.  1.
          2   -1    0    0  501    0  0.00000000000E+00 -0.00000000000E+00 -0.43399254834E+03  0.43399254834E+03  0.00000000000E+00 0. -1.
         23    2    1    2    0    0  0.56195627694E+03  0.10547599320E+03  0.15881344868E+03  0.59950055066E+03  0.85200683242E+02 0.  0.
         11    1    3    3    0    0  0.17983698745E+03  0.57701350027E+01  0.20624693131E+02  0.18110774274E+03  0.00000000000E+00 0. -1.
        -11    1    3    3    0    0  0.38211928949E+03  0.99705858200E+02  0.13818875555E+03  0.41839280792E+03  0.00000000000E+00 0.  1.
         22    1    1    2    0    0 -0.56195627694E+03 -0.10547599320E+03  0.16889438735E+03  0.59619238205E+03  0.00000000000E+00 0. -1.
<mgrwt>
<rscale>  0 0.11499083E+04</rscale>
<asrwt>0</asrwt>
<pdfrwt beam="1">  1        2 0.66768084E-01 0.11499083E+04</pdfrwt>
<pdfrwt beam="2">  1       -2 0.11718467E+00 0.11499083E+04</pdfrwt>
<totfact> 0.40392945E+01</totfact>
</mgrwt>
</event>
<event>
 6    1  0.1028026E-006  0.1677774E+04  0.7818608E-02  0.8774143E-01
          2   -1    0    0  501    0  0.00000000000E+00  0.00000000000E+00  0.22807408834E+04  0.22807408834E+04  0.00000000000E+00 0. -1.
         -2   -1    0    0    0  501 -0.00000000000E+00 -0.00000000000E+00 -0.30855389829E+03  0.30855389829E+03  0.00000000000E+00 0.  1.
         23    2    1    2    0    0  0.16358878847E+03 -0.81981296403E+03  0.10316502865E+04  0.13309371739E+04  0.90757145589E+02 0.  0.
         11    1    3    3    0    0  0.81635316006E+02 -0.28315355817E+03  0.30773498962E+03  0.42607638536E+03  0.00000000000E+00 0. -1.
        -11    1    3    3    0    0  0.81953472462E+02 -0.53665940586E+03  0.72391529686E+03  0.90486078850E+03  0.00000000000E+00 0.  1.
         22    1    1    2    0    0 -0.16358878847E+03  0.81981296403E+03  0.94053669866E+03  0.12583576079E+04  0.00000000000E+00 0. -1.
<mgrwt>
<rscale>  0 0.16777741E+04</rscale>
<asrwt>0</asrwt>
<pdfrwt beam="1">  1        2 0.35088320E+00 0.16777741E+04</pdfrwt>
<pdfrwt beam="2">  1       -2 0.47469832E-01 0.16777741E+04</pdfrwt>
<totfact> 0.18652686E+01</totfact>
</mgrwt>
</event>
<event>
 6    1  0.1028026E-006  0.6923845E+04  0.7818608E-02  0.7585341E-01
          1   -1    0    0  501    0  0.00000000000E+00  0.00000000000E+00  0.51564767060E+04  0.51564767060E+04  0.00000000000E+00 0. -1.
         -1   -1    0    0    0  501 -0.00000000000E+00 -0.00000000000E+00 -0.23242431817E+04  0.23242431817E+04  0.00000000000E+00 0.  1.
         23    2    1    2    0    0  0.11479979313E+04  0.23782276513E+04 -0.10012271968E+04  0.28256917340E+04  0.90619337141E+02 0.  0.
         13    1    3    3    0    0  0.94924739385E+03  0.20142431090E+04 -0.81639446255E+03  0.23716546619E+04  0.00000000000E+00 0.  1.
        -13    1    3    3    0    0  0.19875053745E+03  0.36398454225E+03 -0.18483273428E+03  0.45403707205E+03  0.00000000000E+00 0. -1.
         22    1    1    2    0    0 -0.11479979313E+04 -0.23782276513E+04  0.38334607211E+04  0.46550281537E+04  0.00000000000E+00 0. -1.
<mgrwt>
<rscale>  0 0.69238445E+04</rscale>
<asrwt>0</asrwt>
<pdfrwt beam="1">  1        1 0.79330411E+00 0.69238445E+04</pdfrwt>
<pdfrwt beam="2">  1       -1 0.35757587E+00 0.69238445E+04</pdfrwt>
<totfact> 0.44919504E-05</totfact>
</mgrwt>
</event>
<event>
 6    1  0.1028026E-006  0.3231679E+04  0.7818608E-02  0.8180501E-01
         -1   -1    0    0    0  501 -0.00000000000E+00  0.00000000000E+00  0.13544837937E+04  0.13544837937E+04  0.00000000000E+00 0.  1.
          1   -1    0    0  501    0  0.00000000000E+00 -0.00000000000E+00 -0.19276251865E+04  0.19276251865E+04  0.00000000000E+00 0. -1.
         23    2    1    2    0    0 -0.11503338026E+04  0.35965480763E+02  0.86321251020E+03  0.14415455046E+04  0.91412421072E+02 0.  0.
         11    1    3    3    0    0 -0.20680933662E+03 -0.28573679333E+00  0.11367386376E+03  0.23599137836E+03  0.00000000000E+00 0. -1.
        -11    1    3    3    0    0 -0.94352446598E+03  0.36251217557E+02  0.74953864644E+03  0.12055541262E+04  0.00000000000E+00 0.  1.
         22    1    1    2    0    0  0.11503338026E+04 -0.35965480763E+02 -0.14363539030E+04  0.18405634756E+04  0.00000000000E+00 0. -1.
<mgrwt>
<rscale>  0 0.32316789E+04</rscale>
<asrwt>0</asrwt>
<pdfrwt beam="1">  1        1 0.29655772E+00 0.32316789E+04</pdfrwt>
<pdfrwt beam="2">  1       -1 0.20838212E+00 0.32316789E+04</pdfrwt>
<totfact> 0.36714698E-01</totfact>
</mgrwt>
</event>
<event>
 6    1  0.1028026E-006  0.1475739E+04  0.7818608E-02  0.8900748E-01
         -4   -1    0    0    0  501 -0.00000000000E+00  0.00000000000E+00  0.26992309578E+03  0.26992309578E+03  0.00000000000E+00 0.  1.
          4   -1    0    0  501    0  0.00000000000E+00 -0.00000000000E+00 -0.20170618966E+04  0.20170618966E+04  0.00000000000E+00 0. -1.
         23    2    1    2    0    0 -0.88901913588E+02 -0.38301084872E+02 -0.20061522204E+04  0.20104737361E+04  0.89372191082E+02 0.  0.
         13    1    3    3    0    0 -0.51657978673E+02  0.16145266597E+02 -0.50908183410E+03  0.51195071072E+03  0.00000000000E+00 0. -1.
        -13    1    3    3    0    0 -0.37243934915E+02 -0.54446351469E+02 -0.14970703863E+04  0.14985230253E+04  0.00000000000E+00 0.  1.
         22    1    1    2    0    0  0.88901913588E+02  0.38301084872E+02  0.25901341960E+03  0.27651125633E+03  0.00000000000E+00 0.  1.
<mgrwt>
<rscale>  0 0.14757393E+04</rscale>
<asrwt>0</asrwt>
<pdfrwt beam="1">  1        4 0.31031722E+00 0.14757393E+04</pdfrwt>
<pdfrwt beam="2">  1       -4 0.41526629E-01 0.14757393E+04</pdfrwt>
<totfact> 0.29356553E-01</totfact>
</mgrwt>
</event>
<event>
 6    1  0.1028026E-006  0.5816354E+04  0.7818608E-02  0.7713598E-01
          1   -1    0    0  501    0  0.00000000000E+00  0.00000000000E+00  0.30512738242E+04  0.30512738242E+04  0.00000000000E+00 0. -1.
         -1   -1    0    0    0  501 -0.00000000000E+00 -0.00000000000E+00 -0.27717908030E+04  0.27717908030E+04  0.00000000000E+00 0.  1.
         23    2    1    2    0    0 -0.99262347378E+03  0.27316656218E+04  0.21931339598E+03  0.29160182200E+04  0.88121869520E+02 0.  0.
         11    1    3    3    0    0 -0.62030583253E+03  0.15819815911E+04  0.13600990745E+03  0.17046828958E+04  0.00000000000E+00 0. -1.
        -11    1    3    3    0    0 -0.37231764125E+03  0.11496840307E+04  0.83303488532E+02  0.12113353242E+04  0.00000000000E+00 0.  1.
         22    1    1    2    0    0  0.99262347378E+03 -0.27316656218E+04  0.60169625209E+02  0.29070464072E+04  0.00000000000E+00 0. -1.
<mgrwt>
<rscale>  0 0.58163537E+04</rscale>
<asrwt>0</asrwt>
<pdfrwt beam="1">  1        1 0.46942674E+00 0.58163537E+04</pdfrwt>
<pdfrwt beam="2">  1       -1 0.42642935E+00 0.58163537E+04</pdfrwt>
<totfact> 0.17514930E-03</totfact>
</mgrwt>
</event>
<event>
 6    1  0.1028026E-006  0.1566986E+04  0.7818608E-02  0.8841090E-01
          2   -1    0    0  501    0  0.00000000000E+00  0.00000000000E+00  0.24595831583E+04  0.24595831583E+04  0.00000000000E+00 0. -1.
         -2   -1    0    0    0  501 -0.00000000000E+00 -0.00000000000E+00 -0.24957949783E+03  0.24957949783E+03  0.00000000000E+00 0.  1.
         23    2    1    2    0    0 -0.29458772402E+03 -0.26293628892E+02  0.23580926963E+04  0.23784004385E+04  0.93349878114E+02 0.  0.
         11    1    3    3    0    0 -0.71567674848E+02  0.45620969440E+01  0.91996115631E+03  0.92275201107E+03  0.00000000000E+00 0. -1.
        -11    1    3    3    0    0 -0.22302004917E+03 -0.30855725836E+02  0.14381315400E+04  0.14556484275E+04  0.00000000000E+00 0.  1.
         22    1    1    2    0    0  0.29458772402E+03  0.26293628892E+02 -0.14808903581E+03  0.33076221760E+03  0.00000000000E+00 0.  1.
<mgrwt>
<rscale>  0 0.15669863E+04</rscale>
<asrwt>0</asrwt>
<pdfrwt beam="1">  1        2 0.37839739E+00 0.15669863E+04</pdfrwt>
<pdfrwt beam="2">  1       -2 0.38396847E-01 0.15669863E+04</pdfrwt>
<totfact> 0.22672511E+01</totfact>
</mgrwt>
</event>
<event>
 6    1  0.1028026E-006  0.1688503E+04  0.7818608E-02  0.8767949E-01
         -2   -1    0    0    0  501 -0.00000000000E+00  0.00000000000E+00  0.10458937777E+04  0.10458937777E+04  0.00000000000E+00 0.  1.
          2   -1    0    0  501    0  0.00000000000E+00 -0.00000000000E+00 -0.68148474516E+03  0.68148474516E+03  0.00000000000E+00 0. -1.
         23    2    1    2    0    0 -0.51220676253E+03  0.22406131085E+03  0.82673235804E+03  0.10019117104E+04  0.88212499168E+02 0.  0.
         13    1    3    3    0    0 -0.11723865048E+03  0.39927101664E+02  0.12564590103E+03  0.17642552837E+03  0.00000000000E+00 0. -1.
        -13    1    3    3    0    0 -0.39496811204E+03  0.18413420918E+03  0.70108645700E+03  0.82548618203E+03  0.00000000000E+00 0.  1.
         22    1    1    2    0    0  0.51220676253E+03 -0.22406131085E+03 -0.46232332554E+03  0.72546681243E+03  0.00000000000E+00 0. -1.
<mgrwt>
<rscale>  0 0.16885031E+04</rscale>
<asrwt>0</asrwt>
<pdfrwt beam="1">  1        2 0.10484381E+00 0.16885031E+04</pdfrwt>
<pdfrwt beam="2">  1       -2 0.16090673E+00 0.16885031E+04</pdfrwt>
<totfact> 0.10005630E+01</totfact>
</mgrwt>
</event>
<event>
 6    1  0.1028026E-006  0.1738983E+04  0.7818608E-02  0.8739438E-01
          2   -1    0    0  501    0  0.00000000000E+00  0.00000000000E+00  0.12394093940E+04  0.12394093940E+04  0.00000000000E+00 0. -1.
         -2   -1    0    0    0  501 -0.00000000000E+00 -0.00000000000E+00 -0.60998008386E+03  0.60998008386E+03  0.00000000000E+00 0.  1.
         23    2    1    2    0    0 -0.71162774288E+02  0.73279208627E+03 -0.17033334590E+03  0.76234362413E+03  0.10052845555E+03 0.  0.
         11    1    3    3    0    0 -0.44578297628E+02  0.40676024160E+03 -0.14547821672E+03  0.43428680650E+03  0.00000000000E+00 0. -1.
        -11    1    3    3    0    0 -0.26584476661E+02  0.32603184468E+03 -0.24855129172E+02  0.32805681762E+03  0.00000000000E+00 0.  1.
         22    1    1    2    0    0  0.71162774288E+02 -0.73279208627E+03  0.79976265607E+03  0.10870458538E+04  0.00000000000E+00 0. -1.
<mgrwt>
<rscale>  0 0.17389825E+04</rscale>
<asrwt>0</asrwt>
<pdfrwt beam="1">  1        2 0.19067837E+00 0.17389825E+04</pdfrwt>
<pdfrwt beam="2">  1       -2 0.93843090E-01 0.17389825E+04</pdfrwt>
<totfact> 0.16328839E+01</totfact>
</mgrwt>
</event>
<event>
 6    1  0.1028026E-006  0.9913180E+03  0.7818608E-02  0.9318119E-01
         -2   -1    0    0    0  501 -0.00000000000E+00  0.00000000000E+00  0.19014425416E+03  0.19014425416E+03  0.00000000000E+00 0.  1.
          2   -1    0    0  501    0  0.00000000000E+00 -0.00000000000E+00 -0.12920602912E+04  0.12920602912E+04  0.00000000000E+00 0. -1.
         23    2    1    2    0    0 -0.27510806770E+03 -0.41539839675E+02  0.50187439863E+02  0.29698202250E+03  0.90936985733E+02 0.  0.
         11    1    3    3    0    0 -0.78469374676E+02 -0.89659667239E+01 -0.26666138472E+02  0.83360147926E+02  0.00000000000E+00 0. -1.
        -11    1    3    3    0    0 -0.19663869303E+03 -0.32573872951E+02  0.76853578335E+02  0.21362187458E+03  0.00000000000E+00 0.  1.
         22    1    1    2    0    0  0.27510806770E+03  0.41539839675E+02 -0.11521034769E+04  0.11852225229E+04  0.00000000000E+00 0. -1.
<mgrwt>
<rscale>  0 0.99131799E+03</rscale>
<asrwt>0</asrwt>
<pdfrwt beam="1">  1        2 0.19877850E+00 0.99131799E+03</pdfrwt>
<pdfrwt beam="2">  1       -2 0.29252963E-01 0.99131799E+03</pdfrwt>
<totfact> 0.17912169E+02</totfact>
</mgrwt>
</event>
<event>
 6    1  0.1028026E-006  0.2233118E+04  0.7818608E-02  0.8504769E-01
          1   -1    0    0  501    0  0.00000000000E+00  0.00000000000E+00  0.33356950470E+04  0.33356950470E+04  0.00000000000E+00 0. -1.
         -1   -1    0    0    0  501 -0.00000000000E+00 -0.00000000000E+00 -0.37374649116E+03  0.37374649116E+03  0.00000000000E+00 0.  1.
         23    2    1    2    0    0  0.66516761518E+03  0.34438320143E+03  0.11219029706E+03  0.76288933613E+03  0.91464368591E+02 0.  0.
         11    1    3    3    0    0  0.17258624307E+03  0.12345411312E+03  0.59999294814E+02  0.22051495351E+03  0.00000000000E+00 0. -1.
        -11    1    3    3    0    0  0.49258137211E+03  0.22092908831E+03  0.52191002241E+02  0.54237438262E+03  0.00000000000E+00 0.  1.
         22    1    1    2    0    0 -0.66516761518E+03 -0.34438320143E+03  0.28497582588E+04  0.29465522020E+04  0.00000000000E+00 0. -1.
<mgrwt>
<rscale>  0 0.22331183E+04</rscale>
<asrwt>0</asrwt>
<pdfrwt beam="1">  1        1 0.51318383E+00 0.22331183E+04</pdfrwt>
<pdfrwt beam="2">  1       -1 0.57499462E-01 0.22331183E+04</pdfrwt>
<totfact> 0.93566544E-01</totfact>
</mgrwt>
</event>
<event>
 6    1  0.1028026E-006  0.9695879E+03  0.7818608E-02  0.9342544E-01
          1   -1    0    0  501    0  0.00000000000E+00  0.00000000000E+00  0.47106260264E+03  0.47106260264E+03  0.00000000000E+00 0. -1.
         -1   -1    0    0    0  501 -0.00000000000E+00 -0.00000000000E+00 -0.49892555654E+03  0.49892555654E+03  0.00000000000E+00 0.  1.
         23    2    1    2    0    0 -0.24157597890E+03 -0.23982611255E+03  0.32522534331E+03  0.47953238802E+03  0.91127764084E+02 0.  0.
         13    1    3    3    0    0 -0.95581860381E+02 -0.15869579503E+03  0.16498571620E+03  0.24807364621E+03  0.00000000000E+00 0. -1.
        -13    1    3    3    0    0 -0.14599411852E+03 -0.81130317517E+02  0.16023962711E+03  0.23145874181E+03  0.00000000000E+00 0.  1.
         22    1    1    2    0    0  0.24157597890E+03  0.23982611255E+03 -0.35308829720E+03  0.49045577116E+03  0.00000000000E+00 0.  1.
<mgrwt>
<rscale>  0 0.96958789E+03</rscale>
<asrwt>0</asrwt>
<pdfrwt beam="1">  1        1 0.72471170E-01 0.96958789E+03</pdfrwt>
<pdfrwt beam="2">  1       -1 0.76757778E-01 0.96958789E+03</pdfrwt>
<totfact> 0.82331566E+01</totfact>
</mgrwt>
</event>
<event>
 6    1  0.1028026E-006  0.6120803E+03  0.7818608E-02  0.9880655E-01
          2   -1    0    0  501    0  0.00000000000E+00  0.00000000000E+00  0.15804599329E+03  0.15804599329E+03  0.00000000000E+00 0. -1.
         -2   -1    0    0    0  501 -0.00000000000E+00 -0.00000000000E+00 -0.59261595272E+03  0.59261595272E+03  0.00000000000E+00 0.  1.
         23    2    1    2    0    0  0.43503849736E+02  0.25408322037E+03 -0.34965633501E+02  0.27512594831E+03  0.89559053660E+02 0.  0.
         11    1    3    3    0    0  0.37149153860E+01  0.18101699448E+03  0.85078344497E+01  0.18125489272E+03  0.00000000000E+00 0.  1.
        -11    1    3    3    0    0  0.39788934350E+02  0.73066225886E+02 -0.43473467951E+02  0.93871055590E+02  0.00000000000E+00 0. -1.
         22    1    1    2    0    0 -0.43503849736E+02 -0.25408322037E+03 -0.39960432593E+03  0.47553599771E+03  0.00000000000E+00 0.  1.
<mgrwt>
<rscale>  0 0.61208031E+03</rscale>
<asrwt>0</asrwt>
<pdfrwt beam="1">  1        2 0.24314769E-01 0.61208031E+03</pdfrwt>
<pdfrwt beam="2">  1       -2 0.91171684E-01 0.61208031E+03</pdfrwt>
<totfact> 0.23476858E+02</totfact>
</mgrwt>
</event>
<event>
 6    1  0.1028026E-006  0.1861595E+04  0.7818608E-02  0.8674213E-01
         -1   -1    0    0    0  501 -0.00000000000E+00  0.00000000000E+00  0.93884081544E+03  0.93884081544E+03  0.00000000000E+00 0.  1.
          1   -1    0    0  501    0  0.00000000000E+00 -0.00000000000E+00 -0.92282302309E+03  0.92282302309E+03  0.00000000000E+00 0. -1.
         23    2    1    2    0    0 -0.68799060404E+03 -0.54531913916E+03 -0.29468966880E+03  0.93040492652E+03  0.90040499892E+02 0.  0.
         11    1    3    3    0    0 -0.36379785228E+03 -0.32275031887E+03 -0.20051994728E+03  0.52604647600E+03  0.00000000000E+00 0.  1.
        -11    1    3    3    0    0 -0.32419275176E+03 -0.22256882029E+03 -0.94169721516E+02  0.40435845052E+03  0.00000000000E+00 0. -1.
         22    1    1    2    0    0  0.68799060404E+03  0.54531913916E+03  0.31070746116E+03  0.93125891201E+03  0.00000000000E+00 0.  1.
<mgrwt>
<rscale>  0 0.18615949E+04</rscale>
<asrwt>0</asrwt>
<pdfrwt beam="1">  1        1 0.14197277E+00 0.18615949E+04</pdfrwt>
<pdfrwt beam="2">  1       -1 0.14443705E+00 0.18615949E+04</pdfrwt>
<totfact> 0.63177159E+00</totfact>
</mgrwt>
</event>
<event>
 6    1  0.1028026E-006  0.3352209E+04  0.7818608E-02  0.8149736E-01
         -2   -1    0    0    0  501 -0.00000000000E+00  0.00000000000E+00  0.11118399304E+04  0.11118399304E+04  0.00000000000E+00 0.  1.
          2   -1    0    0  501    0  0.00000000000E+00 -0.00000000000E+00 -0.25267363620E+04  0.25267363620E+04  0.00000000000E+00 0. -1.
         23    2    1    2    0    0 -0.47036044895E+03 -0.52173033096E+03  0.94237163827E+03  0.11788701630E+04  0.90714201338E+02 0.  0.
         11    1    3    3    0    0 -0.31945511229E+03 -0.28824787469E+03  0.57022074488E+03  0.71434592734E+03  0.00000000000E+00 0. -1.
        -11    1    3    3    0    0 -0.15090533666E+03 -0.23348245627E+03  0.37215089340E+03  0.46452423562E+03  0.00000000000E+00 0.  1.
         22    1    1    2    0    0  0.47036044895E+03  0.52173033096E+03 -0.23572680699E+04  0.24597061295E+04  0.00000000000E+00 0. -1.
<mgrwt>
<rscale>  0 0.33522091E+04</rscale>
<asrwt>0</asrwt>
<pdfrwt beam="1">  1        2 0.38872867E+00 0.33522091E+04</pdfrwt>
<pdfrwt beam="2">  1       -2 0.17105230E+00 0.33522091E+04</pdfrwt>
<totfact> 0.58509651E-01</totfact>
</mgrwt>
</event>
<event>
 6    1  0.1028026E-006  0.3676228E+04  0.7818608E-02  0.8073250E-01
          2   -1    0    0  501    0  0.00000000000E+00  0.00000000000E+00  0.25873937606E+04  0.25873937606E+04  0.00000000000E+00 0. -1.
         -2   -1    0    0    0  501 -0.00000000000E+00 -0.00000000000E+00 -0.13058174197E+04  0.13058174197E+04  0.00000000000E+00 0.  1.
         23    2    1    2    0    0  0.45959697644E+03  0.16485964527E+04 -0.65056707511E+02  0.17154783658E+04  0.97642223130E+02 0.  0.
         13    1    3    3    0    0  0.23726828288E+03  0.70280264987E+03 -0.55663288402E+02  0.74385899497E+03  0.00000000000E+00 0. -1.
        -13    1    3    3    0    0  0.22232869356E+03  0.94579380278E+03 -0.93934191089E+01  0.97161937079E+03  0.00000000000E+00 0.  1.
         22    1    1    2    0    0 -0.45959697644E+03 -0.16485964527E+04  0.13466330484E+04  0.21777328145E+04  0.00000000000E+00 0. -1.
<mgrwt>
<rscale>  0 0.36762284E+04</rscale>
<asrwt>0</asrwt>
<pdfrwt beam="1">  1        2 0.39806058E+00 0.36762284E+04</pdfrwt>
<pdfrwt beam="2">  1       -2 0.20089499E+00 0.36762284E+04</pdfrwt>
<totfact> 0.32894461E-01</totfact>
</mgrwt>
</event>
<event>
 6    1  0.1028026E-006  0.1975374E+04  0.7818608E-02  0.8618221E-01
         -2   -1    0    0    0  501 -0.00000000000E+00  0.00000000000E+00  0.79514118782E+03  0.79514118782E+03  0.00000000000E+00 0.  1.
          2   -1    0    0  501    0  0.00000000000E+00 -0.00000000000E+00 -0.12268582678E+04  0.12268582678E+04  0.00000000000E+00 0. -1.
         23    2    1    2    0    0 -0.35995289594E+03 -0.82638239080E+03 -0.62430389172E+03  0.11002816989E+04  0.91599806432E+02 0.  0.
         13    1    3    3    0    0 -0.15099712753E+03 -0.44159768081E+03 -0.29091660993E+03  0.54994646844E+03  0.00000000000E+00 0. -1.
        -13    1    3    3    0    0 -0.20895576841E+03 -0.38478470999E+03 -0.33338728178E+03  0.55033523043E+03  0.00000000000E+00 0.  1.
         22    1    1    2    0    0  0.35995289594E+03  0.82638239080E+03  0.19258681170E+03  0.92171775678E+03  0.00000000000E+00 0.  1.
<mgrwt>
<rscale>  0 0.19753739E+04</rscale>
<asrwt>0</asrwt>
<pdfrwt beam="1">  1        2 0.18874743E+00 0.19753739E+04</pdfrwt>
<pdfrwt beam="2">  1       -2 0.12232941E+00 0.19753739E+04</pdfrwt>
<totfact> 0.86026904E+00</totfact>
</mgrwt>
</event>
<event>
 6    1  0.1028026E-006  0.2918316E+04  0.7818608E-02  0.8267449E-01
         -1   -1    0    0    0  501 -0.00000000000E+00  0.00000000000E+00  0.25631242731E+04  0.25631242731E+04  0.00000000000E+00 0.  1.
          1   -1    0    0  501    0  0.00000000000E+00 -0.00000000000E+00 -0.83068255154E+03  0.83068255154E+03  0.00000000000E+00 0. -1.
         23    2    1    2    0    0 -0.11124977390E+04  0.68261672655E+03  0.11247895867E+03  0.13134472000E+04  0.94208367338E+02 0.  0.
         11    1    3    3    0    0 -0.55099202651E+03  0.39085546638E+03  0.44125962150E+02  0.67698398017E+03  0.00000000000E+00 0. -1.
        -11    1    3    3    0    0 -0.56150571248E+03  0.29176126016E+03  0.68352996523E+02  0.63646321985E+03  0.00000000000E+00 0.  1.
         22    1    1    2    0    0  0.11124977390E+04 -0.68261672655E+03  0.16199627629E+04  0.20803596246E+04  0.00000000000E+00 0. -1.
<mgrwt>
<rscale>  0 0.29183164E+04</rscale>
<asrwt>0</asrwt>
<pdfrwt beam="1">  1        1 0.12779732E+00 0.29183164E+04</pdfrwt>
<pdfrwt beam="2">  1       -1 0.39432681E+00 0.29183164E+04</pdfrwt>
<totfact> 0.13934188E-01</totfact>
</mgrwt>
</event>
<event>
 6    1  0.1028026E-006  0.1111383E+04  0.7818608E-02  0.9194168E-01
          2   -1    0    0  501    0  0.00000000000E+00  0.00000000000E+00  0.14505628965E+04  0.14505628965E+04  0.00000000000E+00 0. -1.
         -2   -1    0    0    0  501 -0.00000000000E+00 -0.00000000000E+00 -0.21287809260E+03  0.21287809260E+03  0.00000000000E+00 0.  1.
         23    2    1    2    0    0 -0.43773477612E+03 -0.20132719272E+03  0.10260862975E+04  0.11372107156E+04  0.90833634648E+02 0.  0.
         13    1    3    3    0    0 -0.11942030530E+03 -0.50197606216E+02  0.37716732755E+03  0.39879343269E+03  0.00000000000E+00 0. -1.
        -13    1    3    3    0    0 -0.31831447082E+03 -0.15112958650E+03  0.64891896991E+03  0.73841728295E+03  0.00000000000E+00 0.  1.
         22    1    1    2    0    0  0.43773477612E+03  0.20132719272E+03  0.21159850640E+03  0.52623027342E+03  0.00000000000E+00 0. -1.
<mgrwt>
<rscale>  0 0.11113830E+04</rscale>
<asrwt>0</asrwt>
<pdfrwt beam="1">  1        2 0.22316352E+00 0.11113830E+04</pdfrwt>
<pdfrwt beam="2">  1       -2 0.32750477E-01 0.11113830E+04</pdfrwt>
<totfact> 0.11670740E+02</totfact>
</mgrwt>
</event>
<event>
 6    1  0.1028026E-006  0.2107295E+04  0.7818608E-02  0.8558037E-01
         -2   -1    0    0    0  501 -0.00000000000E+00  0.00000000000E+00  0.46139388147E+03  0.46139388147E+03  0.00000000000E+00 0.  1.
          2   -1    0    0  501    0  0.00000000000E+00 -0.00000000000E+00 -0.24061286692E+04  0.24061286692E+04  0.00000000000E+00 0. -1.
         23    2    1    2    0    0 -0.31459170894E+03 -0.53854339551E+03  0.17877230843E+03  0.65431688475E+03  0.84700148941E+02 0.  0.
         13    1    3    3    0    0 -0.26903869407E+03 -0.49428656809E+03  0.17983112789E+03  0.59079629726E+03  0.00000000000E+00 0.  1.
        -13    1    3    3    0    0 -0.45553014862E+02 -0.44256827429E+02 -0.10588194573E+01  0.63520587495E+02  0.00000000000E+00 0. -1.
         22    1    1    2    0    0  0.31459170894E+03  0.53854339551E+03 -0.21235070961E+04  0.22132056659E+04  0.00000000000E+00 0. -1.
<mgrwt>
<rscale>  0 0.21072950E+04</rscale>
<asrwt>0</asrwt>
<pdfrwt beam="1">  1        2 0.37017364E+00 0.21072950E+04</pdfrwt>
<pdfrwt beam="2">  1       -2 0.70983674E-01 0.21072950E+04</pdfrwt>
<totfact> 0.65491456E+00</totfact>
</mgrwt>
</event>
<event>
 6    1  0.1028026E-006  0.2564055E+04  0.7818608E-02  0.8380514E-01
         -1   -1    0    0    0  501 -0.00000000000E+00  0.00000000000E+00  0.18954381562E+04  0.18954381562E+04  0.00000000000E+00 0.  1.
          1   -1    0    0  501    0  0.00000000000E+00 -0.00000000000E+00 -0.86713197373E+03  0.86713197373E+03  0.00000000000E+00 0. -1.
         23    2    1    2    0    0  0.44539364533E+03 -0.11523765760E+04  0.87722599033E+03  0.15179125478E+04  0.90475369049E+02 0.  0.
         13    1    3    3    0    0  0.93694489893E+02 -0.17011661793E+03  0.11368515886E+03  0.22503918876E+03  0.00000000000E+00 0. -1.
        -13    1    3    3    0    0  0.35169915543E+03 -0.98225995807E+03  0.76354083147E+03  0.12928733590E+04  0.00000000000E+00 0.  1.
         22    1    1    2    0    0 -0.44539364533E+03  0.11523765760E+04  0.15108019210E+03  0.12446575821E+04  0.00000000000E+00 0.  1.
<mgrwt>
<rscale>  0 0.25640554E+04</rscale>
<asrwt>0</asrwt>
<pdfrwt beam="1">  1        1 0.13340492E+00 0.25640554E+04</pdfrwt>
<pdfrwt beam="2">  1       -1 0.29160587E+00 0.25640554E+04</pdfrwt>
<totfact> 0.64075567E-01</totfact>
</mgrwt>
</event>
<event>
 6    1  0.1028026E-006  0.1048931E+04  0.7818608E-02  0.9256448E-01
         -2   -1    0    0    0  501 -0.00000000000E+00  0.00000000000E+00  0.99060851048E+02  0.99060851048E+02  0.00000000000E+00 0.  1.
          2   -1    0    0  501    0  0.00000000000E+00 -0.00000000000E+00 -0.27767196612E+04  0.27767196612E+04  0.00000000000E+00 0. -1.
         23    2    1    2    0    0 -0.31614903225E+02  0.51058435226E+03 -0.10815246155E+04  0.11996718492E+04  0.88437373533E+02 0.  0.
         11    1    3    3    0    0  0.13128279377E+02  0.14641534944E+03 -0.39102321425E+03  0.41774269635E+03  0.00000000000E+00 0.  1.
        -11    1    3    3    0    0 -0.44743182602E+02  0.36416900282E+03 -0.69050140122E+03  0.78192915286E+03  0.00000000000E+00 0. -1.
         22    1    1    2    0    0  0.31614903225E+02 -0.51058435226E+03 -0.15961341947E+04  0.16761086631E+04  0.00000000000E+00 0. -1.
<mgrwt>
<rscale>  0 0.10489313E+04</rscale>
<asrwt>0</asrwt>
<pdfrwt beam="1">  1        2 0.42718758E+00 0.10489313E+04</pdfrwt>
<pdfrwt beam="2">  1       -2 0.15240133E-01 0.10489313E+04</pdfrwt>
<totfact> 0.82619161E+01</totfact>
</mgrwt>
</event>
<event>
 6    1  0.1028026E-006  0.2748992E+04  0.7818608E-02  0.8319282E-01
         -1   -1    0    0    0  501 -0.00000000000E+00  0.00000000000E+00  0.19117598976E+04  0.19117598976E+04  0.00000000000E+00 0.  1.
          1   -1    0    0  501    0  0.00000000000E+00 -0.00000000000E+00 -0.98821970241E+03  0.98821970241E+03  0.00000000000E+00 0. -1.
         23    2    1    2    0    0 -0.34521367480E+03  0.89143452770E+03 -0.57769269372E+03  0.11202245087E+04  0.85709410137E+02 0.  0.
         13    1    3    3    0    0 -0.27052967446E+03  0.65315587642E+03 -0.46559281772E+03  0.84650787095E+03  0.00000000000E+00 0. -1.
        -13    1    3    3    0    0 -0.74684000336E+02  0.23827865128E+03 -0.11209987601E+03  0.27371663772E+03  0.00000000000E+00 0.  1.
         22    1    1    2    0    0  0.34521367480E+03 -0.89143452770E+03  0.15012328889E+04  0.17797550914E+04  0.00000000000E+00 0.  1.
<mgrwt>
<rscale>  0 0.27489917E+04</rscale>
<asrwt>0</asrwt>
<pdfrwt beam="1">  1        1 0.15203380E+00 0.27489917E+04</pdfrwt>
<pdfrwt beam="2">  1       -1 0.29411691E+00 0.27489917E+04</pdfrwt>
<totfact> 0.48455432E-01</totfact>
</mgrwt>
</event>
<event>
 6    1  0.1028026E-006  0.2024246E+04  0.7818608E-02  0.8595368E-01
          2   -1    0    0  501    0  0.00000000000E+00  0.00000000000E+00  0.86393637148E+03  0.86393637148E+03  0.00000000000E+00 0. -1.
         -2   -1    0    0    0  501 -0.00000000000E+00 -0.00000000000E+00 -0.11857271777E+04  0.11857271777E+04  0.00000000000E+00 0.  1.
         23    2    1    2    0    0  0.61834125158E+03  0.79324030204E+03 -0.25476964572E+03  0.10416616066E+04  0.92602646291E+02 0.  0.
         13    1    3    3    0    0  0.61091174376E+02  0.11461523016E+03 -0.10955293739E+02  0.13034109495E+03  0.00000000000E+00 0.  1.
        -13    1    3    3    0    0  0.55725007721E+03  0.67862507188E+03 -0.24381435198E+03  0.91132051166E+03  0.00000000000E+00 0. -1.
         22    1    1    2    0    0 -0.61834125158E+03 -0.79324030204E+03 -0.67021160461E+02  0.10080019425E+04  0.00000000000E+00 0. -1.
<mgrwt>
<rscale>  0 0.20242459E+04</rscale>
<asrwt>0</asrwt>
<pdfrwt beam="1">  1        2 0.13291329E+00 0.20242459E+04</pdfrwt>
<pdfrwt beam="2">  1       -2 0.18241956E+00 0.20242459E+04</pdfrwt>
<totfact> 0.50199456E+00</totfact>
</mgrwt>
</event>
<event>
 6    1  0.1028026E-006  0.2965215E+04  0.7818608E-02  0.8253734E-01
         -2   -1    0    0    0  501 -0.00000000000E+00  0.00000000000E+00  0.64032718260E+03  0.64032718260E+03  0.00000000000E+00 0.  1.
          2   -1    0    0  501    0  0.00000000000E+00 -0.00000000000E+00 -0.34328158392E+04  0.34328158392E+04  0.00000000000E+00 0. -1.
         23    2    1    2    0    0  0.11966778887E+04 -0.80486075347E+03 -0.18612148385E+04  0.23564282155E+04  0.93778772759E+02 0.  0.
         13    1    3    3    0    0  0.89334036579E+03 -0.56436507216E+03 -0.13149442376E+04  0.16869034625E+04  0.00000000000E+00 0.  1.
        -13    1    3    3    0    0  0.30333752291E+03 -0.24049568131E+03 -0.54627060085E+03  0.66952475301E+03  0.00000000000E+00 0. -1.
         22    1    1    2    0    0 -0.11966778887E+04  0.80486075347E+03 -0.93127381814E+03  0.17167148063E+04  0.00000000000E+00 0.  1.
<mgrwt>
<rscale>  0 0.29652152E+04</rscale>
<asrwt>0</asrwt>
<pdfrwt beam="1">  1        2 0.52812551E+00 0.29652152E+04</pdfrwt>
<pdfrwt beam="2">  1       -2 0.98511874E-01 0.29652152E+04</pdfrwt>
<totfact> 0.66459241E-01</totfact>
</mgrwt>
</event>
<event>
 6    1  0.1028026E-006  0.3353521E+04  0.7818608E-02  0.8149409E-01
          2   -1    0    0  501    0  0.00000000000E+00  0.00000000000E+00  0.14000015640E+04  0.14000015640E+04  0.00000000000E+00 0. -1.
         -2   -1    0    0    0  501 -0.00000000000E+00 -0.00000000000E+00 -0.20082303084E+04  0.20082303084E+04  0.00000000000E+00 0.  1.
         23    2    1    2    0    0  0.66827143777E+03  0.99542939581E+03 -0.14938301372E+04  0.19176761963E+04  0.92125557810E+02 0.  0.
         13    1    3    3    0    0  0.35967770805E+03  0.56047881708E+03 -0.89872156846E+03  0.11185727583E+04  0.00000000000E+00 0. -1.
        -13    1    3    3    0    0  0.30859372972E+03  0.43495057873E+03 -0.59510856873E+03  0.79910343795E+03  0.00000000000E+00 0.  1.
         22    1    1    2    0    0 -0.66827143777E+03 -0.99542939581E+03  0.88560139287E+03  0.14905556761E+04  0.00000000000E+00 0. -1.
<mgrwt>
<rscale>  0 0.33535209E+04</rscale>
<asrwt>0</asrwt>
<pdfrwt beam="1">  1        2 0.21538486E+00 0.33535209E+04</pdfrwt>
<pdfrwt beam="2">  1       -2 0.30895851E+00 0.33535209E+04</pdfrwt>
<totfact> 0.33694527E-01</totfact>
</mgrwt>
</event>
<event>
 6    1  0.1028026E-006  0.1781900E+04  0.7818608E-02  0.8715984E-01
          1   -1    0    0  501    0  0.00000000000E+00  0.00000000000E+00  0.76706959174E+03  0.76706959174E+03  0.00000000000E+00 0. -1.
         -1   -1    0    0    0  501 -0.00000000000E+00 -0.00000000000E+00 -0.10348368970E+04  0.10348368970E+04  0.00000000000E+00 0.  1.
         23    2    1    2    0    0  0.62756861240E+03  0.19496475480E+03  0.47068527692E+03  0.81338950102E+03  0.90577213344E+02 0.  0.
         13    1    3    3    0    0  0.35364745349E+03  0.13051511164E+03  0.31833310274E+03  0.49339302795E+03  0.00000000000E+00 0. -1.
        -13    1    3    3    0    0  0.27392115891E+03  0.64449643168E+02  0.15235217418E+03  0.31999647307E+03  0.00000000000E+00 0.  1.
         22    1    1    2    0    0 -0.62756861240E+03 -0.19496475480E+03 -0.73845258215E+03  0.98851698770E+03  0.00000000000E+00 0.  1.
<mgrwt>
<rscale>  0 0.17819000E+04</rscale>
<asrwt>0</asrwt>
<pdfrwt beam="1">  1        1 0.11801071E+00 0.17819000E+04</pdfrwt>
<pdfrwt beam="2">  1       -1 0.15920568E+00 0.17819000E+04</pdfrwt>
<totfact> 0.66210024E+00</totfact>
</mgrwt>
</event>
<event>
 6    1  0.1028026E-006  0.5604537E+04  0.7818608E-02  0.7741466E-01
         -2   -1    0    0    0  501 -0.00000000000E+00  0.00000000000E+00  0.16954965690E+04  0.16954965690E+04  0.00000000000E+00 0.  1.
          2   -1    0    0  501    0  0.00000000000E+00 -0.00000000000E+00 -0.46315102243E+04  0.46315102243E+04  0.00000000000E+00 0. -1.
         23    2    1    2    0    0 -0.11531327174E+04 -0.13564319882E+04  0.97356392925E+03  0.20311460307E+04  0.90025946693E+02 0.  0.
         11    1    3    3    0    0 -0.60131377917E+03 -0.69536203360E+03  0.55314534628E+03  0.10728822829E+04  0.00000000000E+00 0.  1.
        -11    1    3    3    0    0 -0.55181893827E+03 -0.66106995456E+03  0.42041858297E+03  0.95826374780E+03  0.00000000000E+00 0. -1.
         22    1    1    2    0    0  0.11531327174E+04  0.13564319882E+04 -0.39095775845E+04  0.42958607626E+04  0.00000000000E+00 0. -1.
<mgrwt>
<rscale>  0 0.56045373E+04</rscale>
<asrwt>0</asrwt>
<pdfrwt beam="1">  1        2 0.71254002E+00 0.56045373E+04</pdfrwt>
<pdfrwt beam="2">  1       -2 0.26084563E+00 0.56045373E+04</pdfrwt>
<totfact> 0.34243481E-03</totfact>
</mgrwt>
</event>
<event>
 6    1  0.1028026E-006  0.2302166E+04  0.7818608E-02  0.8477067E-01
          1   -1    0    0  501    0  0.00000000000E+00  0.00000000000E+00  0.13097209194E+04  0.13097209194E+04  0.00000000000E+00 0. -1.
         -1   -1    0    0    0  501 -0.00000000000E+00 -0.00000000000E+00 -0.10116602340E+04  0.10116602340E+04  0.00000000000E+00 0.  1.
         23    2    1    2    0    0 -0.58182335007E+03 -0.61715767862E+02  0.11466533265E+04  0.12906354442E+04  0.92729456535E+02 0.  0.
         11    1    3    3    0    0 -0.21704947030E+03 -0.32217444009E+02  0.33735726870E+03  0.40244050865E+03  0.00000000000E+00 0.  1.
        -11    1    3    3    0    0 -0.36477387977E+03 -0.29498323852E+02  0.80929605777E+03  0.88819493558E+03  0.00000000000E+00 0. -1.
         22    1    1    2    0    0  0.58182335007E+03  0.61715767862E+02 -0.84859264105E+03  0.10307457093E+04  0.00000000000E+00 0.  1.
<mgrwt>
<rscale>  0 0.23021664E+04</rscale>
<asrwt>0</asrwt>
<pdfrwt beam="1">  1        1 0.20149553E+00 0.23021664E+04</pdfrwt>
<pdfrwt beam="2">  1       -1 0.15564004E+00 0.23021664E+04</pdfrwt>
<totfact> 0.25385749E+00</totfact>
</mgrwt>
</event>
<event>
 6    1  0.1028026E-006  0.3276221E+04  0.7818608E-02  0.8168972E-01
          2   -1    0    0  501    0  0.00000000000E+00  0.00000000000E+00  0.19723670949E+04  0.19723670949E+04  0.00000000000E+00 0. -1.
         -2   -1    0    0    0  501 -0.00000000000E+00 -0.00000000000E+00 -0.13605003576E+04  0.13605003576E+04  0.00000000000E+00 0.  1.
         23    2    1    2    0    0  0.64425995768E+03  0.12938466091E+04  0.10876931438E+04  0.18111839407E+04  0.90559100409E+02 0.  0.
         13    1    3    3    0    0  0.43590724525E+03  0.92058304346E+03  0.72034346988E+03  0.12475507929E+04  0.00000000000E+00 0. -1.
        -13    1    3    3    0    0  0.20835271243E+03  0.37326356568E+03  0.36734967396E+03  0.56363314772E+03  0.00000000000E+00 0.  1.
         22    1    1    2    0    0 -0.64425995768E+03 -0.12938466091E+04 -0.47582640654E+03  0.15216835119E+04  0.00000000000E+00 0.  1.
<mgrwt>
<rscale>  0 0.32762211E+04</rscale>
<asrwt>0</asrwt>
<pdfrwt beam="1">  1        2 0.30344109E+00 0.32762211E+04</pdfrwt>
<pdfrwt beam="2">  1       -2 0.20930775E+00 0.32762211E+04</pdfrwt>
<totfact> 0.67018860E-01</totfact>
</mgrwt>
</event>
<event>
 6    1  0.1028026E-006  0.1311678E+04  0.7818608E-02  0.9020355E-01
         -3   -1    0    0    0  501 -0.00000000000E+00  0.00000000000E+00  0.57101611206E+03  0.57101611206E+03  0.00000000000E+00 0.  1.
          3   -1    0    0  501    0  0.00000000000E+00 -0.00000000000E+00 -0.75326239130E+03  0.75326239130E+03  0.00000000000E+00 0. -1.
         23    2    1    2    0    0  0.38821562490E+03  0.51331889953E+02 -0.61871538983E+03  0.73788987895E+03  0.91249139693E+02 0.  0.
         11    1    3    3    0    0  0.93619388906E+02  0.42430048097E+02 -0.11462220416E+03  0.15395826917E+03  0.00000000000E+00 0.  1.
        -11    1    3    3    0    0  0.29459623599E+03  0.89018418567E+01 -0.50409318567E+03  0.58393160977E+03  0.00000000000E+00 0. -1.
         22    1    1    2    0    0 -0.38821562490E+03 -0.51331889953E+02  0.43646911059E+03  0.58638862441E+03  0.00000000000E+00 0.  1.
<mgrwt>
<rscale>  0 0.13116783E+04</rscale>
<asrwt>0</asrwt>
<pdfrwt beam="1">  1        3 0.11588652E+00 0.13116783E+04</pdfrwt>
<pdfrwt beam="2">  1       -3 0.87848633E-01 0.13116783E+04</pdfrwt>
<totfact> 0.18637862E+00</totfact>
</mgrwt>
</event>
<event>
 6    1  0.1028026E-006  0.1026602E+04  0.7818608E-02  0.9279840E-01
         -1   -1    0    0    0  501 -0.00000000000E+00  0.00000000000E+00  0.60476777613E+03  0.60476777613E+03  0.00000000000E+00 0.  1.
          1   -1    0    0  501    0  0.00000000000E+00 -0.00000000000E+00 -0.43566765761E+03  0.43566765761E+03  0.00000000000E+00 0. -1.
         23    2    1    2    0    0 -0.88666544783E+02  0.13677762015E+03 -0.40376234151E+03  0.44483382892E+03  0.91012270558E+02 0.  0.
         11    1    3    3    0    0 -0.70092634512E+02  0.42970748431E+02 -0.25554309131E+03  0.26844316745E+03  0.00000000000E+00 0.  1.
        -11    1    3    3    0    0 -0.18573910270E+02  0.93806871720E+02 -0.14821925021E+03  0.17639066148E+03  0.00000000000E+00 0. -1.
         22    1    1    2    0    0  0.88666544783E+02 -0.13677762015E+03  0.57286246004E+03  0.59560160482E+03  0.00000000000E+00 0.  1.
<mgrwt>
<rscale>  0 0.10266017E+04</rscale>
<asrwt>0</asrwt>
<pdfrwt beam="1">  1        1 0.67025794E-01 0.10266017E+04</pdfrwt>
<pdfrwt beam="2">  1       -1 0.93041196E-01 0.10266017E+04</pdfrwt>
<totfact> 0.60122256E+01</totfact>
</mgrwt>
</event>
<event>
 6    1  0.1028026E-006  0.1152665E+04  0.7818608E-02  0.9155328E-01
          2   -1    0    0  501    0  0.00000000000E+00  0.00000000000E+00  0.10311569254E+04  0.10311569254E+04  0.00000000000E+00 0. -1.
         -2   -1    0    0    0  501 -0.00000000000E+00 -0.00000000000E+00 -0.32212307204E+03  0.32212307204E+03  0.00000000000E+00 0.  1.
         23    2    1    2    0    0  0.83891069330E+02 -0.20852484043E+03 -0.26184732058E+03  0.35672062916E+03  0.90361869089E+02 0.  0.
         13    1    3    3    0    0  0.64991269716E+01 -0.13568892546E+03 -0.15270792428E+03  0.20438550165E+03  0.00000000000E+00 0.  1.
        -13    1    3    3    0    0  0.77391942358E+02 -0.72835914969E+02 -0.10913939630E+03  0.15233512752E+03  0.00000000000E+00 0. -1.
         22    1    1    2    0    0 -0.83891069330E+02  0.20852484043E+03  0.97088117397E+03  0.99655936831E+03  0.00000000000E+00 0. -1.
<mgrwt>
<rscale>  0 0.11526655E+04</rscale>
<asrwt>0</asrwt>
<pdfrwt beam="1">  1        2 0.15863953E+00 0.11526655E+04</pdfrwt>
<pdfrwt beam="2">  1       -2 0.49557396E-01 0.11526655E+04</pdfrwt>
<totfact> 0.91739477E+01</totfact>
</mgrwt>
</event>
<event>
 6    1  0.1028026E-006  0.3805022E+04  0.7818608E-02  0.8045078E-01
          2   -1    0    0  501    0  0.00000000000E+00  0.00000000000E+00  0.17497154992E+04  0.17497154992E+04  0.00000000000E+00 0. -1.
         -2   -1    0    0    0  501 -0.00000000000E+00 -0.00000000000E+00 -0.20686493915E+04  0.20686493915E+04  0.00000000000E+00 0.  1.
         23    2    1    2    0    0 -0.84860998344E+03 -0.17011492026E+04 -0.12243452371E+03  0.19071716731E+04  0.90917900385E+02 0.  0.
         13    1    3    3    0    0 -0.24309235240E+03 -0.41222014457E+03 -0.99843250251E+01  0.47866379238E+03  0.00000000000E+00 0.  1.
        -13    1    3    3    0    0 -0.60551763104E+03 -0.12889290580E+04 -0.11245019868E+03  0.14285078807E+04  0.00000000000E+00 0. -1.
         22    1    1    2    0    0  0.84860998344E+03  0.17011492026E+04 -0.19649936862E+03  0.19111932177E+04  0.00000000000E+00 0. -1.
<mgrwt>
<rscale>  0 0.38050219E+04</rscale>
<asrwt>0</asrwt>
<pdfrwt beam="1">  1        2 0.26918700E+00 0.38050219E+04</pdfrwt>
<pdfrwt beam="2">  1       -2 0.31825375E+00 0.38050219E+04</pdfrwt>
<totfact> 0.18101242E-01</totfact>
</mgrwt>
</event>
<event>
 6    1  0.1028026E-006  0.3697013E+04  0.7818608E-02  0.8068624E-01
         -2   -1    0    0    0  501 -0.00000000000E+00  0.00000000000E+00  0.26899731491E+04  0.26899731491E+04  0.00000000000E+00 0.  1.
          2   -1    0    0  501    0  0.00000000000E+00 -0.00000000000E+00 -0.12702642749E+04  0.12702642749E+04  0.00000000000E+00 0. -1.
         23    2    1    2    0    0 -0.45843797117E+03  0.64746304205E+03 -0.10767929967E+04  0.13407154531E+04  0.93064517331E+02 0.  0.
         13    1    3    3    0    0 -0.26026098599E+03  0.29215482812E+03 -0.50058198123E+03  0.63535229940E+03  0.00000000000E+00 0.  1.
        -13    1    3    3    0    0 -0.19817698518E+03  0.35530821392E+03 -0.57621101545E+03  0.70536315375E+03  0.00000000000E+00 0. -1.
         22    1    1    2    0    0  0.45843797117E+03 -0.64746304205E+03  0.24965018709E+04  0.26195219708E+04  0.00000000000E+00 0.  1.
<mgrwt>
<rscale>  0 0.36970133E+04</rscale>
<asrwt>0</asrwt>
<pdfrwt beam="1">  1        2 0.19542527E+00 0.36970133E+04</pdfrwt>
<pdfrwt beam="2">  1       -2 0.41384202E+00 0.36970133E+04</pdfrwt>
<totfact> 0.83708116E-02</totfact>
</mgrwt>
</event>
<event>
 6    1  0.1028026E-006  0.2766055E+04  0.7818608E-02  0.8313885E-01
         -2   -1    0    0    0  501 -0.00000000000E+00  0.00000000000E+00  0.61534291332E+03  0.61534291332E+03  0.00000000000E+00 0.  1.
          2   -1    0    0  501    0  0.00000000000E+00 -0.00000000000E+00 -0.31084529260E+04  0.31084529260E+04  0.00000000000E+00 0. -1.
         23    2    1    2    0    0 -0.96359012615E+03  0.18022447947E+03  0.62719048746E+02  0.98641589027E+03  0.89976859805E+02 0.  0.
         13    1    3    3    0    0 -0.32509602628E+03  0.42696493389E+02 -0.17591211825E+02  0.32835935738E+03  0.00000000000E+00 0.  1.
        -13    1    3    3    0    0 -0.63849409987E+03  0.13752798608E+03  0.80310260572E+02  0.65805653289E+03  0.00000000000E+00 0. -1.
         22    1    1    2    0    0  0.96359012615E+03 -0.18022447947E+03 -0.25558290614E+04  0.27373799490E+04  0.00000000000E+00 0. -1.
<mgrwt>
<rscale>  0 0.27660546E+04</rscale>
<asrwt>0</asrwt>
<pdfrwt beam="1">  1        2 0.47822353E+00 0.27660546E+04</pdfrwt>
<pdfrwt beam="2">  1       -2 0.94668139E-01 0.27660546E+04</pdfrwt>
<totfact> 0.12181663E+00</totfact>
</mgrwt>
</event>
<event>
 6    1  0.1028026E-006  0.4311912E+04  0.7818608E-02  0.7944419E-01
         -1   -1    0    0    0  501 -0.00000000000E+00  0.00000000000E+00  0.31420074135E+04  0.31420074135E+04  0.00000000000E+00 0.  1.
          1   -1    0    0  501    0  0.00000000000E+00 -0.00000000000E+00 -0.14793559167E+04  0.14793559167E+04  0.00000000000E+00 0. -1.
         23    2    1    2    0    0  0.12412522148E+04 -0.32348371346E+03 -0.10241939270E+04  0.16440344761E+04  0.92343838580E+02 0.  0.
         11    1    3    3    0    0  0.52987762950E+03 -0.18461740304E+03 -0.45763304160E+03  0.72407312373E+03  0.00000000000E+00 0. -1.
        -11    1    3    3    0    0  0.71137458535E+03 -0.13886631042E+03 -0.56656088544E+03  0.91996135232E+03  0.00000000000E+00 0.  1.
         22    1    1    2    0    0 -0.12412522148E+04  0.32348371346E+03  0.26868454239E+04  0.29773288541E+04  0.00000000000E+00 0.  1.
<mgrwt>
<rscale>  0 0.43119125E+04</rscale>
<asrwt>0</asrwt>
<pdfrwt beam="1">  1        1 0.22759322E+00 0.43119125E+04</pdfrwt>
<pdfrwt beam="2">  1       -1 0.48338575E+00 0.43119125E+04</pdfrwt>
<totfact> 0.99063018E-03</totfact>
</mgrwt>
</event>
<event>
 6    1  0.1028026E-006  0.2206133E+04  0.7818608E-02  0.8515880E-01
          2   -1    0    0  501    0  0.00000000000E+00  0.00000000000E+00  0.25403514973E+04  0.25403514973E+04  0.00000000000E+00 0. -1.
         -2   -1    0    0    0  501 -0.00000000000E+00 -0.00000000000E+00 -0.47897136029E+03  0.47897136029E+03  0.00000000000E+00 0.  1.
         23    2    1    2    0    0  0.71215722980E+03 -0.80634904296E+03  0.13558945453E+04  0.17328250460E+04  0.82860866075E+02 0.  0.
         13    1    3    3    0    0  0.44557177651E+03 -0.55860439247E+03  0.92361870914E+03  0.11677519408E+04  0.00000000000E+00 0. -1.
        -13    1    3    3    0    0  0.26658545329E+03 -0.24774465050E+03  0.43227583616E+03  0.56507310525E+03  0.00000000000E+00 0.  1.
         22    1    1    2    0    0 -0.71215722980E+03  0.80634904296E+03  0.70548559171E+03  0.12864978116E+04  0.00000000000E+00 0. -1.
<mgrwt>
<rscale>  0 0.22061329E+04</rscale>
<asrwt>0</asrwt>
<pdfrwt beam="1">  1        2 0.39082330E+00 0.22061329E+04</pdfrwt>
<pdfrwt beam="2">  1       -2 0.73687903E-01 0.22061329E+04</pdfrwt>
<totfact> 0.50037077E+00</totfact>
</mgrwt>
</event>
<event>
 6    1  0.1028026E-006  0.1705590E+04  0.7818608E-02  0.8758183E-01
          2   -1    0    0  501    0  0.00000000000E+00  0.00000000000E+00  0.85954343123E+03  0.85954343123E+03  0.00000000000E+00 0. -1.
         -2   -1    0    0    0  501 -0.00000000000E+00 -0.00000000000E+00 -0.84609927414E+03  0.84609927414E+03  0.00000000000E+00 0.  1.
         23    2    1    2    0    0 -0.75321751995E+02 -0.82508426606E+03 -0.18354903041E+03  0.85403027689E+03  0.96125204031E+02 0.  0.
         13    1    3    3    0    0 -0.69038812304E+02 -0.46725511499E+03 -0.63659576465E+02  0.47659861704E+03  0.00000000000E+00 0. -1.
        -13    1    3    3    0    0 -0.62829396911E+01 -0.35782915107E+03 -0.11988945395E+03  0.37743165985E+03  0.00000000000E+00 0.  1.
         22    1    1    2    0    0  0.75321751995E+02  0.82508426606E+03  0.19699318750E+03  0.85161242848E+03  0.00000000000E+00 0.  1.
<mgrwt>
<rscale>  0 0.17055897E+04</rscale>
<asrwt>0</asrwt>
<pdfrwt beam="1">  1        2 0.13223745E+00 0.17055897E+04</pdfrwt>
<pdfrwt beam="2">  1       -2 0.13016912E+00 0.17055897E+04</pdfrwt>
<totfact> 0.12867260E+01</totfact>
</mgrwt>
</event>
<event>
 6    1  0.1028026E-006  0.2621056E+04  0.7818608E-02  0.8361084E-01
          2   -1    0    0  501    0  0.00000000000E+00  0.00000000000E+00  0.15322354758E+04  0.15322354758E+04  0.00000000000E+00 0. -1.
         -2   -1    0    0    0  501 -0.00000000000E+00 -0.00000000000E+00 -0.11209007183E+04  0.11209007183E+04  0.00000000000E+00 0.  1.
         23    2    1    2    0    0  0.12814504290E+04 -0.45302117002E+02  0.47208916263E+03  0.13694467529E+04  0.91371482060E+02 0.  0.
         13    1    3    3    0    0  0.54120315379E+03  0.22742232145E+02  0.18106270705E+03  0.57114075907E+03  0.00000000000E+00 0.  1.
        -13    1    3    3    0    0  0.74024727520E+03 -0.68044349147E+02  0.29102645558E+03  0.79830599380E+03  0.00000000000E+00 0. -1.
         22    1    1    2    0    0 -0.12814504290E+04  0.45302117002E+02 -0.60754405145E+02  0.12836894412E+04  0.00000000000E+00 0.  1.
<mgrwt>
<rscale>  0 0.26210562E+04</rscale>
<asrwt>0</asrwt>
<pdfrwt beam="1">  1        2 0.23572854E+00 0.26210562E+04</pdfrwt>
<pdfrwt beam="2">  1       -2 0.17244626E+00 0.26210562E+04</pdfrwt>
<totfact> 0.22016620E+00</totfact>
</mgrwt>
</event>
<event>
 6    1  0.1028026E-006  0.1900925E+04  0.7818608E-02  0.8654396E-01
          2   -1    0    0  501    0  0.00000000000E+00  0.00000000000E+00  0.64167256665E+03  0.64167256665E+03  0.00000000000E+00 0. -1.
         -2   -1    0    0    0  501 -0.00000000000E+00 -0.00000000000E+00 -0.14078501601E+04  0.14078501601E+04  0.00000000000E+00 0.  1.
         23    2    1    2    0    0 -0.24290102717E+03  0.47912669675E+03  0.45855953157E+03  0.71215803230E+03  0.91262908297E+02 0.  0.
         11    1    3    3    0    0 -0.18520040523E+03  0.42844679697E+03  0.37567577098E+03  0.59916452902E+03  0.00000000000E+00 0.  1.
        -11    1    3    3    0    0 -0.57700621938E+02  0.50679899783E+02  0.82883760583E+02  0.11299350328E+03  0.00000000000E+00 0. -1.
         22    1    1    2    0    0  0.24290102717E+03 -0.47912669675E+03 -0.12247371250E+04  0.13373646944E+04  0.00000000000E+00 0.  1.
<mgrwt>
<rscale>  0 0.19009249E+04</rscale>
<asrwt>0</asrwt>
<pdfrwt beam="1">  1        2 0.98718858E-01 0.19009249E+04</pdfrwt>
<pdfrwt beam="2">  1       -2 0.21659233E+00 0.19009249E+04</pdfrwt>
<totfact> 0.44420049E+00</totfact>
</mgrwt>
</event>
<event>
 6    1  0.1028026E-006  0.1948793E+04  0.7818608E-02  0.8630943E-01
          1   -1    0    0  501    0  0.00000000000E+00  0.00000000000E+00  0.24395924147E+04  0.24395924147E+04  0.00000000000E+00 0. -1.
         -1   -1    0    0    0  501 -0.00000000000E+00 -0.00000000000E+00 -0.38918312336E+03  0.38918312336E+03  0.00000000000E+00 0.  1.
         23    2    1    2    0    0  0.47787114511E+03  0.46449729981E+03  0.20554009771E+04  0.21623346256E+04  0.83061927795E+02 0.  0.
         13    1    3    3    0    0  0.19974438911E+03  0.23642576817E+03  0.86033362431E+03  0.91431335436E+03  0.00000000000E+00 0.  1.
        -13    1    3    3    0    0  0.27812675600E+03  0.22807153164E+03  0.11950673528E+04  0.12480212713E+04  0.00000000000E+00 0. -1.
         22    1    1    2    0    0 -0.47787114511E+03 -0.46449729981E+03 -0.49916857080E+01  0.66644091245E+03  0.00000000000E+00 0.  1.
<mgrwt>
<rscale>  0 0.19487926E+04</rscale>
<asrwt>0</asrwt>
<pdfrwt beam="1">  1        1 0.37532190E+00 0.19487926E+04</pdfrwt>
<pdfrwt beam="2">  1       -1 0.59874328E-01 0.19487926E+04</pdfrwt>
<totfact> 0.39330701E+00</totfact>
</mgrwt>
</event>
<event>
 6    1  0.1028026E-006  0.4025166E+04  0.7818608E-02  0.7999489E-01
          2   -1    0    0  501    0  0.00000000000E+00  0.00000000000E+00  0.25839668963E+04  0.25839668963E+04  0.00000000000E+00 0. -1.
         -2   -1    0    0    0  501 -0.00000000000E+00 -0.00000000000E+00 -0.15675473800E+04  0.15675473800E+04  0.00000000000E+00 0.  1.
         23    2    1    2    0    0  0.72532836454E+03 -0.29789393735E+03  0.24190572195E+04  0.25445809980E+04  0.90623340124E+02 0.  0.
         11    1    3    3    0    0  0.23255919655E+03 -0.88382895280E+02  0.90750885333E+03  0.94099289845E+03  0.00000000000E+00 0.  1.
        -11    1    3    3    0    0  0.49276916799E+03 -0.20951104207E+03  0.15115483662E+04  0.16035880996E+04  0.00000000000E+00 0. -1.
         22    1    1    2    0    0 -0.72532836454E+03  0.29789393735E+03 -0.14026377032E+04  0.16069332783E+04  0.00000000000E+00 0.  1.
<mgrwt>
<rscale>  0 0.40251661E+04</rscale>
<asrwt>0</asrwt>
<pdfrwt beam="1">  1        2 0.39753337E+00 0.40251661E+04</pdfrwt>
<pdfrwt beam="2">  1       -2 0.24116114E+00 0.40251661E+04</pdfrwt>
<totfact> 0.17837752E-01</totfact>
</mgrwt>
</event>
<event>
 6    1  0.1028026E-006  0.2290834E+04  0.7818608E-02  0.8481544E-01
         -2   -1    0    0    0  501 -0.00000000000E+00  0.00000000000E+00  0.48344646842E+03  0.48344646842E+03  0.00000000000E+00 0.  1.
          2   -1    0    0  501    0  0.00000000000E+00 -0.00000000000E+00 -0.27138062015E+04  0.27138062015E+04  0.00000000000E+00 0. -1.
         23    2    1    2    0    0  0.28525214117E+02 -0.87185305143E+03 -0.85592780505E+02  0.88187652078E+03  0.97152677331E+02 0.  0.
         13    1    3    3    0    0  0.61581178581E+02 -0.46684967741E+03 -0.31565641238E+02  0.47195047681E+03  0.00000000000E+00 0. -1.
        -13    1    3    3    0    0 -0.33055964464E+02 -0.40500337402E+03 -0.54027139268E+02  0.40992604397E+03  0.00000000000E+00 0.  1.
         22    1    1    2    0    0 -0.28525214117E+02  0.87185305143E+03 -0.21447669526E+04  0.23153761492E+04  0.00000000000E+00 0. -1.
<mgrwt>
<rscale>  0 0.22908339E+04</rscale>
<asrwt>0</asrwt>
<pdfrwt beam="1">  1        2 0.41750864E+00 0.22908339E+04</pdfrwt>
<pdfrwt beam="2">  1       -2 0.74376380E-01 0.22908339E+04</pdfrwt>
<totfact> 0.38463854E+00</totfact>
</mgrwt>
</event>
<event>
 6    1  0.1028026E-006  0.4040544E+03  0.7818608E-02  0.1042385E+00
         -1   -1    0    0    0  501 -0.00000000000E+00  0.00000000000E+00  0.16323461015E+03  0.16323461015E+03  0.00000000000E+00 0.  1.
          1   -1    0    0  501    0  0.00000000000E+00 -0.00000000000E+00 -0.25003883666E+03  0.25003883666E+03  0.00000000000E+00 0. -1.
         23    2    1    2    0    0  0.61943900776E+02 -0.61874629569E+02 -0.22027848315E+03  0.25364608758E+03  0.90267441390E+02 0.  0.
         11    1    3    3    0    0 -0.11599372764E+02  0.80383453025E+01 -0.75751130852E+02  0.77054488961E+02  0.00000000000E+00 0.  1.
        -11    1    3    3    0    0  0.73543273540E+02 -0.69912974872E+02 -0.14452735230E+03  0.17659159861E+03  0.00000000000E+00 0. -1.
         22    1    1    2    0    0 -0.61943900776E+02  0.61874629569E+02  0.13347425665E+03  0.15962735923E+03  0.00000000000E+00 0.  1.
<mgrwt>
<rscale>  0 0.40405441E+03</rscale>
<asrwt>0</asrwt>
<pdfrwt beam="1">  1        1 0.38467513E-01 0.40405441E+03</pdfrwt>
<pdfrwt beam="2">  1       -1 0.25113017E-01 0.40405441E+03</pdfrwt>
<totfact> 0.15334996E+03</totfact>
</mgrwt>
</event>
<event>
 6    1  0.1028026E-006  0.2297697E+04  0.7818608E-02  0.8478830E-01
         -1   -1    0    0    0  501 -0.00000000000E+00  0.00000000000E+00  0.93994605292E+03  0.93994605292E+03  0.00000000000E+00 0.  1.
          1   -1    0    0  501    0  0.00000000000E+00 -0.00000000000E+00 -0.14041790288E+04  0.14041790288E+04  0.00000000000E+00 0. -1.
         23    2    1    2    0    0 -0.16820729177E+03  0.49457747916E+03 -0.12743333452E+04  0.13801939720E+04  0.90051927634E+02 0.  0.
         13    1    3    3    0    0 -0.38035723309E+02  0.10265428756E+03 -0.18183399033E+03  0.21224565730E+03  0.00000000000E+00 0.  1.
        -13    1    3    3    0    0 -0.13017156847E+03  0.39192319160E+03 -0.10924993549E+04  0.11679483147E+04  0.00000000000E+00 0. -1.
         22    1    1    2    0    0  0.16820729177E+03 -0.49457747916E+03  0.81010036934E+03  0.96393110973E+03  0.00000000000E+00 0. -1.
<mgrwt>
<rscale>  0 0.22976967E+04</rscale>
<asrwt>0</asrwt>
<pdfrwt beam="1">  1        1 0.21602754E+00 0.22976967E+04</pdfrwt>
<pdfrwt beam="2">  1       -1 0.14460709E+00 0.22976967E+04</pdfrwt>
<totfact> 0.26551916E+00</totfact>
</mgrwt>
</event>
<event>
 6    1  0.1028026E-006  0.3063806E+04  0.7818608E-02  0.8225742E-01
         -2   -1    0    0    0  501 -0.00000000000E+00  0.00000000000E+00  0.93461821160E+03  0.93461821160E+03  0.00000000000E+00 0.  1.
          2   -1    0    0  501    0  0.00000000000E+00 -0.00000000000E+00 -0.25108937331E+04  0.25108937331E+04  0.00000000000E+00 0. -1.
         23    2    1    2    0    0  0.49404807463E+03  0.10323225658E+04 -0.19317065303E+04  0.22471361348E+04  0.91418318518E+02 0.  0.
         11    1    3    3    0    0  0.18862672473E+03  0.29973234240E+03 -0.61761654584E+03  0.71194783240E+03  0.00000000000E+00 0. -1.
        -11    1    3    3    0    0  0.30542134990E+03  0.73259022340E+03 -0.13140899845E+04  0.15351883024E+04  0.00000000000E+00 0.  1.
         22    1    1    2    0    0 -0.49404807463E+03 -0.10323225658E+04  0.35543100879E+03  0.11983758100E+04  0.00000000000E+00 0.  1.
<mgrwt>
<rscale>  0 0.30638061E+04</rscale>
<asrwt>0</asrwt>
<pdfrwt beam="1">  1        2 0.38629134E+00 0.30638061E+04</pdfrwt>
<pdfrwt beam="2">  1       -2 0.14378742E+00 0.30638061E+04</pdfrwt>
<totfact> 0.97842207E-01</totfact>
</mgrwt>
</event>
<event>
 6    1  0.1028026E-006  0.1673920E+04  0.7818608E-02  0.8776380E-01
          1   -1    0    0  501    0  0.00000000000E+00  0.00000000000E+00  0.20736504327E+04  0.20736504327E+04  0.00000000000E+00 0. -1.
         -1   -1    0    0    0  501 -0.00000000000E+00 -0.00000000000E+00 -0.33781118618E+03  0.33781118618E+03  0.00000000000E+00 0.  1.
         23    2    1    2    0    0 -0.65119803842E+02 -0.58786104759E+03  0.22524937974E+02  0.59893103431E+03  0.91595910922E+02 0.  0.
         13    1    3    3    0    0 -0.63128815795E+02 -0.20010346224E+03  0.23761135615E+02  0.21116636699E+03  0.00000000000E+00 0. -1.
        -13    1    3    3    0    0 -0.19909880468E+01 -0.38775758536E+03 -0.12361976412E+01  0.38776466732E+03  0.00000000000E+00 0.  1.
         22    1    1    2    0    0  0.65119803842E+02  0.58786104759E+03  0.17133143086E+04  0.18125305846E+04  0.00000000000E+00 0. -1.
<mgrwt>
<rscale>  0 0.16739203E+04</rscale>
<asrwt>0</asrwt>
<pdfrwt beam="1">  1        1 0.31902314E+00 0.16739203E+04</pdfrwt>
<pdfrwt beam="2">  1       -1 0.51970953E-01 0.16739203E+04</pdfrwt>
<totfact> 0.94452578E+00</totfact>
</mgrwt>
</event>
<event>
 6    1  0.1028026E-006  0.1736057E+04  0.7818608E-02  0.8741063E-01
         -1   -1    0    0    0  501 -0.00000000000E+00  0.00000000000E+00  0.28318117769E+03  0.28318117769E+03  0.00000000000E+00 0.  1.
          1   -1    0    0  501    0  0.00000000000E+00 -0.00000000000E+00 -0.26607456156E+04  0.26607456156E+04  0.00000000000E+00 0. -1.
         23    2    1    2    0    0 -0.12955426879E+03  0.54208517538E+03 -0.23152008603E+04  0.23830971742E+04  0.91413739831E+02 0.  0.
         11    1    3    3    0    0 -0.10521926223E+03  0.24840836252E+03 -0.10651967826E+04  0.10988275540E+04  0.00000000000E+00 0.  1.
        -11    1    3    3    0    0 -0.24335006559E+02  0.29367681286E+03 -0.12500040777E+04  0.12842696202E+04  0.00000000000E+00 0. -1.
         22    1    1    2    0    0  0.12955426879E+03 -0.54208517538E+03 -0.62363577603E+02  0.56082961917E+03  0.00000000000E+00 0.  1.
<mgrwt>
<rscale>  0 0.17360565E+04</rscale>
<asrwt>0</asrwt>
<pdfrwt beam="1">  1        1 0.40934548E+00 0.17360565E+04</pdfrwt>
<pdfrwt beam="2">  1       -1 0.43566335E-01 0.17360565E+04</pdfrwt>
<totfact> 0.51726284E+00</totfact>
</mgrwt>
</event>
<event>
 6    1  0.1028026E-006  0.1768476E+04  0.7818608E-02  0.8723245E-01
         -1   -1    0    0    0  501 -0.00000000000E+00  0.00000000000E+00  0.81945892172E+03  0.81945892172E+03  0.00000000000E+00 0.  1.
          1   -1    0    0  501    0  0.00000000000E+00 -0.00000000000E+00 -0.95413818108E+03  0.95413818108E+03  0.00000000000E+00 0. -1.
         23    2    1    2    0    0  0.39280159978E+03 -0.47126430468E+03  0.56734997152E+03  0.84127302681E+03  0.97319955802E+02 0.  0.
         11    1    3    3    0    0  0.32832600274E+03 -0.36426393212E+03  0.40242159798E+03  0.63437317002E+03  0.00000000000E+00 0. -1.
        -11    1    3    3    0    0  0.64475597040E+02 -0.10700037256E+03  0.16492837353E+03  0.20689985679E+03  0.00000000000E+00 0.  1.
         22    1    1    2    0    0 -0.39280159978E+03  0.47126430468E+03 -0.70202923088E+03  0.93232407599E+03  0.00000000000E+00 0. -1.
<mgrwt>
<rscale>  0 0.17684762E+04</rscale>
<asrwt>0</asrwt>
<pdfrwt beam="1">  1        1 0.14679049E+00 0.17684762E+04</pdfrwt>
<pdfrwt beam="2">  1       -1 0.12607060E+00 0.17684762E+04</pdfrwt>
<totfact> 0.85275085E+00</totfact>
</mgrwt>
</event>
<event>
 6    1  0.1028026E-006  0.3804940E+04  0.7818608E-02  0.8045096E-01
          2   -1    0    0  501    0  0.00000000000E+00  0.00000000000E+00  0.23738994909E+04  0.23738994909E+04  0.00000000000E+00 0. -1.
         -2   -1    0    0    0  501 -0.00000000000E+00 -0.00000000000E+00 -0.15246613775E+04  0.15246613775E+04  0.00000000000E+00 0.  1.
         23    2    1    2    0    0  0.83630952652E+03 -0.73903957701E+03  0.20020501059E+04  0.22940146363E+04  0.93302758637E+02 0.  0.
         13    1    3    3    0    0  0.23117595645E+03 -0.25615531948E+03  0.57969086224E+03  0.67461052934E+03  0.00000000000E+00 0.  1.
        -13    1    3    3    0    0  0.60513357008E+03 -0.48288425753E+03  0.14223592436E+04  0.16194041070E+04  0.00000000000E+00 0. -1.
         22    1    1    2    0    0 -0.83630952652E+03  0.73903957701E+03 -0.11528119925E+04  0.16045462320E+04  0.00000000000E+00 0.  1.
<mgrwt>
<rscale>  0 0.38049404E+04</rscale>
<asrwt>0</asrwt>
<pdfrwt beam="1">  1        2 0.36521531E+00 0.38049404E+04</pdfrwt>
<pdfrwt beam="2">  1       -2 0.23456329E+00 0.38049404E+04</pdfrwt>
<totfact> 0.26405929E-01</totfact>
</mgrwt>
</event>
<event>
 6    1  0.1028026E-006  0.1474071E+04  0.7818608E-02  0.8901881E-01
         -1   -1    0    0    0  501 -0.00000000000E+00  0.00000000000E+00  0.67644593266E+03  0.67644593266E+03  0.00000000000E+00 0.  1.
          1   -1    0    0  501    0  0.00000000000E+00 -0.00000000000E+00 -0.80305173958E+03  0.80305173958E+03  0.00000000000E+00 0. -1.
         23    2    1    2    0    0 -0.62382485583E+03  0.17790708590E+03 -0.40862409169E+03  0.77214861067E+03  0.91822909444E+02 0.  0.
         13    1    3    3    0    0 -0.19144131142E+03  0.92059616585E+02 -0.10565065250E+03  0.23724841221E+03  0.00000000000E+00 0.  1.
        -13    1    3    3    0    0 -0.43238354441E+03  0.85847469312E+02 -0.30297343918E+03  0.53490019846E+03  0.00000000000E+00 0. -1.
         22    1    1    2    0    0  0.62382485583E+03 -0.17790708590E+03  0.28201828477E+03  0.70734906157E+03  0.00000000000E+00 0.  1.
<mgrwt>
<rscale>  0 0.14740707E+04</rscale>
<asrwt>0</asrwt>
<pdfrwt beam="1">  1        1 0.12354642E+00 0.14740707E+04</pdfrwt>
<pdfrwt beam="2">  1       -1 0.10406860E+00 0.14740707E+04</pdfrwt>
<totfact> 0.18522294E+01</totfact>
</mgrwt>
</event>
<event>
 6    1  0.1028026E-006  0.4261004E+04  0.7818608E-02  0.7953868E-01
          2   -1    0    0  501    0  0.00000000000E+00  0.00000000000E+00  0.23123445632E+04  0.23123445632E+04  0.00000000000E+00 0. -1.
         -2   -1    0    0    0  501 -0.00000000000E+00 -0.00000000000E+00 -0.19629598298E+04  0.19629598298E+04  0.00000000000E+00 0.  1.
         23    2    1    2    0    0 -0.80680209917E+03 -0.16874632165E+04 -0.84666960730E+03  0.20551675232E+04  0.91664551450E+02 0.  0.
         11    1    3    3    0    0 -0.33989673105E+03 -0.79630153086E+03 -0.42133521860E+03  0.96288591342E+03  0.00000000000E+00 0.  1.
        -11    1    3    3    0    0 -0.46690536812E+03 -0.89116168568E+03 -0.42533438870E+03  0.10922816098E+04  0.00000000000E+00 0. -1.
         22    1    1    2    0    0  0.80680209917E+03  0.16874632165E+04  0.11960543407E+04  0.22201368697E+04  0.00000000000E+00 0. -1.
<mgrwt>
<rscale>  0 0.42610043E+04</rscale>
<asrwt>0</asrwt>
<pdfrwt beam="1">  1        2 0.35574532E+00 0.42610043E+04</pdfrwt>
<pdfrwt beam="2">  1       -2 0.30199382E+00 0.42610043E+04</pdfrwt>
<totfact> 0.10649104E-01</totfact>
</mgrwt>
</event>
<event>
 6    1  0.1028026E-006  0.1366767E+04  0.7818608E-02  0.8978232E-01
         -2   -1    0    0    0  501 -0.00000000000E+00  0.00000000000E+00  0.55696697237E+03  0.55696697237E+03  0.00000000000E+00 0.  1.
          2   -1    0    0  501    0  0.00000000000E+00 -0.00000000000E+00 -0.83849289797E+03  0.83849289797E+03  0.00000000000E+00 0. -1.
         23    2    1    2    0    0  0.28242812253E+03 -0.31163145055E+03 -0.68767611255E+03  0.81079092151E+03  0.87199066836E+02 0.  0.
         13    1    3    3    0    0 -0.14241955240E+01 -0.14969291705E+02 -0.51285902617E+02  0.53444848529E+02  0.00000000000E+00 0. -1.
        -13    1    3    3    0    0  0.28385231805E+03 -0.29666215885E+03 -0.63639020993E+03  0.75734607298E+03  0.00000000000E+00 0.  1.
         22    1    1    2    0    0 -0.28242812253E+03  0.31163145055E+03  0.40615018695E+03  0.58466894884E+03  0.00000000000E+00 0.  1.
<mgrwt>
<rscale>  0 0.13667668E+04</rscale>
<asrwt>0</asrwt>
<pdfrwt beam="1">  1        2 0.12899891E+00 0.13667668E+04</pdfrwt>
<pdfrwt beam="2">  1       -2 0.85687227E-01 0.13667668E+04</pdfrwt>
<totfact> 0.37331148E+01</totfact>
</mgrwt>
</event>
<event>
 6    1  0.1028026E-006  0.2032178E+04  0.7818608E-02  0.8591722E-01
          2   -1    0    0  501    0  0.00000000000E+00  0.00000000000E+00  0.14054472937E+04  0.14054472937E+04  0.00000000000E+00 0. -1.
         -2   -1    0    0    0  501 -0.00000000000E+00 -0.00000000000E+00 -0.73459677998E+03  0.73459677998E+03  0.00000000000E+00 0.  1.
         23    2    1    2    0    0 -0.11831714217E+03 -0.97320609284E+02  0.13918012925E+04  0.14029957221E+04  0.88407642794E+02 0.  0.
         11    1    3    3    0    0  0.41067062568E+01  0.76500893332E+01  0.21747110176E+03  0.21764436360E+03  0.00000000000E+00 0.  1.
        -11    1    3    3    0    0 -0.12242384843E+03 -0.10497069862E+03  0.11743301908E+04  0.11853513585E+04  0.00000000000E+00 0. -1.
         22    1    1    2    0    0  0.11831714217E+03  0.97320609284E+02 -0.72095077878E+03  0.73704835157E+03  0.00000000000E+00 0.  1.
<mgrwt>
<rscale>  0 0.20321782E+04</rscale>
<asrwt>0</asrwt>
<pdfrwt beam="1">  1        2 0.21622266E+00 0.20321782E+04</pdfrwt>
<pdfrwt beam="2">  1       -2 0.11301489E+00 0.20321782E+04</pdfrwt>
<totfact> 0.81921475E+00</totfact>
</mgrwt>
</event>
<event>
 6    1  0.1028026E-006  0.1986481E+03  0.7818608E-02  0.1150885E+00
         -4   -1    0    0    0  501 -0.00000000000E+00  0.00000000000E+00  0.39784015829E+03  0.39784015829E+03  0.00000000000E+00 0.  1.
          4   -1    0    0  501    0  0.00000000000E+00 -0.00000000000E+00 -0.24797059063E+02  0.24797059063E+02  0.00000000000E+00 0. -1.
         23    2    1    2    0    0 -0.32730277454E+02  0.42683719685E+02  0.11938888437E+03  0.16334272898E+03  0.97642052467E+02 0.  0.
         13    1    3    3    0    0  0.18017546261E+02  0.55063753350E+02  0.50270166506E+02  0.76705531396E+02  0.00000000000E+00 0. -1.
        -13    1    3    3    0    0 -0.50747823715E+02 -0.12380033665E+02  0.69118717866E+02  0.86637197582E+02  0.00000000000E+00 0.  1.
         22    1    1    2    0    0  0.32730277454E+02 -0.42683719685E+02  0.25365421486E+03  0.25929448838E+03  0.00000000000E+00 0.  1.
<mgrwt>
<rscale>  0 0.19864809E+03</rscale>
<asrwt>0</asrwt>
<pdfrwt beam="1">  1        4 0.38149325E-02 0.19864809E+03</pdfrwt>
<pdfrwt beam="2">  1       -4 0.61206173E-01 0.19864809E+03</pdfrwt>
<totfact> 0.16711014E+03</totfact>
</mgrwt>
</event>
<event>
 6    1  0.1028026E-006  0.3893760E+04  0.7818608E-02  0.8026328E-01
         -2   -1    0    0    0  501 -0.00000000000E+00  0.00000000000E+00  0.11308463628E+04  0.11308463628E+04  0.00000000000E+00 0.  1.
          2   -1    0    0  501    0  0.00000000000E+00 -0.00000000000E+00 -0.33517738378E+04  0.33517738378E+04  0.00000000000E+00 0. -1.
         23    2    1    2    0    0 -0.12156510286E+04 -0.43497119871E+03  0.56515636277E+03  0.14119084723E+04  0.84121654742E+02 0.  0.
         11    1    3    3    0    0 -0.49009316891E+03 -0.16898391474E+03  0.18261644755E+03  0.54963228123E+03  0.00000000000E+00 0. -1.
        -11    1    3    3    0    0 -0.72555785968E+03 -0.26598728397E+03  0.38253991522E+03  0.86227619109E+03  0.00000000000E+00 0.  1.
         22    1    1    2    0    0  0.12156510286E+04  0.43497119871E+03 -0.27860838378E+04  0.30707117283E+04  0.00000000000E+00 0. -1.
<mgrwt>
<rscale>  0 0.38937598E+04</rscale>
<asrwt>0</asrwt>
<pdfrwt beam="1">  1        2 0.51565750E+00 0.38937598E+04</pdfrwt>
<pdfrwt beam="2">  1       -2 0.17397637E+00 0.38937598E+04</pdfrwt>
<totfact> 0.16319350E-01</totfact>
</mgrwt>
</event>
<event>
 6    1  0.1028026E-006  0.5652758E+03  0.7818608E-02  0.9980188E-01
          1   -1    0    0  501    0  0.00000000000E+00  0.00000000000E+00  0.48552595955E+03  0.48552595955E+03  0.00000000000E+00 0. -1.
         -1   -1    0    0    0  501 -0.00000000000E+00 -0.00000000000E+00 -0.16453120458E+03  0.16453120458E+03  0.00000000000E+00 0.  1.
         23    2    1    2    0    0 -0.21798226989E+03  0.16347637859E+02 -0.28014643941E+02  0.23824279360E+03  0.90505763233E+02 0.  0.
         11    1    3    3    0    0 -0.19169237205E+03  0.15301139508E+02  0.93671407210E+01  0.19253008517E+03  0.00000000000E+00 0.  1.
        -11    1    3    3    0    0 -0.26289897840E+02  0.10464983514E+01 -0.37381784662E+02  0.45712708427E+02  0.00000000000E+00 0. -1.
         22    1    1    2    0    0  0.21798226989E+03 -0.16347637859E+02  0.34900939890E+03  0.41181437053E+03  0.00000000000E+00 0. -1.
<mgrwt>
<rscale>  0 0.56527576E+03</rscale>
<asrwt>0</asrwt>
<pdfrwt beam="1">  1        1 0.74696301E-01 0.56527576E+03</pdfrwt>
<pdfrwt beam="2">  1       -1 0.25312493E-01 0.56527576E+03</pdfrwt>
<totfact> 0.63819494E+02</totfact>
</mgrwt>
</event>
<event>
 6    1  0.1028026E-006  0.1172448E+04  0.7818608E-02  0.9137320E-01
         -2   -1    0    0    0  501 -0.00000000000E+00  0.00000000000E+00  0.67168262976E+03  0.67168262976E+03  0.00000000000E+00 0.  1.
          2   -1    0    0  501    0  0.00000000000E+00 -0.00000000000E+00 -0.51163875102E+03  0.51163875102E+03  0.00000000000E+00 0. -1.
         23    2    1    2    0    0 -0.28171219265E+03 -0.32740414734E+02 -0.43185138970E+03  0.52698785043E+03  0.10385989346E+03 0.  0.
         13    1    3    3    0    0 -0.68455673663E+02 -0.44953634016E+02 -0.17282063257E+03  0.19124324697E+03  0.00000000000E+00 0. -1.
        -13    1    3    3    0    0 -0.21325651899E+03  0.12213219282E+02 -0.25903075713E+03  0.33574460346E+03  0.00000000000E+00 0.  1.
         22    1    1    2    0    0  0.28171219265E+03  0.32740414734E+02  0.59189526845E+03  0.65633353035E+03  0.00000000000E+00 0.  1.
<mgrwt>
<rscale>  0 0.11724485E+04</rscale>
<asrwt>0</asrwt>
<pdfrwt beam="1">  1        2 0.78713654E-01 0.11724485E+04</pdfrwt>
<pdfrwt beam="2">  1       -2 0.10333579E+00 0.11724485E+04</pdfrwt>
<totfact> 0.45267705E+01</totfact>
</mgrwt>
</event>
<event>
 6    1  0.1028026E-006  0.2892629E+04  0.7818608E-02  0.8275074E-01
          2   -1    0    0  501    0  0.00000000000E+00  0.00000000000E+00  0.91771173691E+03  0.91771173691E+03  0.00000000000E+00 0. -1.
         -2   -1    0    0    0  501 -0.00000000000E+00 -0.00000000000E+00 -0.22793928277E+04  0.22793928277E+04  0.00000000000E+00 0.  1.
         23    2    1    2    0    0  0.13667594831E+04 -0.57059704317E+02 -0.16724207495E+03  0.13810726660E+04  0.90025011509E+02 0.  0.
         13    1    3    3    0    0  0.67728767223E+03  0.31698613563E+01 -0.50249808284E+02  0.67915659623E+03  0.00000000000E+00 0. -1.
        -13    1    3    3    0    0  0.68947181082E+03 -0.60229565673E+02 -0.11699226666E+03  0.70191606974E+03  0.00000000000E+00 0.  1.
         22    1    1    2    0    0 -0.13667594831E+04  0.57059704317E+02 -0.11944390159E+04  0.18160318987E+04  0.00000000000E+00 0.  1.
<mgrwt>
<rscale>  0 0.28926289E+04</rscale>
<asrwt>0</asrwt>
<pdfrwt beam="1">  1        2 0.14118642E+00 0.28926289E+04</pdfrwt>
<pdfrwt beam="2">  1       -2 0.35067582E+00 0.28926289E+04</pdfrwt>
<totfact> 0.37946796E-01</totfact>
</mgrwt>
</event>
<event>
 6    1  0.1028026E-006  0.5616021E+03  0.7818608E-02  0.9988436E-01
          2   -1    0    0  501    0  0.00000000000E+00  0.00000000000E+00  0.47576681646E+03  0.47576681646E+03  0.00000000000E+00 0. -1.
         -2   -1    0    0    0  501 -0.00000000000E+00 -0.00000000000E+00 -0.16573085885E+03  0.16573085885E+03  0.00000000000E+00 0.  1.
         23    2    1    2    0    0 -0.59990705298E+02 -0.15313296876E+02  0.46318170901E+03  0.47630989441E+03  0.92197820876E+02 0.  0.
         11    1    3    3    0    0 -0.29185035545E+02 -0.51201185007E+02  0.32387060090E+03  0.32918914589E+03  0.00000000000E+00 0. -1.
        -11    1    3    3    0    0 -0.30805669752E+02  0.35887888132E+02  0.13931110811E+03  0.14712074852E+03  0.00000000000E+00 0.  1.
         22    1    1    2    0    0  0.59990705298E+02  0.15313296876E+02 -0.15314575141E+03  0.16518778090E+03  0.00000000000E+00 0.  1.
<mgrwt>
<rscale>  0 0.56160215E+03</rscale>
<asrwt>0</asrwt>
<pdfrwt beam="1">  1        2 0.73194895E-01 0.56160215E+03</pdfrwt>
<pdfrwt beam="2">  1       -2 0.25497055E-01 0.56160215E+03</pdfrwt>
<totfact> 0.90546546E+02</totfact>
</mgrwt>
</event>
<event>
 6    1  0.1028026E-006  0.2930849E+04  0.7818608E-02  0.8263758E-01
          2   -1    0    0  501    0  0.00000000000E+00  0.00000000000E+00  0.29211535580E+04  0.29211535580E+04  0.00000000000E+00 0. -1.
         -2   -1    0    0    0  501 -0.00000000000E+00 -0.00000000000E+00 -0.73514410710E+03  0.73514410710E+03  0.00000000000E+00 0.  1.
         23    2    1    2    0    0  0.30597262885E+03  0.59522987000E+03  0.27184375012E+04  0.28010798703E+04  0.90709118068E+02 0.  0.
         13    1    3    3    0    0  0.82424752782E+02  0.12052705702E+03  0.46631381983E+03  0.48864014357E+03  0.00000000000E+00 0. -1.
        -13    1    3    3    0    0  0.22354787607E+03  0.47470281298E+03  0.22521236813E+04  0.23124397267E+04  0.00000000000E+00 0.  1.
         22    1    1    2    0    0 -0.30597262885E+03 -0.59522987000E+03 -0.53242805031E+03  0.85521779478E+03  0.00000000000E+00 0.  1.
<mgrwt>
<rscale>  0 0.29308489E+04</rscale>
<asrwt>0</asrwt>
<pdfrwt beam="1">  1        2 0.44940823E+00 0.29308489E+04</pdfrwt>
<pdfrwt beam="2">  1       -2 0.11309909E+00 0.29308489E+04</pdfrwt>
<totfact> 0.10301954E+00</totfact>
</mgrwt>
</event>
<event>
 6    1  0.1028026E-006  0.2030858E+04  0.7818608E-02  0.8592328E-01
          1   -1    0    0  501    0  0.00000000000E+00  0.00000000000E+00  0.18584178432E+04  0.18584178432E+04  0.00000000000E+00 0. -1.
         -1   -1    0    0    0  501 -0.00000000000E+00 -0.00000000000E+00 -0.55482467349E+03  0.55482467349E+03  0.00000000000E+00 0.  1.
         23    2    1    2    0    0 -0.70734486490E+03  0.69286858113E+03  0.39712701114E+03  0.10708250983E+04  0.92481887417E+02 0.  0.
         13    1    3    3    0    0 -0.36925932835E+03  0.32150154297E+03  0.23507348075E+03  0.54311622610E+03  0.00000000000E+00 0.  1.
        -13    1    3    3    0    0 -0.33808553656E+03  0.37136703816E+03  0.16205353039E+03  0.52770887217E+03  0.00000000000E+00 0. -1.
         22    1    1    2    0    0  0.70734486490E+03 -0.69286858113E+03  0.90646615858E+03  0.13424174184E+04  0.00000000000E+00 0.  1.
<mgrwt>
<rscale>  0 0.20308580E+04</rscale>
<asrwt>0</asrwt>
<pdfrwt beam="1">  1        1 0.28591043E+00 0.20308580E+04</pdfrwt>
<pdfrwt beam="2">  1       -1 0.85357643E-01 0.20308580E+04</pdfrwt>
<totfact> 0.46663047E+00</totfact>
</mgrwt>
</event>
<event>
 6    1  0.1028026E-006  0.2246443E+04  0.7818608E-02  0.8499343E-01
          2   -1    0    0  501    0  0.00000000000E+00  0.00000000000E+00  0.11694679407E+04  0.11694679407E+04  0.00000000000E+00 0. -1.
         -2   -1    0    0    0  501 -0.00000000000E+00 -0.00000000000E+00 -0.10788033890E+04  0.10788033890E+04  0.00000000000E+00 0.  1.
         23    2    1    2    0    0  0.16089049257E+03  0.38886780189E+03  0.10856815928E+04  0.11679182254E+04  0.90689262709E+02 0.  0.
         11    1    3    3    0    0  0.10829556349E+03  0.17331108555E+03  0.43915382381E+03  0.48437665345E+03  0.00000000000E+00 0. -1.
        -11    1    3    3    0    0  0.52594929079E+02  0.21555671634E+03  0.64652776898E+03  0.68354157195E+03  0.00000000000E+00 0.  1.
         22    1    1    2    0    0 -0.16089049257E+03 -0.38886780189E+03 -0.99501704103E+03  0.10803531043E+04  0.00000000000E+00 0.  1.
<mgrwt>
<rscale>  0 0.22464425E+04</rscale>
<asrwt>0</asrwt>
<pdfrwt beam="1">  1        2 0.17991814E+00 0.22464425E+04</pdfrwt>
<pdfrwt beam="2">  1       -2 0.16596975E+00 0.22464425E+04</pdfrwt>
<totfact> 0.40986544E+00</totfact>
</mgrwt>
</event>
<event>
 6    1  0.1028026E-006  0.7235757E+03  0.7818608E-02  0.9677743E-01
         -1   -1    0    0    0  501 -0.00000000000E+00  0.00000000000E+00  0.15239356262E+03  0.15239356262E+03  0.00000000000E+00 0.  1.
          1   -1    0    0  501    0  0.00000000000E+00 -0.00000000000E+00 -0.85889749236E+03  0.85889749236E+03  0.00000000000E+00 0. -1.
         23    2    1    2    0    0 -0.29633751691E+02 -0.32410648838E+03 -0.56055869971E+03  0.65460746240E+03  0.91442325879E+02 0.  0.
         11    1    3    3    0    0  0.31633204391E+02 -0.11745153836E+03 -0.17997738784E+03  0.21722657208E+03  0.00000000000E+00 0. -1.
        -11    1    3    3    0    0 -0.61266956082E+02 -0.20665495002E+03 -0.38058131187E+03  0.43738089032E+03  0.00000000000E+00 0.  1.
         22    1    1    2    0    0  0.29633751691E+02  0.32410648838E+03 -0.14594523003E+03  0.35668359258E+03  0.00000000000E+00 0.  1.
<mgrwt>
<rscale>  0 0.72357570E+03</rscale>
<asrwt>0</asrwt>
<pdfrwt beam="1">  1        1 0.13213807E+00 0.72357570E+03</pdfrwt>
<pdfrwt beam="2">  1       -1 0.23445164E-01 0.72357570E+03</pdfrwt>
<totfact> 0.31116355E+02</totfact>
</mgrwt>
</event>
<event>
 6    1  0.1165898E-006  0.3537977E+04  0.7818608E-02  0.8104848E-01
          2   -1    0    0  501    0  0.00000000000E+00  0.00000000000E+00  0.23566590466E+04  0.23566590466E+04  0.00000000000E+00 0. -1.
         -2   -1    0    0    0  501 -0.00000000000E+00 -0.00000000000E+00 -0.13278628282E+04  0.13278628282E+04  0.00000000000E+00 0.  1.
         23    2    1    2    0    0 -0.30376188308E+03 -0.23360987367E+03  0.23122591914E+04  0.23450734593E+04  0.77344079504E+02 0.  0.
         11    1    3    3    0    0 -0.25682187957E+03 -0.19282570332E+03  0.17348231523E+04  0.17642988975E+04  0.00000000000E+00 0.  1.
        -11    1    3    3    0    0 -0.46940003518E+02 -0.40784170349E+02  0.57743603903E+03  0.58077456182E+03  0.00000000000E+00 0. -1.
         22    1    1    2    0    0  0.30376188308E+03  0.23360987367E+03 -0.12834629730E+04  0.13394484155E+04  0.00000000000E+00 0.  1.
<mgrwt>
<rscale>  0 0.35379768E+04</rscale>
<asrwt>0</asrwt>
<pdfrwt beam="1">  1        2 0.36256293E+00 0.35379768E+04</pdfrwt>
<pdfrwt beam="2">  1       -2 0.20428659E+00 0.35379768E+04</pdfrwt>
<totfact> 0.42990107E-01</totfact>
</mgrwt>
</event>
<event>
 6    1  0.1028026E-006  0.1748472E+04  0.7818608E-02  0.8734192E-01
         -2   -1    0    0    0  501 -0.00000000000E+00  0.00000000000E+00  0.15531309561E+04  0.15531309561E+04  0.00000000000E+00 0.  1.
          2   -1    0    0  501    0  0.00000000000E+00 -0.00000000000E+00 -0.49209537038E+03  0.49209537038E+03  0.00000000000E+00 0. -1.
         23    2    1    2    0    0  0.52234997685E+03  0.60395532593E+03  0.94155548514E+03  0.12378311144E+04  0.89931096403E+02 0.  0.
         11    1    3    3    0    0  0.35056127785E+03  0.33876122687E+03  0.58002623699E+03  0.75768252848E+03  0.00000000000E+00 0. -1.
        -11    1    3    3    0    0  0.17178869900E+03  0.26519409906E+03  0.36152924815E+03  0.48014858591E+03  0.00000000000E+00 0.  1.
         22    1    1    2    0    0 -0.52234997685E+03 -0.60395532593E+03  0.11948010053E+03  0.80739521206E+03  0.00000000000E+00 0. -1.
<mgrwt>
<rscale>  0 0.17484720E+04</rscale>
<asrwt>0</asrwt>
<pdfrwt beam="1">  1        2 0.75706981E-01 0.17484720E+04</pdfrwt>
<pdfrwt beam="2">  1       -2 0.23894322E+00 0.17484720E+04</pdfrwt>
<totfact> 0.44705075E+00</totfact>
</mgrwt>
</event>
<event>
 6    1  0.1028026E-006  0.2084496E+04  0.7818608E-02  0.8568104E-01
          1   -1    0    0  501    0  0.00000000000E+00  0.00000000000E+00  0.37392992068E+04  0.37392992068E+04  0.00000000000E+00 0. -1.
         -1   -1    0    0    0  501 -0.00000000000E+00 -0.00000000000E+00 -0.29050386269E+03  0.29050386269E+03  0.00000000000E+00 0.  1.
         23    2    1    2    0    0  0.46354662969E+03 -0.91907102198E+03  0.14375206133E+04  0.17704241584E+04  0.91483143011E+02 0.  0.
         13    1    3    3    0    0  0.26924579789E+03 -0.43232669753E+03  0.70583098903E+03  0.87040051595E+03  0.00000000000E+00 0. -1.
        -13    1    3    3    0    0  0.19430083181E+03 -0.48674432445E+03  0.73168962428E+03  0.90002364241E+03  0.00000000000E+00 0.  1.
         22    1    1    2    0    0 -0.46354662969E+03  0.91907102198E+03  0.20112747308E+04  0.22593789111E+04  0.00000000000E+00 0. -1.
<mgrwt>
<rscale>  0 0.20844960E+04</rscale>
<asrwt>0</asrwt>
<pdfrwt beam="1">  1        1 0.57527677E+00 0.20844960E+04</pdfrwt>
<pdfrwt beam="2">  1       -1 0.44692904E-01 0.20844960E+04</pdfrwt>
<totfact> 0.73527962E-01</totfact>
</mgrwt>
</event>
<event>
 6    1  0.1028026E-006  0.2356864E+04  0.7818608E-02  0.8455832E-01
          1   -1    0    0  501    0  0.00000000000E+00  0.00000000000E+00  0.21135044190E+04  0.21135044190E+04  0.00000000000E+00 0. -1.
         -1   -1    0    0    0  501 -0.00000000000E+00 -0.00000000000E+00 -0.65706130736E+03  0.65706130736E+03  0.00000000000E+00 0.  1.
         23    2    1    2    0    0  0.40794085255E+03 -0.13322243550E+03 -0.55914702952E+03  0.70979704122E+03  0.83680837700E+02 0.  0.
         13    1    3    3    0    0  0.13550715343E+03 -0.86301352928E+02 -0.21376558736E+03  0.26740575627E+03  0.00000000000E+00 0.  1.
        -13    1    3    3    0    0  0.27243369913E+03 -0.46921082576E+02 -0.34538144216E+03  0.44239128495E+03  0.00000000000E+00 0. -1.
         22    1    1    2    0    0 -0.40794085255E+03  0.13322243550E+03  0.20155901412E+04  0.20607686852E+04  0.00000000000E+00 0. -1.
<mgrwt>
<rscale>  0 0.23568640E+04</rscale>
<asrwt>0</asrwt>
<pdfrwt beam="1">  1        1 0.32515452E+00 0.23568640E+04</pdfrwt>
<pdfrwt beam="2">  1       -1 0.10108636E+00 0.23568640E+04</pdfrwt>
<totfact> 0.20861259E+00</totfact>
</mgrwt>
</event>
<event>
 6    1  0.1028026E-006  0.3114985E+04  0.7818608E-02  0.8211637E-01
          2   -1    0    0  501    0  0.00000000000E+00  0.00000000000E+00  0.27132005706E+04  0.27132005706E+04  0.00000000000E+00 0. -1.
         -2   -1    0    0    0  501 -0.00000000000E+00 -0.00000000000E+00 -0.89406691179E+03  0.89406691179E+03  0.00000000000E+00 0.  1.
         23    2    1    2    0    0  0.11300546909E+04  0.27978140041E+03  0.21061727549E+04  0.24082292515E+04  0.91121995267E+02 0.  0.
         11    1    3    3    0    0  0.18766230455E+03  0.33112670075E+02  0.28396650764E+03  0.34198036045E+03  0.00000000000E+00 0. -1.
        -11    1    3    3    0    0  0.94239238635E+03  0.24666873034E+03  0.18222062473E+04  0.20662488911E+04  0.00000000000E+00 0.  1.
         22    1    1    2    0    0 -0.11300546909E+04 -0.27978140041E+03 -0.28703909607E+03  0.11990382309E+04  0.00000000000E+00 0.  1.
<mgrwt>
<rscale>  0 0.31149850E+04</rscale>
<asrwt>0</asrwt>
<pdfrwt beam="1">  1        2 0.41741547E+00 0.31149850E+04</pdfrwt>
<pdfrwt beam="2">  1       -2 0.13754876E+00 0.31149850E+04</pdfrwt>
<totfact> 0.83114157E-01</totfact>
</mgrwt>
</event>
<event>
 6    1  0.1028026E-006  0.4045329E+03  0.7818608E-02  0.1042221E+00
         -2   -1    0    0    0  501 -0.00000000000E+00  0.00000000000E+00  0.15522765512E+03  0.15522765512E+03  0.00000000000E+00 0.  1.
          2   -1    0    0  501    0  0.00000000000E+00 -0.00000000000E+00 -0.26355942614E+03  0.26355942614E+03  0.00000000000E+00 0. -1.
         23    2    1    2    0    0  0.14539978729E+03  0.56495974959E+02  0.58203178958E+02  0.19060561205E+03  0.92790063988E+02 0.  0.
         13    1    3    3    0    0  0.14973484195E+03  0.30412930933E+02  0.38323492682E+02  0.15752510705E+03  0.00000000000E+00 0. -1.
        -13    1    3    3    0    0 -0.43350546587E+01  0.26083044026E+02  0.19879686276E+02  0.33080504999E+02  0.00000000000E+00 0.  1.
         22    1    1    2    0    0 -0.14539978729E+03 -0.56495974959E+02 -0.16653494997E+03  0.22818146921E+03  0.00000000000E+00 0. -1.
<mgrwt>
<rscale>  0 0.40453287E+03</rscale>
<asrwt>0</asrwt>
<pdfrwt beam="1">  1        2 0.40547604E-01 0.40453287E+03</pdfrwt>
<pdfrwt beam="2">  1       -2 0.23881178E-01 0.40453287E+03</pdfrwt>
<totfact> 0.19542900E+03</totfact>
</mgrwt>
</event>
<event>
 6    1  0.1028026E-006  0.2269306E+04  0.7818608E-02  0.8490122E-01
         -1   -1    0    0    0  501 -0.00000000000E+00  0.00000000000E+00  0.73622288691E+03  0.73622288691E+03  0.00000000000E+00 0.  1.
          1   -1    0    0  501    0  0.00000000000E+00 -0.00000000000E+00 -0.17487067332E+04  0.17487067332E+04  0.00000000000E+00 0. -1.
         23    2    1    2    0    0 -0.88797382965E+03  0.39810203563E+03 -0.11418346421E+04  0.15032400657E+04  0.94665687291E+02 0.  0.
         11    1    3    3    0    0 -0.68432173273E+03  0.27799072268E+03 -0.81582849103E+03  0.11005231495E+04  0.00000000000E+00 0. -1.
        -11    1    3    3    0    0 -0.20365209692E+03  0.12011131295E+03 -0.32600615108E+03  0.40271691624E+03  0.00000000000E+00 0.  1.
         22    1    1    2    0    0  0.88797382965E+03 -0.39810203563E+03  0.12935079577E+03  0.98168955443E+03  0.00000000000E+00 0.  1.
<mgrwt>
<rscale>  0 0.22693064E+04</rscale>
<asrwt>0</asrwt>
<pdfrwt beam="1">  1        1 0.26903180E+00 0.22693064E+04</pdfrwt>
<pdfrwt beam="2">  1       -1 0.11326506E+00 0.22693064E+04</pdfrwt>
<totfact> 0.28480958E+00</totfact>
</mgrwt>
</event>
<event>
 6    1  0.1028026E-006  0.1037353E+04  0.7818608E-02  0.9268499E-01
          2   -1    0    0  501    0  0.00000000000E+00  0.00000000000E+00  0.16944826418E+04  0.16944826418E+04  0.00000000000E+00 0. -1.
         -2   -1    0    0    0  501 -0.00000000000E+00 -0.00000000000E+00 -0.15876550915E+03  0.15876550915E+03  0.00000000000E+00 0.  1.
         23    2    1    2    0    0  0.48421117416E+03  0.50604904769E+02  0.47488921118E+03  0.68603900235E+03  0.90046833830E+02 0.  0.
         13    1    3    3    0    0  0.15868030285E+03  0.45526988854E+02  0.20459340495E+03  0.26288896244E+03  0.00000000000E+00 0.  1.
        -13    1    3    3    0    0  0.32553087131E+03  0.50779159150E+01  0.27029580623E+03  0.42315003991E+03  0.00000000000E+00 0. -1.
         22    1    1    2    0    0 -0.48421117416E+03 -0.50604904769E+02  0.10608279215E+04  0.11672091486E+04  0.00000000000E+00 0. -1.
<mgrwt>
<rscale>  0 0.10373532E+04</rscale>
<asrwt>0</asrwt>
<pdfrwt beam="1">  1        2 0.26068962E+00 0.10373532E+04</pdfrwt>
<pdfrwt beam="2">  1       -2 0.24425464E-01 0.10373532E+04</pdfrwt>
<totfact> 0.14727998E+02</totfact>
</mgrwt>
</event>
<event>
 6    1  0.1028026E-006  0.3041899E+04  0.7818608E-02  0.8231867E-01
          2   -1    0    0  501    0  0.00000000000E+00  0.00000000000E+00  0.72294375536E+03  0.72294375536E+03  0.00000000000E+00 0. -1.
         -2   -1    0    0    0  501 -0.00000000000E+00 -0.00000000000E+00 -0.31998166378E+04  0.31998166378E+04  0.00000000000E+00 0.  1.
         23    2    1    2    0    0 -0.12122862295E+03 -0.14468239729E+03 -0.31839760662E+04  0.31908968215E+04  0.92138809997E+02 0.  0.
         11    1    3    3    0    0 -0.76154215550E+02 -0.98081615684E+02 -0.13291169928E+04  0.13349050335E+04  0.00000000000E+00 0. -1.
        -11    1    3    3    0    0 -0.45074407405E+02 -0.46600781610E+02 -0.18548590733E+04  0.18559917880E+04  0.00000000000E+00 0.  1.
         22    1    1    2    0    0  0.12122862295E+03  0.14468239729E+03  0.70710318373E+03  0.73186357168E+03  0.00000000000E+00 0. -1.
<mgrwt>
<rscale>  0 0.30418990E+04</rscale>
<asrwt>0</asrwt>
<pdfrwt beam="1">  1        2 0.11122212E+00 0.30418990E+04</pdfrwt>
<pdfrwt beam="2">  1       -2 0.49227948E+00 0.30418990E+04</pdfrwt>
<totfact> 0.61676021E-02</totfact>
</mgrwt>
</event>
<event>
 6    1  0.1028026E-006  0.6418839E+04  0.7818608E-02  0.7640534E-01
          2   -1    0    0  501    0  0.00000000000E+00  0.00000000000E+00  0.30845971675E+04  0.30845971675E+04  0.00000000000E+00 0. -1.
         -2   -1    0    0    0  501 -0.00000000000E+00 -0.00000000000E+00 -0.33392931461E+04  0.33392931461E+04  0.00000000000E+00 0.  1.
         23    2    1    2    0    0  0.12400704138E+04 -0.18897753823E+04 -0.24067063687E+04  0.33029650748E+04  0.91198211037E+02 0.  0.
         13    1    3    3    0    0  0.80574840350E+03 -0.13055383816E+04 -0.16332502249E+04  0.22407961202E+04  0.00000000000E+00 0.  1.
        -13    1    3    3    0    0  0.43432201025E+03 -0.58423700075E+03 -0.77345614380E+03  0.10621689546E+04  0.00000000000E+00 0. -1.
         22    1    1    2    0    0 -0.12400704138E+04  0.18897753823E+04  0.21520103901E+04  0.31209252387E+04  0.00000000000E+00 0. -1.
<mgrwt>
<rscale>  0 0.64188392E+04</rscale>
<asrwt>0</asrwt>
<pdfrwt beam="1">  1        2 0.47455341E+00 0.64188392E+04</pdfrwt>
<pdfrwt beam="2">  1       -2 0.51373741E+00 0.64188392E+04</pdfrwt>
<totfact> 0.13852287E-03</totfact>
</mgrwt>
</event>
<event>
 6    1  0.1028026E-006  0.4173732E+04  0.7818608E-02  0.7970388E-01
         -1   -1    0    0    0  501 -0.00000000000E+00  0.00000000000E+00  0.19858603004E+04  0.19858603004E+04  0.00000000000E+00 0.  1.
          1   -1    0    0  501    0  0.00000000000E+00 -0.00000000000E+00 -0.21930094724E+04  0.21930094724E+04  0.00000000000E+00 0. -1.
         23    2    1    2    0    0 -0.74522977030E+03 -0.17359737989E+04  0.78171768399E+03  0.20465400376E+04  0.90945848432E+02 0.  0.
         11    1    3    3    0    0 -0.47728365874E+03 -0.11382727413E+04  0.46498200143E+03  0.13189665599E+04  0.00000000000E+00 0.  1.
        -11    1    3    3    0    0 -0.26794611156E+03 -0.59770105760E+03  0.31673568256E+03  0.72757347778E+03  0.00000000000E+00 0. -1.
         22    1    1    2    0    0  0.74522977030E+03  0.17359737989E+04 -0.98886685597E+03  0.21323297352E+04  0.00000000000E+00 0. -1.
<mgrwt>
<rscale>  0 0.41737324E+04</rscale>
<asrwt>0</asrwt>
<pdfrwt beam="1">  1        1 0.33738607E+00 0.41737324E+04</pdfrwt>
<pdfrwt beam="2">  1       -1 0.30551697E+00 0.41737324E+04</pdfrwt>
<totfact> 0.51686391E-02</totfact>
</mgrwt>
</event>
<event>
 6    1  0.1028026E-006  0.1575735E+04  0.7818608E-02  0.8835595E-01
         -1   -1    0    0    0  501 -0.00000000000E+00  0.00000000000E+00  0.51148673616E+03  0.51148673616E+03  0.00000000000E+00 0.  1.
          1   -1    0    0  501    0  0.00000000000E+00 -0.00000000000E+00 -0.12135899935E+04  0.12135899935E+04  0.00000000000E+00 0. -1.
         23    2    1    2    0    0  0.71469792322E+03  0.62080646712E+02 -0.70188760701E+03  0.10076875921E+04  0.90227170352E+02 0.  0.
         11    1    3    3    0    0  0.12309840987E+03  0.70637006311E+00 -0.16920861110E+03  0.20924930476E+03  0.00000000000E+00 0.  1.
        -11    1    3    3    0    0  0.59159951334E+03  0.61374276648E+02 -0.53267899591E+03  0.79843828735E+03  0.00000000000E+00 0. -1.
         22    1    1    2    0    0 -0.71469792322E+03 -0.62080646712E+02 -0.21565030990E+00  0.71738913754E+03  0.00000000000E+00 0.  1.
<mgrwt>
<rscale>  0 0.15757350E+04</rscale>
<asrwt>0</asrwt>
<pdfrwt beam="1">  1        1 0.18670615E+00 0.15757350E+04</pdfrwt>
<pdfrwt beam="2">  1       -1 0.78690267E-01 0.15757350E+04</pdfrwt>
<totfact> 0.16224591E+01</totfact>
</mgrwt>
</event>
<event>
 6    1  0.1028026E-006  0.2504112E+04  0.7818608E-02  0.8401522E-01
         -2   -1    0    0    0  501 -0.00000000000E+00  0.00000000000E+00  0.47863024882E+03  0.47863024882E+03  0.00000000000E+00 0.  1.
          2   -1    0    0  501    0  0.00000000000E+00 -0.00000000000E+00 -0.32752726789E+04  0.32752726789E+04  0.00000000000E+00 0. -1.
         23    2    1    2    0    0  0.46235655643E+03  0.32150018524E+03  0.27318170658E+03  0.63285243399E+03  0.93477291390E+02 0.  0.
         11    1    3    3    0    0  0.18825464778E+03  0.11006806337E+03  0.15308552182E+03  0.26643942647E+03  0.00000000000E+00 0. -1.
        -11    1    3    3    0    0  0.27410190865E+03  0.21143212187E+03  0.12009618476E+03  0.36641300752E+03  0.00000000000E+00 0.  1.
         22    1    1    2    0    0 -0.46235655643E+03 -0.32150018524E+03 -0.30698241367E+04  0.31210504938E+04  0.00000000000E+00 0. -1.
<mgrwt>
<rscale>  0 0.25041123E+04</rscale>
<asrwt>0</asrwt>
<pdfrwt beam="1">  1        2 0.50388810E+00 0.25041123E+04</pdfrwt>
<pdfrwt beam="2">  1       -2 0.73635424E-01 0.25041123E+04</pdfrwt>
<totfact> 0.17165475E+00</totfact>
</mgrwt>
</event>
<event>
 6    1  0.1028026E-006  0.1057431E+04  0.7818608E-02  0.9247706E-01
         -2   -1    0    0    0  501 -0.00000000000E+00  0.00000000000E+00  0.55947048976E+03  0.55947048976E+03  0.00000000000E+00 0.  1.
          2   -1    0    0  501    0  0.00000000000E+00 -0.00000000000E+00 -0.49965107561E+03  0.49965107561E+03  0.00000000000E+00 0. -1.
         23    2    1    2    0    0  0.22145636930E+03 -0.36716964516E+01  0.50670456607E+03  0.56036035612E+03  0.90541739404E+02 0.  0.
         13    1    3    3    0    0  0.72251084433E+02  0.31197330300E+02  0.24236830984E+03  0.25482521506E+03  0.00000000000E+00 0.  1.
        -13    1    3    3    0    0  0.14920528487E+03 -0.34869026752E+02  0.26433625623E+03  0.30553514105E+03  0.00000000000E+00 0. -1.
         22    1    1    2    0    0 -0.22145636930E+03  0.36716964516E+01 -0.44688515191E+03  0.49876120926E+03  0.00000000000E+00 0. -1.
<mgrwt>
<rscale>  0 0.10574309E+04</rscale>
<asrwt>0</asrwt>
<pdfrwt beam="1">  1        2 0.76869396E-01 0.10574309E+04</pdfrwt>
<pdfrwt beam="2">  1       -2 0.86072384E-01 0.10574309E+04</pdfrwt>
<totfact> 0.71866684E+01</totfact>
</mgrwt>
</event>
<event>
 6    1  0.1028026E-006  0.6687469E+03  0.7818608E-02  0.9772224E-01
          2   -1    0    0  501    0  0.00000000000E+00  0.00000000000E+00  0.55658039513E+03  0.55658039513E+03  0.00000000000E+00 0. -1.
         -2   -1    0    0    0  501 -0.00000000000E+00 -0.00000000000E+00 -0.20087950522E+03  0.20087950522E+03  0.00000000000E+00 0.  1.
         23    2    1    2    0    0  0.29283841705E+03  0.14443875818E+03  0.14469680495E+03  0.36869311005E+03  0.91545347612E+02 0.  0.
         11    1    3    3    0    0  0.14066114264E+03  0.19123940032E+02  0.58424852204E+02  0.15350812840E+03  0.00000000000E+00 0.  1.
        -11    1    3    3    0    0  0.15217727441E+03  0.12531481815E+03  0.86271952746E+02  0.21518498165E+03  0.00000000000E+00 0. -1.
         22    1    1    2    0    0 -0.29283841705E+03 -0.14443875818E+03  0.21100408496E+03  0.38876679029E+03  0.00000000000E+00 0. -1.
<mgrwt>
<rscale>  0 0.66874687E+03</rscale>
<asrwt>0</asrwt>
<pdfrwt beam="1">  1        2 0.85627753E-01 0.66874687E+03</pdfrwt>
<pdfrwt beam="2">  1       -2 0.30904539E-01 0.66874687E+03</pdfrwt>
<totfact> 0.52978559E+02</totfact>
</mgrwt>
</event>
<event>
 6    1  0.1101582E-006  0.2338910E+04  0.7818608E-02  0.8462736E-01
          1   -1    0    0  501    0  0.00000000000E+00  0.00000000000E+00  0.20754959860E+04  0.20754959860E+04  0.00000000000E+00 0. -1.
         -1   -1    0    0    0  501 -0.00000000000E+00 -0.00000000000E+00 -0.65893879021E+03  0.65893879021E+03  0.00000000000E+00 0.  1.
         23    2    1    2    0    0  0.11266837132E+04  0.26011634838E+03  0.51899512013E+03  0.12706402606E+04  0.89966843818E+02 0.  0.
         13    1    3    3    0    0  0.59867191507E+03  0.11081665247E+03  0.23334191292E+03  0.65202518409E+03  0.00000000000E+00 0. -1.
        -13    1    3    3    0    0  0.52801179808E+03  0.14929969592E+03  0.28565320720E+03  0.61861507652E+03  0.00000000000E+00 0.  1.
         22    1    1    2    0    0 -0.11266837132E+04 -0.26011634838E+03  0.89756207563E+03  0.14637945156E+04  0.00000000000E+00 0. -1.
<mgrwt>
<rscale>  0 0.23389098E+04</rscale>
<asrwt>0</asrwt>
<pdfrwt beam="1">  1        1 0.31930707E+00 0.23389098E+04</pdfrwt>
<pdfrwt beam="2">  1       -1 0.10137520E+00 0.23389098E+04</pdfrwt>
<totfact> 0.22029617E+00</totfact>
</mgrwt>
</event>
<event>
 6    1  0.1028026E-006  0.2441023E+04  0.7818608E-02  0.8424303E-01
          2   -1    0    0  501    0  0.00000000000E+00  0.00000000000E+00  0.71879330515E+03  0.71879330515E+03  0.00000000000E+00 0. -1.
         -2   -1    0    0    0  501 -0.00000000000E+00 -0.00000000000E+00 -0.20724296949E+04  0.20724296949E+04  0.00000000000E+00 0.  1.
         23    2    1    2    0    0  0.40712347488E+03  0.16266567642E+03 -0.19780293203E+04  0.20282838296E+04  0.95528296605E+02 0.  0.
         13    1    3    3    0    0  0.22207504537E+03  0.56430271208E+02 -0.11911227507E+04  0.12129612972E+04  0.00000000000E+00 0. -1.
        -13    1    3    3    0    0  0.18504842951E+03  0.10623540521E+03 -0.78690656962E+03  0.81532253243E+03  0.00000000000E+00 0.  1.
         22    1    1    2    0    0 -0.40712347488E+03 -0.16266567642E+03  0.62439293053E+03  0.76293917044E+03  0.00000000000E+00 0. -1.
<mgrwt>
<rscale>  0 0.24410232E+04</rscale>
<asrwt>0</asrwt>
<pdfrwt beam="1">  1        2 0.11058358E+00 0.24410232E+04</pdfrwt>
<pdfrwt beam="2">  1       -2 0.31883534E+00 0.24410232E+04</pdfrwt>
<totfact> 0.86460812E-01</totfact>
</mgrwt>
</event>
<event>
 6    1  0.1028026E-006  0.3394842E+03  0.7818608E-02  0.1067016E+00
          1   -1    0    0  501    0  0.00000000000E+00  0.00000000000E+00  0.76436579744E+03  0.76436579744E+03  0.00000000000E+00 0. -1.
         -1   -1    0    0    0  501 -0.00000000000E+00 -0.00000000000E+00 -0.37694499224E+02  0.37694499224E+02  0.00000000000E+00 0.  1.
         23    2    1    2    0    0  0.43495164402E+02 -0.14953350405E+03  0.44967295252E+03  0.48428650656E+03  0.89864108781E+02 0.  0.
         13    1    3    3    0    0  0.64170423888E+02 -0.81339498381E+02  0.31959634306E+03  0.33596990906E+03  0.00000000000E+00 0. -1.
        -13    1    3    3    0    0 -0.20675259486E+02 -0.68194005669E+02  0.13007660946E+03  0.14831659750E+03  0.00000000000E+00 0.  1.
         22    1    1    2    0    0 -0.43495164402E+02  0.14953350405E+03  0.27699834570E+03  0.31777379011E+03  0.00000000000E+00 0.  1.
<mgrwt>
<rscale>  0 0.33948423E+03</rscale>
<asrwt>0</asrwt>
<pdfrwt beam="1">  1        1 0.11759473E+00 0.33948423E+03</pdfrwt>
<pdfrwt beam="2">  1       -1 0.57991543E-02 0.33948423E+03</pdfrwt>
<totfact> 0.34863468E+03</totfact>
</mgrwt>
</event>
<event>
 6    1  0.1028026E-006  0.3399382E+04  0.7818608E-02  0.8138058E-01
          2   -1    0    0  501    0  0.00000000000E+00  0.00000000000E+00  0.26558278228E+04  0.26558278228E+04  0.00000000000E+00 0. -1.
         -2   -1    0    0    0  501 -0.00000000000E+00 -0.00000000000E+00 -0.10877774218E+04  0.10877774218E+04  0.00000000000E+00 0.  1.
         23    2    1    2    0    0 -0.73365152543E+03  0.13986818110E+04  0.14725081443E+04  0.21613019576E+04  0.91599932797E+02 0.  0.
         11    1    3    3    0    0 -0.52155438060E+03  0.10267146434E+04  0.10207136384E+04  0.15388366588E+04  0.00000000000E+00 0. -1.
        -11    1    3    3    0    0 -0.21209714483E+03  0.37196716753E+03  0.45179450595E+03  0.62246529877E+03  0.00000000000E+00 0.  1.
         22    1    1    2    0    0  0.73365152543E+03 -0.13986818110E+04  0.95542256640E+02  0.15823032869E+04  0.00000000000E+00 0.  1.
<mgrwt>
<rscale>  0 0.33993820E+04</rscale>
<asrwt>0</asrwt>
<pdfrwt beam="1">  1        2 0.40858889E+00 0.33993820E+04</pdfrwt>
<pdfrwt beam="2">  1       -2 0.16735037E+00 0.33993820E+04</pdfrwt>
<totfact> 0.52019171E-01</totfact>
</mgrwt>
</event>
<event>
 6    1  0.1028026E-006  0.5562278E+04  0.7818608E-02  0.7747177E-01
         -2   -1    0    0    0  501 -0.00000000000E+00  0.00000000000E+00  0.28233103403E+04  0.28233103403E+04  0.00000000000E+00 0.  1.
          2   -1    0    0  501    0  0.00000000000E+00 -0.00000000000E+00 -0.27395979319E+04  0.27395979319E+04  0.00000000000E+00 0. -1.
         23    2    1    2    0    0 -0.19524742683E+04 -0.85247169005E+02  0.20197721969E+04  0.28119538282E+04  0.90453063640E+02 0.  0.
         11    1    3    3    0    0 -0.66482085885E+03 -0.60461857840E+02  0.64785387106E+03  0.93024569274E+03  0.00000000000E+00 0. -1.
        -11    1    3    3    0    0 -0.12876534094E+04 -0.24785311166E+02  0.13719183258E+04  0.18817081355E+04  0.00000000000E+00 0.  1.
         22    1    1    2    0    0  0.19524742683E+04  0.85247169005E+02 -0.19360597885E+04  0.27509544440E+04  0.00000000000E+00 0. -1.
<mgrwt>
<rscale>  0 0.55622784E+04</rscale>
<asrwt>0</asrwt>
<pdfrwt beam="1">  1        2 0.42147660E+00 0.55622784E+04</pdfrwt>
<pdfrwt beam="2">  1       -2 0.43435544E+00 0.55622784E+04</pdfrwt>
<totfact> 0.77361676E-03</totfact>
</mgrwt>
</event>
<event>
 6    1  0.1028026E-006  0.7412789E+03  0.7818608E-02  0.9649133E-01
          1   -1    0    0  501    0  0.00000000000E+00  0.00000000000E+00  0.10239940988E+04  0.10239940988E+04  0.00000000000E+00 0. -1.
         -1   -1    0    0    0  501 -0.00000000000E+00 -0.00000000000E+00 -0.13415469249E+03  0.13415469249E+03  0.00000000000E+00 0.  1.
         23    2    1    2    0    0  0.14791683921E+03  0.23016754749E+03  0.82907697665E+03  0.87788362384E+03  0.91948532157E+02 0.  0.
         13    1    3    3    0    0  0.13824584160E+03  0.13626858781E+03  0.56980478512E+03  0.60196223626E+03  0.00000000000E+00 0. -1.
        -13    1    3    3    0    0  0.96709976095E+01  0.93898959681E+02  0.25927219153E+03  0.27592138758E+03  0.00000000000E+00 0.  1.
         22    1    1    2    0    0 -0.14791683921E+03 -0.23016754749E+03  0.60762429700E+02  0.28026516748E+03  0.00000000000E+00 0.  1.
<mgrwt>
<rscale>  0 0.74127893E+03</rscale>
<asrwt>0</asrwt>
<pdfrwt beam="1">  1        1 0.15753755E+00 0.74127893E+03</pdfrwt>
<pdfrwt beam="2">  1       -1 0.20639184E-01 0.74127893E+03</pdfrwt>
<totfact> 0.28447027E+02</totfact>
</mgrwt>
</event>
<event>
 6    1  0.1028026E-006  0.1351578E+04  0.7818608E-02  0.8989634E-01
         -2   -1    0    0    0  501 -0.00000000000E+00  0.00000000000E+00  0.36772300019E+03  0.36772300019E+03  0.00000000000E+00 0.  1.
          2   -1    0    0  501    0  0.00000000000E+00 -0.00000000000E+00 -0.12419424017E+04  0.12419424017E+04  0.00000000000E+00 0. -1.
         23    2    1    2    0    0  0.13497749091E+02 -0.36592191453E+03 -0.11112295683E+04  0.11734832658E+04  0.90281696365E+02 0.  0.
         11    1    3    3    0    0 -0.20709994561E+02 -0.58397138233E+02 -0.11955681067E+03  0.13465868188E+03  0.00000000000E+00 0. -1.
        -11    1    3    3    0    0  0.34207743652E+02 -0.30752477630E+03 -0.99167275767E+03  0.10388245839E+04  0.00000000000E+00 0.  1.
         22    1    1    2    0    0 -0.13497749091E+02  0.36592191453E+03  0.23701016678E+03  0.43618213618E+03  0.00000000000E+00 0.  1.
<mgrwt>
<rscale>  0 0.13515780E+04</rscale>
<asrwt>0</asrwt>
<pdfrwt beam="1">  1        2 0.19106806E+00 0.13515780E+04</pdfrwt>
<pdfrwt beam="2">  1       -2 0.56572769E-01 0.13515780E+04</pdfrwt>
<totfact> 0.51191510E+01</totfact>
</mgrwt>
</event>
<event>
 6    1  0.1028026E-006  0.3580947E+04  0.7818608E-02  0.8094870E-01
         -1   -1    0    0    0  501 -0.00000000000E+00  0.00000000000E+00  0.10957120664E+04  0.10957120664E+04  0.00000000000E+00 0.  1.
          1   -1    0    0  501    0  0.00000000000E+00 -0.00000000000E+00 -0.29257643080E+04  0.29257643080E+04  0.00000000000E+00 0. -1.
         23    2    1    2    0    0  0.17190416629E+04 -0.36061334956E+03 -0.53645759150E+03  0.18400700973E+04  0.11368811988E+03 0.  0.
         11    1    3    3    0    0  0.70792836235E+03 -0.20041236886E+03 -0.19953796675E+03  0.76232741259E+03  0.00000000000E+00 0.  1.
        -11    1    3    3    0    0  0.10111133006E+04 -0.16020098069E+03 -0.33691962475E+03  0.10777426847E+04  0.00000000000E+00 0. -1.
         22    1    1    2    0    0 -0.17190416629E+04  0.36061334956E+03 -0.12935946501E+04  0.21814062770E+04  0.00000000000E+00 0.  1.
<mgrwt>
<rscale>  0 0.35809469E+04</rscale>
<asrwt>0</asrwt>
<pdfrwt beam="1">  1        1 0.45011758E+00 0.35809469E+04</pdfrwt>
<pdfrwt beam="2">  1       -1 0.16857109E+00 0.35809469E+04</pdfrwt>
<totfact> 0.13818747E-01</totfact>
</mgrwt>
</event>
<event>
 6    1  0.1028026E-006  0.4965751E+04  0.7818608E-02  0.7833812E-01
          1   -1    0    0  501    0  0.00000000000E+00  0.00000000000E+00  0.13162739364E+04  0.13162739364E+04  0.00000000000E+00 0. -1.
         -1   -1    0    0    0  501 -0.00000000000E+00 -0.00000000000E+00 -0.46834257441E+04  0.46834257441E+04  0.00000000000E+00 0.  1.
         23    2    1    2    0    0  0.15962902299E+04  0.15321272620E+04 -0.32528094389E+03  0.22382458662E+04  0.91544633668E+02 0.  0.
         11    1    3    3    0    0  0.31129638748E+03  0.32831644055E+03 -0.97084424646E+02  0.46273373716E+03  0.00000000000E+00 0. -1.
        -11    1    3    3    0    0  0.12849938425E+04  0.12038108214E+04 -0.22819651924E+03  0.17755121290E+04  0.00000000000E+00 0.  1.
         22    1    1    2    0    0 -0.15962902299E+04 -0.15321272620E+04 -0.30418708639E+04  0.37614538143E+04  0.00000000000E+00 0. -1.
<mgrwt>
<rscale>  0 0.49657512E+04</rscale>
<asrwt>0</asrwt>
<pdfrwt beam="1">  1        1 0.20250368E+00 0.49657512E+04</pdfrwt>
<pdfrwt beam="2">  1       -1 0.72052704E+00 0.49657512E+04</pdfrwt>
<totfact> 0.10829065E-03</totfact>
</mgrwt>
</event>
<event>
 6    1  0.1028026E-006  0.2376986E+04  0.7818608E-02  0.8448170E-01
          2   -1    0    0  501    0  0.00000000000E+00  0.00000000000E+00  0.94822946881E+03  0.94822946881E+03  0.00000000000E+00 0. -1.
         -2   -1    0    0    0  501 -0.00000000000E+00 -0.00000000000E+00 -0.14896351987E+04  0.14896351987E+04  0.00000000000E+00 0.  1.
         23    2    1    2    0    0  0.63222467838E+03 -0.24808987355E+03  0.72704560130E+03  0.99903687764E+03  0.90679364817E+02 0.  0.
         11    1    3    3    0    0  0.50660594148E+03 -0.21269612161E+03  0.53533846386E+03  0.76712221385E+03  0.00000000000E+00 0.  1.
        -11    1    3    3    0    0  0.12561873690E+03 -0.35393751946E+02  0.19170713744E+03  0.23191466379E+03  0.00000000000E+00 0. -1.
         22    1    1    2    0    0 -0.63222467838E+03  0.24808987355E+03 -0.12684513311E+04  0.14388277898E+04  0.00000000000E+00 0.  1.
<mgrwt>
<rscale>  0 0.23769863E+04</rscale>
<asrwt>0</asrwt>
<pdfrwt beam="1">  1        2 0.14588146E+00 0.23769863E+04</pdfrwt>
<pdfrwt beam="2">  1       -2 0.22917464E+00 0.23769863E+04</pdfrwt>
<totfact> 0.21216001E+00</totfact>
</mgrwt>
</event>
<event>
 6    1  0.1028026E-006  0.7834670E+03  0.7818608E-02  0.9584261E-01
          2   -1    0    0  501    0  0.00000000000E+00  0.00000000000E+00  0.20947117483E+03  0.20947117483E+03  0.00000000000E+00 0. -1.
         -2   -1    0    0    0  501 -0.00000000000E+00 -0.00000000000E+00 -0.73258351484E+03  0.73258351484E+03  0.00000000000E+00 0.  1.
         23    2    1    2    0    0  0.12091966096E+03  0.20589239395E+03 -0.63077946616E+03  0.68012826422E+03  0.87626928346E+02 0.  0.
         13    1    3    3    0    0 -0.32638744200E+01  0.70440579989E+02 -0.16802332533E+03  0.18222065207E+03  0.00000000000E+00 0.  1.
        -13    1    3    3    0    0  0.12418353538E+03  0.13545181397E+03 -0.46275614083E+03  0.49790761215E+03  0.00000000000E+00 0. -1.
         22    1    1    2    0    0 -0.12091966096E+03 -0.20589239395E+03  0.10766712616E+03  0.26192642545E+03  0.00000000000E+00 0. -1.
<mgrwt>
<rscale>  0 0.78346699E+03</rscale>
<asrwt>0</asrwt>
<pdfrwt beam="1">  1        2 0.32226334E-01 0.78346699E+03</pdfrwt>
<pdfrwt beam="2">  1       -2 0.11270516E+00 0.78346699E+03</pdfrwt>
<totfact> 0.10245985E+02</totfact>
</mgrwt>
</event>
<event>
 6    1  0.1028026E-006  0.3952326E+04  0.7818608E-02  0.8014233E-01
         -2   -1    0    0    0  501 -0.00000000000E+00  0.00000000000E+00  0.18521380253E+04  0.18521380253E+04  0.00000000000E+00 0.  1.
          2   -1    0    0  501    0  0.00000000000E+00 -0.00000000000E+00 -0.21084936067E+04  0.21084936067E+04  0.00000000000E+00 0. -1.
         23    2    1    2    0    0  0.97355398585E+03  0.20364143345E+03  0.15816550285E+04  0.18707607749E+04  0.94000271259E+02 0.  0.
         13    1    3    3    0    0  0.40081138186E+03  0.39892428067E+02  0.66931145349E+03  0.78116514990E+03  0.00000000000E+00 0.  1.
        -13    1    3    3    0    0  0.57274260399E+03  0.16374900538E+03  0.91234357505E+03  0.10895956250E+04  0.00000000000E+00 0. -1.
         22    1    1    2    0    0 -0.97355398585E+03 -0.20364143345E+03 -0.18380106100E+04  0.20898708570E+04  0.00000000000E+00 0. -1.
<mgrwt>
<rscale>  0 0.39523265E+04</rscale>
<asrwt>0</asrwt>
<pdfrwt beam="1">  1        2 0.32438363E+00 0.39523265E+04</pdfrwt>
<pdfrwt beam="2">  1       -2 0.28494431E+00 0.39523265E+04</pdfrwt>
<totfact> 0.18082992E-01</totfact>
</mgrwt>
</event>
<event>
 6    1  0.1028026E-006  0.2325406E+04  0.7818608E-02  0.8467971E-01
         -2   -1    0    0    0  501 -0.00000000000E+00  0.00000000000E+00  0.75034375694E+03  0.75034375694E+03  0.00000000000E+00 0.  1.
          2   -1    0    0  501    0  0.00000000000E+00 -0.00000000000E+00 -0.18016790222E+04  0.18016790222E+04  0.00000000000E+00 0. -1.
         23    2    1    2    0    0 -0.57828279319E+03 -0.87353273604E+03 -0.10755397902E+04  0.15041409686E+04  0.90464264970E+02 0.  0.
         11    1    3    3    0    0 -0.46089622047E+03 -0.73875734202E+03 -0.85581328132E+03  0.12209029892E+04  0.00000000000E+00 0. -1.
        -11    1    3    3    0    0 -0.11738657272E+03 -0.13477539402E+03 -0.21972650891E+03  0.28323797946E+03  0.00000000000E+00 0.  1.
         22    1    1    2    0    0  0.57828279319E+03  0.87353273604E+03  0.24204524968E+02  0.10478818105E+04  0.00000000000E+00 0.  1.
<mgrwt>
<rscale>  0 0.23254063E+04</rscale>
<asrwt>0</asrwt>
<pdfrwt beam="1">  1        2 0.27718138E+00 0.23254063E+04</pdfrwt>
<pdfrwt beam="2">  1       -2 0.11543750E+00 0.23254063E+04</pdfrwt>
<totfact> 0.45512331E+00</totfact>
</mgrwt>
</event>
<event>
 6    1  0.1028026E-006  0.1301746E+04  0.7818608E-02  0.9028181E-01
          2   -1    0    0  501    0  0.00000000000E+00  0.00000000000E+00  0.11549709430E+04  0.11549709430E+04  0.00000000000E+00 0. -1.
         -2   -1    0    0    0  501 -0.00000000000E+00 -0.00000000000E+00 -0.36679360353E+03  0.36679360353E+03  0.00000000000E+00 0.  1.
         23    2    1    2    0    0  0.31309800080E+02 -0.52313569300E+03 -0.48910941389E+02  0.53415731347E+03  0.90997244311E+02 0.  0.
         11    1    3    3    0    0 -0.21243073661E+02 -0.17905945060E+03  0.12363641165E+02  0.18073852564E+03  0.00000000000E+00 0.  1.
        -11    1    3    3    0    0  0.52552873741E+02 -0.34407624240E+03 -0.61274582553E+02  0.35341878782E+03  0.00000000000E+00 0. -1.
         22    1    1    2    0    0 -0.31309800080E+02  0.52313569300E+03  0.83708828088E+03  0.98760723309E+03  0.00000000000E+00 0. -1.
<mgrwt>
<rscale>  0 0.13017464E+04</rscale>
<asrwt>0</asrwt>
<pdfrwt beam="1">  1        2 0.17768784E+00 0.13017464E+04</pdfrwt>
<pdfrwt beam="2">  1       -2 0.56429786E-01 0.13017464E+04</pdfrwt>
<totfact> 0.58225351E+01</totfact>
</mgrwt>
</event>
<event>
 6    1  0.1028026E-006  0.1506408E+04  0.7818608E-02  0.8880203E-01
          2   -1    0    0  501    0  0.00000000000E+00  0.00000000000E+00  0.46513426590E+03  0.46513426590E+03  0.00000000000E+00 0. -1.
         -2   -1    0    0    0  501 -0.00000000000E+00 -0.00000000000E+00 -0.12196835182E+04  0.12196835182E+04  0.00000000000E+00 0.  1.
         23    2    1    2    0    0  0.72846414104E+03 -0.30758047744E+02 -0.17905479015E+03  0.75594753575E+03  0.88260957663E+02 0.  0.
         13    1    3    3    0    0  0.48924552565E+03  0.20942878618E+02 -0.11895212124E+03  0.50393391995E+03  0.00000000000E+00 0.  1.
        -13    1    3    3    0    0  0.23921861540E+03 -0.51700926362E+02 -0.60102668908E+02  0.25201361580E+03  0.00000000000E+00 0. -1.
         22    1    1    2    0    0 -0.72846414104E+03  0.30758047744E+02 -0.57549446211E+03  0.92887024831E+03  0.00000000000E+00 0.  1.
<mgrwt>
<rscale>  0 0.15064084E+04</rscale>
<asrwt>0</asrwt>
<pdfrwt beam="1">  1        2 0.71559117E-01 0.15064084E+04</pdfrwt>
<pdfrwt beam="2">  1       -2 0.18764362E+00 0.15064084E+04</pdfrwt>
<totfact> 0.10384210E+01</totfact>
</mgrwt>
</event>
<event>
 6    1  0.1028026E-006  0.1998282E+04  0.7818608E-02  0.8607424E-01
          2   -1    0    0  501    0  0.00000000000E+00  0.00000000000E+00  0.15515623097E+04  0.15515623097E+04  0.00000000000E+00 0. -1.
         -2   -1    0    0    0  501 -0.00000000000E+00 -0.00000000000E+00 -0.64340464338E+03  0.64340464338E+03  0.00000000000E+00 0.  1.
         23    2    1    2    0    0  0.11445683621E+02 -0.80839627320E+03  0.10959256071E+04  0.13649715689E+04  0.91972329781E+02 0.  0.
         11    1    3    3    0    0  0.51711828105E+02 -0.41773038930E+03  0.56040624819E+03  0.70087656140E+03  0.00000000000E+00 0. -1.
        -11    1    3    3    0    0 -0.40266144483E+02 -0.39066588390E+03  0.53551935891E+03  0.66409500751E+03  0.00000000000E+00 0.  1.
         22    1    1    2    0    0 -0.11445683621E+02  0.80839627320E+03 -0.18776794076E+03  0.82999538419E+03  0.00000000000E+00 0.  1.
<mgrwt>
<rscale>  0 0.19982817E+04</rscale>
<asrwt>0</asrwt>
<pdfrwt beam="1">  1        2 0.23870189E+00 0.19982817E+04</pdfrwt>
<pdfrwt beam="2">  1       -2 0.98985330E-01 0.19982817E+04</pdfrwt>
<totfact> 0.93354408E+00</totfact>
</mgrwt>
</event>
<event>
 6    1  0.1028026E-006  0.2890819E+04  0.7818608E-02  0.8275614E-01
          1   -1    0    0  501    0  0.00000000000E+00  0.00000000000E+00  0.19232593944E+04  0.19232593944E+04  0.00000000000E+00 0. -1.
         -1   -1    0    0    0  501 -0.00000000000E+00 -0.00000000000E+00 -0.10862850922E+04  0.10862850922E+04  0.00000000000E+00 0.  1.
         23    2    1    2    0    0 -0.77205929057E+03 -0.25017094301E+03 -0.82444545412E+03  0.11604969870E+04  0.91552723085E+02 0.  0.
         13    1    3    3    0    0 -0.55705688774E+03 -0.19539447122E+03 -0.54272886218E+03  0.80190148610E+03  0.00000000000E+00 0. -1.
        -13    1    3    3    0    0 -0.21500240283E+03 -0.54776471793E+02 -0.28171659194E+03  0.35859550089E+03  0.00000000000E+00 0.  1.
         22    1    1    2    0    0  0.77205929057E+03  0.25017094301E+03  0.16614197563E+04  0.18490474995E+04  0.00000000000E+00 0. -1.
<mgrwt>
<rscale>  0 0.28908186E+04</rscale>
<asrwt>0</asrwt>
<pdfrwt beam="1">  1        1 0.29588606E+00 0.28908186E+04</pdfrwt>
<pdfrwt beam="2">  1       -1 0.16712078E+00 0.28908186E+04</pdfrwt>
<totfact> 0.74581085E-01</totfact>
</mgrwt>
</event>
<event>
 6    1  0.1028026E-006  0.8823335E+03  0.7818608E-02  0.9447939E-01
          2   -1    0    0  501    0  0.00000000000E+00  0.00000000000E+00  0.12356757332E+04  0.12356757332E+04  0.00000000000E+00 0. -1.
         -2   -1    0    0    0  501 -0.00000000000E+00 -0.00000000000E+00 -0.15750740590E+03  0.15750740590E+03  0.00000000000E+00 0.  1.
         23    2    1    2    0    0  0.67934543784E+02 -0.30724103293E+02  0.12240121509E+04  0.12293860279E+04  0.87322317303E+02 0.  0.
         13    1    3    3    0    0  0.63954932797E+02 -0.56144684057E+02  0.77997373622E+03  0.78460275820E+03  0.00000000000E+00 0. -1.
        -13    1    3    3    0    0  0.39796109870E+01  0.25420580764E+02  0.44403841472E+03  0.44478326967E+03  0.00000000000E+00 0.  1.
         22    1    1    2    0    0 -0.67934543784E+02  0.30724103293E+02 -0.14584382363E+03  0.16379711125E+03  0.00000000000E+00 0.  1.
<mgrwt>
<rscale>  0 0.88233345E+03</rscale>
<asrwt>0</asrwt>
<pdfrwt beam="1">  1        2 0.19010395E+00 0.88233345E+03</pdfrwt>
<pdfrwt beam="2">  1       -2 0.24231909E-01 0.88233345E+03</pdfrwt>
<totfact> 0.27429770E+02</totfact>
</mgrwt>
</event>
<event>
 6    1  0.1028026E-006  0.1973151E+04  0.7818608E-02  0.8619277E-01
          2   -1    0    0  501    0  0.00000000000E+00  0.00000000000E+00  0.28326046087E+04  0.28326046087E+04  0.00000000000E+00 0. -1.
         -2   -1    0    0    0  501 -0.00000000000E+00 -0.00000000000E+00 -0.34361693260E+03  0.34361693260E+03  0.00000000000E+00 0.  1.
         23    2    1    2    0    0  0.76915396568E+03  0.36588125247E+03  0.20416673378E+04  0.22141600054E+04  0.92909081121E+02 0.  0.
         11    1    3    3    0    0  0.30042048365E+03  0.18596950195E+03  0.90614364471E+03  0.97259108956E+03  0.00000000000E+00 0. -1.
        -11    1    3    3    0    0  0.46873348203E+03  0.17991175053E+03  0.11355236931E+04  0.12415689158E+04  0.00000000000E+00 0.  1.
         22    1    1    2    0    0 -0.76915396568E+03 -0.36588125247E+03  0.44732033832E+03  0.96206153593E+03  0.00000000000E+00 0.  1.
<mgrwt>
<rscale>  0 0.19731507E+04</rscale>
<asrwt>0</asrwt>
<pdfrwt beam="1">  1        2 0.43578531E+00 0.19731507E+04</pdfrwt>
<pdfrwt beam="2">  1       -2 0.52864145E-01 0.19731507E+04</pdfrwt>
<totfact> 0.69551523E+00</totfact>
</mgrwt>
</event>
<event>
 6    1  0.1028026E-006  0.2725020E+04  0.7818608E-02  0.8326932E-01
         -2   -1    0    0    0  501 -0.00000000000E+00  0.00000000000E+00  0.69610221652E+03  0.69610221652E+03  0.00000000000E+00 0.  1.
          2   -1    0    0  501    0  0.00000000000E+00 -0.00000000000E+00 -0.26668968736E+04  0.26668968736E+04  0.00000000000E+00 0. -1.
         23    2    1    2    0    0 -0.39456749895E+03  0.12860617657E+04 -0.73157587029E+03  0.15339825298E+04  0.90888786154E+02 0.  0.
         11    1    3    3    0    0 -0.26833438218E+03  0.83822650265E+03 -0.52576500504E+03  0.10252101496E+04  0.00000000000E+00 0. -1.
        -11    1    3    3    0    0 -0.12623311677E+03  0.44783526302E+03 -0.20581086524E+03  0.50877238017E+03  0.00000000000E+00 0.  1.
         22    1    1    2    0    0  0.39456749895E+03 -0.12860617657E+04 -0.12392187868E+04  0.18290165603E+04  0.00000000000E+00 0. -1.
<mgrwt>
<rscale>  0 0.27250195E+04</rscale>
<asrwt>0</asrwt>
<pdfrwt beam="1">  1        2 0.41029183E+00 0.27250195E+04</pdfrwt>
<pdfrwt beam="2">  1       -2 0.10709265E+00 0.27250195E+04</pdfrwt>
<totfact> 0.17047699E+00</totfact>
</mgrwt>
</event>
<event>
 6    1  0.1028026E-006  0.2957285E+04  0.7818608E-02  0.8256035E-01
         -2   -1    0    0    0  501 -0.00000000000E+00  0.00000000000E+00  0.76600264776E+03  0.76600264776E+03  0.00000000000E+00 0.  1.
          2   -1    0    0  501    0  0.00000000000E+00 -0.00000000000E+00 -0.28542767888E+04  0.28542767888E+04  0.00000000000E+00 0. -1.
         23    2    1    2    0    0  0.13721599024E+04 -0.53750737261E+03 -0.92005416601E+03  0.17397276868E+04  0.91737574781E+02 0.  0.
         13    1    3    3    0    0  0.40017180596E+03 -0.16588180292E+03 -0.22290001406E+03  0.48717416094E+03  0.00000000000E+00 0.  1.
        -13    1    3    3    0    0  0.97198809644E+03 -0.37162556969E+03 -0.69715415195E+03  0.12525535259E+04  0.00000000000E+00 0. -1.
         22    1    1    2    0    0 -0.13721599024E+04  0.53750737261E+03 -0.11682199751E+04  0.18805517498E+04  0.00000000000E+00 0. -1.
<mgrwt>
<rscale>  0 0.29572850E+04</rscale>
<asrwt>0</asrwt>
<pdfrwt beam="1">  1        2 0.43911952E+00 0.29572850E+04</pdfrwt>
<pdfrwt beam="2">  1       -2 0.11784656E+00 0.29572850E+04</pdfrwt>
<totfact> 0.10219394E+00</totfact>
</mgrwt>
</event>
<event>
 6    1  0.1028026E-006  0.1853195E+04  0.7818608E-02  0.8678512E-01
         -1   -1    0    0    0  501 -0.00000000000E+00  0.00000000000E+00  0.90520598213E+03  0.90520598213E+03  0.00000000000E+00 0.  1.
          1   -1    0    0  501    0  0.00000000000E+00 -0.00000000000E+00 -0.94849448362E+03  0.94849448362E+03  0.00000000000E+00 0. -1.
         23    2    1    2    0    0  0.24427922270E+03  0.25071369318E+03  0.83405461802E+03  0.90910497352E+03  0.91077178476E+02 0.  0.
         11    1    3    3    0    0  0.11422623217E+03  0.81085971636E+02  0.24160912883E+03  0.27928039324E+03  0.00000000000E+00 0. -1.
        -11    1    3    3    0    0  0.13005299053E+03  0.16962772155E+03  0.59244548919E+03  0.62982458028E+03  0.00000000000E+00 0.  1.
         22    1    1    2    0    0 -0.24427922270E+03 -0.25071369318E+03 -0.87734311951E+03  0.94459549224E+03  0.00000000000E+00 0. -1.
<mgrwt>
<rscale>  0 0.18531949E+04</rscale>
<asrwt>0</asrwt>
<pdfrwt beam="1">  1        1 0.14592223E+00 0.18531949E+04</pdfrwt>
<pdfrwt beam="2">  1       -1 0.13926246E+00 0.18531949E+04</pdfrwt>
<totfact> 0.66360837E+00</totfact>
</mgrwt>
</event>
<event>
 6    1  0.1028026E-006  0.2769946E+04  0.7818608E-02  0.8312660E-01
         -2   -1    0    0    0  501 -0.00000000000E+00  0.00000000000E+00  0.16760351258E+04  0.16760351258E+04  0.00000000000E+00 0.  1.
          2   -1    0    0  501    0  0.00000000000E+00 -0.00000000000E+00 -0.11444567206E+04  0.11444567206E+04  0.00000000000E+00 0. -1.
         23    2    1    2    0    0  0.26206638270E+03 -0.88743632068E+03  0.13132840111E+04  0.16091761706E+04  0.92255307854E+02 0.  0.
         13    1    3    3    0    0  0.11065547015E+03 -0.52888946142E+03  0.74113561042E+03  0.91719719173E+03  0.00000000000E+00 0.  1.
        -13    1    3    3    0    0  0.15141091255E+03 -0.35854685926E+03  0.57214840070E+03  0.69197897883E+03  0.00000000000E+00 0. -1.
         22    1    1    2    0    0 -0.26206638270E+03  0.88743632068E+03 -0.78170560586E+03  0.12113156758E+04  0.00000000000E+00 0. -1.
<mgrwt>
<rscale>  0 0.27699456E+04</rscale>
<asrwt>0</asrwt>
<pdfrwt beam="1">  1        2 0.17607026E+00 0.27699456E+04</pdfrwt>
<pdfrwt beam="2">  1       -2 0.25785156E+00 0.27699456E+04</pdfrwt>
<totfact> 0.10263724E+00</totfact>
</mgrwt>
</event>
<event>
 6    1  0.1028026E-006  0.2206229E+04  0.7818608E-02  0.8515840E-01
          2   -1    0    0  501    0  0.00000000000E+00  0.00000000000E+00  0.78995535281E+03  0.78995535281E+03  0.00000000000E+00 0. -1.
         -2   -1    0    0    0  501 -0.00000000000E+00 -0.00000000000E+00 -0.15404184353E+04  0.15404184353E+04  0.00000000000E+00 0.  1.
         23    2    1    2    0    0  0.66708309274E+03 -0.86551961566E+03 -0.51988377736E+03  0.12135520147E+04  0.91133378221E+02 0.  0.
         11    1    3    3    0    0  0.23617239774E+03 -0.37692822861E+03 -0.22451066648E+03  0.49825428281E+03  0.00000000000E+00 0. -1.
        -11    1    3    3    0    0  0.43091069499E+03 -0.48859138704E+03 -0.29537311088E+03  0.71529773185E+03  0.00000000000E+00 0.  1.
         22    1    1    2    0    0 -0.66708309274E+03  0.86551961566E+03 -0.23057930514E+03  0.11168217735E+04  0.00000000000E+00 0. -1.
<mgrwt>
<rscale>  0 0.22062292E+04</rscale>
<asrwt>0</asrwt>
<pdfrwt beam="1">  1        2 0.12153159E+00 0.22062292E+04</pdfrwt>
<pdfrwt beam="2">  1       -2 0.23698745E+00 0.22062292E+04</pdfrwt>
<totfact> 0.24741112E+00</totfact>
</mgrwt>
</event>
<event>
 6    1  0.1028026E-006  0.2583741E+04  0.7818608E-02  0.8373745E-01
          2   -1    0    0  501    0  0.00000000000E+00  0.00000000000E+00  0.25618748383E+04  0.25618748383E+04  0.00000000000E+00 0. -1.
         -2   -1    0    0    0  501 -0.00000000000E+00 -0.00000000000E+00 -0.65144854012E+03  0.65144854012E+03  0.00000000000E+00 0.  1.
         23    2    1    2    0    0 -0.38733498443E+03  0.81144337523E+03 -0.19487112431E+03  0.92405581466E+03  0.86230227557E+02 0.  0.
         11    1    3    3    0    0 -0.26648076799E+03  0.46097256102E+03 -0.10822276613E+03  0.54334139252E+03  0.00000000000E+00 0. -1.
        -11    1    3    3    0    0 -0.12085421644E+03  0.35047081422E+03 -0.86648358177E+02  0.38071442214E+03  0.00000000000E+00 0.  1.
         22    1    1    2    0    0  0.38733498443E+03 -0.81144337523E+03  0.21052974225E+04  0.22892675637E+04  0.00000000000E+00 0. -1.
<mgrwt>
<rscale>  0 0.25837412E+04</rscale>
<asrwt>0</asrwt>
<pdfrwt beam="1">  1        2 0.39413459E+00 0.25837412E+04</pdfrwt>
<pdfrwt beam="2">  1       -2 0.10022285E+00 0.25837412E+04</pdfrwt>
<totfact> 0.23312615E+00</totfact>
</mgrwt>
</event>
<event>
 6    1  0.1028026E-006  0.1272027E+04  0.7818608E-02  0.9052047E-01
          1   -1    0    0  501    0  0.00000000000E+00  0.00000000000E+00  0.33363835802E+03  0.33363835802E+03  0.00000000000E+00 0. -1.
         -1   -1    0    0    0  501 -0.00000000000E+00 -0.00000000000E+00 -0.12124307648E+04  0.12124307648E+04  0.00000000000E+00 0.  1.
         23    2    1    2    0    0  0.24144196809E+03  0.16403841647E+03  0.24073955476E+03  0.38910990187E+03  0.90819361768E+02 0.  0.
         13    1    3    3    0    0  0.20563840395E+02 -0.64296666770E+00  0.49852074973E+02  0.53930643581E+02  0.00000000000E+00 0.  1.
        -13    1    3    3    0    0  0.22087812769E+03  0.16468138314E+03  0.19088747979E+03  0.33517925829E+03  0.00000000000E+00 0. -1.
         22    1    1    2    0    0 -0.24144196809E+03 -0.16403841647E+03 -0.11195319615E+04  0.11569592209E+04  0.00000000000E+00 0.  1.
<mgrwt>
<rscale>  0 0.12720274E+04</rscale>
<asrwt>0</asrwt>
<pdfrwt beam="1">  1        1 0.51328979E-01 0.12720274E+04</pdfrwt>
<pdfrwt beam="2">  1       -1 0.18652781E+00 0.12720274E+04</pdfrwt>
<totfact> 0.14039468E+01</totfact>
</mgrwt>
</event>
<event>
 6    1  0.1028026E-006  0.3093256E+04  0.7818608E-02  0.8217591E-01
         -2   -1    0    0    0  501 -0.00000000000E+00  0.00000000000E+00  0.13345175962E+04  0.13345175962E+04  0.00000000000E+00 0.  1.
          2   -1    0    0  501    0  0.00000000000E+00 -0.00000000000E+00 -0.17924510361E+04  0.17924510361E+04  0.00000000000E+00 0. -1.
         23    2    1    2    0    0 -0.14918586026E+04 -0.40076624243E+03 -0.27279615233E+03  0.15711628969E+04  0.88766190567E+02 0.  0.
         13    1    3    3    0    0 -0.92753625434E+03 -0.28876438933E+03 -0.19105124917E+03  0.99005502648E+03  0.00000000000E+00 0.  1.
        -13    1    3    3    0    0 -0.56432234827E+03 -0.11200185310E+03 -0.81744903161E+02  0.58110787041E+03  0.00000000000E+00 0. -1.
         22    1    1    2    0    0  0.14918586026E+04  0.40076624243E+03 -0.18513728753E+03  0.15558057355E+04  0.00000000000E+00 0. -1.
<mgrwt>
<rscale>  0 0.30932555E+04</rscale>
<asrwt>0</asrwt>
<pdfrwt beam="1">  1        2 0.27576170E+00 0.30932555E+04</pdfrwt>
<pdfrwt beam="2">  1       -2 0.20531040E+00 0.30932555E+04</pdfrwt>
<totfact> 0.90886769E-01</totfact>
</mgrwt>
</event>
<event>
 6    1  0.1028026E-006  0.2997223E+04  0.7818608E-02  0.8244524E-01
         -1   -1    0    0    0  501 -0.00000000000E+00  0.00000000000E+00  0.12529936951E+04  0.12529936951E+04  0.00000000000E+00 0.  1.
          1   -1    0    0  501    0  0.00000000000E+00 -0.00000000000E+00 -0.17923760782E+04  0.17923760782E+04  0.00000000000E+00 0. -1.
         23    2    1    2    0    0  0.47179211367E+03 -0.65246163514E+03 -0.15524438294E+04  0.17513112438E+04  0.93355478303E+02 0.  0.
         11    1    3    3    0    0  0.39517813706E+03 -0.48394178812E+03 -0.12264056410E+04  0.13763851970E+04  0.00000000000E+00 0. -1.
        -11    1    3    3    0    0  0.76613976609E+02 -0.16851984702E+03 -0.32603818843E+03  0.37492604680E+03  0.00000000000E+00 0.  1.
         22    1    1    2    0    0 -0.47179211367E+03  0.65246163514E+03  0.10130614463E+04  0.12940585295E+04  0.00000000000E+00 0.  1.
<mgrwt>
<rscale>  0 0.29972227E+04</rscale>
<asrwt>0</asrwt>
<pdfrwt beam="1">  1        1 0.27575016E+00 0.29972227E+04</pdfrwt>
<pdfrwt beam="2">  1       -1 0.19276826E+00 0.29972227E+04</pdfrwt>
<totfact> 0.59308831E-01</totfact>
</mgrwt>
</event>
<event>
 6    1  0.1028026E-006  0.3788647E+04  0.7818608E-02  0.8048596E-01
         -2   -1    0    0    0  501 -0.00000000000E+00  0.00000000000E+00  0.17578045023E+04  0.17578045023E+04  0.00000000000E+00 0.  1.
          2   -1    0    0  501    0  0.00000000000E+00 -0.00000000000E+00 -0.20414446874E+04  0.20414446874E+04  0.00000000000E+00 0. -1.
         23    2    1    2    0    0 -0.42880695721E+03 -0.48716213923E+03 -0.19254140974E+04  0.20338529352E+04  0.90199552055E+02 0.  0.
         11    1    3    3    0    0 -0.13495088448E+03 -0.14311224017E+03 -0.71758829545E+03  0.74406035795E+03  0.00000000000E+00 0. -1.
        -11    1    3    3    0    0 -0.29385607273E+03 -0.34404989906E+03 -0.12078258019E+04  0.12897925773E+04  0.00000000000E+00 0.  1.
         22    1    1    2    0    0  0.42880695721E+03  0.48716213923E+03  0.16417739123E+04  0.17653962545E+04  0.00000000000E+00 0.  1.
<mgrwt>
<rscale>  0 0.37886465E+04</rscale>
<asrwt>0</asrwt>
<pdfrwt beam="1">  1        2 0.31406841E+00 0.37886465E+04</pdfrwt>
<pdfrwt beam="2">  1       -2 0.27043146E+00 0.37886465E+04</pdfrwt>
<totfact> 0.24495303E-01</totfact>
</mgrwt>
</event>
<event>
 6    1  0.1028026E-006  0.2587731E+04  0.7818608E-02  0.8372381E-01
          1   -1    0    0  501    0  0.00000000000E+00  0.00000000000E+00  0.31593666079E+04  0.31593666079E+04  0.00000000000E+00 0. -1.
         -1   -1    0    0    0  501 -0.00000000000E+00 -0.00000000000E+00 -0.52988078125E+03  0.52988078125E+03  0.00000000000E+00 0.  1.
         23    2    1    2    0    0 -0.93377578095E+03 -0.52793210687E+03  0.28884168088E+03  0.11145115705E+04  0.89760824876E+02 0.  0.
         13    1    3    3    0    0 -0.59420111423E+03 -0.37972195532E+03  0.20910510356E+03  0.73551932118E+03  0.00000000000E+00 0. -1.
        -13    1    3    3    0    0 -0.33957466673E+03 -0.14821015155E+03  0.79736577326E+02  0.37899224935E+03  0.00000000000E+00 0.  1.
         22    1    1    2    0    0  0.93377578095E+03  0.52793210687E+03  0.23406441457E+04  0.25747358186E+04  0.00000000000E+00 0.  1.
<mgrwt>
<rscale>  0 0.25877308E+04</rscale>
<asrwt>0</asrwt>
<pdfrwt beam="1">  1        1 0.48605639E+00 0.25877308E+04</pdfrwt>
<pdfrwt beam="2">  1       -1 0.81520122E-01 0.25877308E+04</pdfrwt>
<totfact> 0.60224449E-01</totfact>
</mgrwt>
</event>
<event>
 6    1  0.1028026E-006  0.2338971E+04  0.7818608E-02  0.8462712E-01
         -2   -1    0    0    0  501 -0.00000000000E+00  0.00000000000E+00  0.63003921510E+03  0.63003921510E+03  0.00000000000E+00 0.  1.
          2   -1    0    0  501    0  0.00000000000E+00 -0.00000000000E+00 -0.21708106806E+04  0.21708106806E+04  0.00000000000E+00 0. -1.
         23    2    1    2    0    0  0.96724392196E+02  0.10532020257E+04 -0.17675391533E+03  0.10748330962E+04  0.73716505390E+02 0.  0.
         13    1    3    3    0    0  0.66014692680E+02  0.85440982404E+03 -0.11641255930E+03  0.86482713361E+03  0.00000000000E+00 0.  1.
        -13    1    3    3    0    0  0.30709699516E+02  0.19879220165E+03 -0.60341356027E+02  0.21000596260E+03  0.00000000000E+00 0. -1.
         22    1    1    2    0    0 -0.96724392196E+02 -0.10532020257E+04 -0.13640175502E+04  0.17260167995E+04  0.00000000000E+00 0. -1.
<mgrwt>
<rscale>  0 0.23389706E+04</rscale>
<asrwt>0</asrwt>
<pdfrwt beam="1">  1        2 0.33397088E+00 0.23389706E+04</pdfrwt>
<pdfrwt beam="2">  1       -2 0.96929110E-01 0.23389706E+04</pdfrwt>
<totfact> 0.43084527E+00</totfact>
</mgrwt>
</event>
<event>
 6    1  0.1028026E-006  0.1103225E+04  0.7818608E-02  0.9202054E-01
         -1   -1    0    0    0  501 -0.00000000000E+00  0.00000000000E+00  0.75245755403E+03  0.75245755403E+03  0.00000000000E+00 0.  1.
          1   -1    0    0  501    0  0.00000000000E+00 -0.00000000000E+00 -0.40437690189E+03  0.40437690189E+03  0.00000000000E+00 0. -1.
         23    2    1    2    0    0  0.19858820327E+03 -0.51043496690E+03  0.17721514859E+03  0.58309570856E+03  0.92813073105E+02 0.  0.
         13    1    3    3    0    0  0.94949138776E+02 -0.33360747983E+03  0.14355302762E+03  0.37538881349E+03  0.00000000000E+00 0. -1.
        -13    1    3    3    0    0  0.10363906449E+03 -0.17682748708E+03  0.33662120969E+02  0.20770689508E+03  0.00000000000E+00 0.  1.
         22    1    1    2    0    0 -0.19858820327E+03  0.51043496690E+03  0.17086550354E+03  0.57373874735E+03  0.00000000000E+00 0.  1.
<mgrwt>
<rscale>  0 0.11032252E+04</rscale>
<asrwt>0</asrwt>
<pdfrwt beam="1">  1        1 0.62211831E-01 0.11032252E+04</pdfrwt>
<pdfrwt beam="2">  1       -1 0.11576270E+00 0.11032252E+04</pdfrwt>
<totfact> 0.39815447E+01</totfact>
</mgrwt>
</event>
<event>
 6    1  0.1028026E-006  0.7262033E+03  0.7818608E-02  0.9673441E-01
          1   -1    0    0  501    0  0.00000000000E+00  0.00000000000E+00  0.42843106674E+03  0.42843106674E+03  0.00000000000E+00 0. -1.
         -1   -1    0    0    0  501 -0.00000000000E+00 -0.00000000000E+00 -0.30773399676E+03  0.30773399676E+03  0.00000000000E+00 0.  1.
         23    2    1    2    0    0 -0.39669282042E+02 -0.18915953089E+03 -0.24382606740E+03  0.32357313708E+03  0.88845055177E+02 0.  0.
         11    1    3    3    0    0 -0.13546553135E+02 -0.60503913423E+02 -0.14971091913E+03  0.16204194503E+03  0.00000000000E+00 0.  1.
        -11    1    3    3    0    0 -0.26122728906E+02 -0.12865561747E+03 -0.94115148274E+02  0.16153119205E+03  0.00000000000E+00 0. -1.
         22    1    1    2    0    0  0.39669282042E+02  0.18915953089E+03  0.36452313738E+03  0.41259192642E+03  0.00000000000E+00 0. -1.
<mgrwt>
<rscale>  0 0.72620329E+03</rscale>
<asrwt>0</asrwt>
<pdfrwt beam="1">  1        1 0.65912472E-01 0.72620329E+03</pdfrwt>
<pdfrwt beam="2">  1       -1 0.47343692E-01 0.72620329E+03</pdfrwt>
<totfact> 0.24679771E+02</totfact>
</mgrwt>
</event>
<event>
 6    1  0.1028026E-006  0.4219106E+04  0.7818608E-02  0.7961748E-01
         -2   -1    0    0    0  501 -0.00000000000E+00  0.00000000000E+00  0.15665256464E+04  0.15665256464E+04  0.00000000000E+00 0.  1.
          2   -1    0    0  501    0  0.00000000000E+00 -0.00000000000E+00 -0.28408182185E+04  0.28408182185E+04  0.00000000000E+00 0. -1.
         23    2    1    2    0    0  0.93440200074E+03 -0.18680260836E+04 -0.33541098891E+03  0.21173379315E+04  0.89391480468E+02 0.  0.
         11    1    3    3    0    0  0.31831687896E+03 -0.64768223767E+03 -0.15873214012E+03  0.73892747190E+03  0.00000000000E+00 0.  1.
        -11    1    3    3    0    0  0.61608512178E+03 -0.12203438459E+04 -0.17667884878E+03  0.13784104596E+04  0.00000000000E+00 0. -1.
         22    1    1    2    0    0 -0.93440200074E+03  0.18680260836E+04 -0.93888158317E+03  0.22900059334E+04  0.00000000000E+00 0.  1.
<mgrwt>
<rscale>  0 0.42191063E+04</rscale>
<asrwt>0</asrwt>
<pdfrwt beam="1">  1        2 0.43704895E+00 0.42191063E+04</pdfrwt>
<pdfrwt beam="2">  1       -2 0.24100395E+00 0.42191063E+04</pdfrwt>
<totfact> 0.12357436E-01</totfact>
</mgrwt>
</event>
<event>
 6    1  0.1028026E-006  0.3991790E+04  0.7818608E-02  0.8006205E-01
          2   -1    0    0  501    0  0.00000000000E+00  0.00000000000E+00  0.35985040627E+04  0.35985040627E+04  0.00000000000E+00 0. -1.
         -2   -1    0    0    0  501 -0.00000000000E+00 -0.00000000000E+00 -0.11070145707E+04  0.11070145707E+04  0.00000000000E+00 0.  1.
         23    2    1    2    0    0 -0.18603268616E+04 -0.58307428288E+03  0.74831626032E+03  0.20902854571E+04  0.92327759374E+02 0.  0.
         13    1    3    3    0    0 -0.14767941531E+04 -0.50011017525E+03  0.60877913191E+03  0.16738109778E+04  0.00000000000E+00 0. -1.
        -13    1    3    3    0    0 -0.38353270855E+03 -0.82964107625E+02  0.13953712841E+03  0.41647447927E+03  0.00000000000E+00 0.  1.
         22    1    1    2    0    0  0.18603268616E+04  0.58307428288E+03  0.17431732317E+04  0.26152331764E+04  0.00000000000E+00 0. -1.
<mgrwt>
<rscale>  0 0.39917898E+04</rscale>
<asrwt>0</asrwt>
<pdfrwt beam="1">  1        2 0.55361601E+00 0.39917898E+04</pdfrwt>
<pdfrwt beam="2">  1       -2 0.17030994E+00 0.39917898E+04</pdfrwt>
<totfact> 0.11560924E-01</totfact>
</mgrwt>
</event>
<event>
 6    1  0.1028026E-006  0.1273798E+04  0.7818608E-02  0.9050606E-01
         -2   -1    0    0    0  501 -0.00000000000E+00  0.00000000000E+00  0.13375195552E+04  0.13375195552E+04  0.00000000000E+00 0.  1.
          2   -1    0    0  501    0  0.00000000000E+00 -0.00000000000E+00 -0.30327797751E+03  0.30327797751E+03  0.00000000000E+00 0. -1.
         23    2    1    2    0    0  0.35973115108E+03  0.65806790989E+02 -0.14679304088E+03  0.40444005808E+03  0.91030373646E+02 0.  0.
         11    1    3    3    0    0  0.23444372740E+03  0.29262436083E+02 -0.48831474475E+02  0.24125642868E+03  0.00000000000E+00 0. -1.
        -11    1    3    3    0    0  0.12528742369E+03  0.36544354905E+02 -0.97961566408E+02  0.16318362940E+03  0.00000000000E+00 0.  1.
         22    1    1    2    0    0 -0.35973115108E+03 -0.65806790989E+02  0.11810346186E+04  0.12363574746E+04  0.00000000000E+00 0.  1.
<mgrwt>
<rscale>  0 0.12737978E+04</rscale>
<asrwt>0</asrwt>
<pdfrwt beam="1">  1        2 0.46658151E-01 0.12737978E+04</pdfrwt>
<pdfrwt beam="2">  1       -2 0.20577224E+00 0.12737978E+04</pdfrwt>
<totfact> 0.12980127E+01</totfact>
</mgrwt>
</event>
<event>
 6    1  0.1028026E-006  0.3674432E+04  0.7818608E-02  0.8073652E-01
         -2   -1    0    0    0  501 -0.00000000000E+00  0.00000000000E+00  0.11971171854E+04  0.11971171854E+04  0.00000000000E+00 0.  1.
          2   -1    0    0  501    0  0.00000000000E+00 -0.00000000000E+00 -0.28195759732E+04  0.28195759732E+04  0.00000000000E+00 0. -1.
         23    2    1    2    0    0 -0.65966833894E+03  0.17105746480E+04 -0.69595888140E+03  0.19625193538E+04  0.76782195607E+02 0.  0.
         11    1    3    3    0    0 -0.23043180244E+03  0.53090518930E+03 -0.24800664533E+03  0.62965580417E+03  0.00000000000E+00 0. -1.
        -11    1    3    3    0    0 -0.42923653650E+03  0.11796694587E+04 -0.44795223607E+03  0.13328635496E+04  0.00000000000E+00 0.  1.
         22    1    1    2    0    0  0.65966833894E+03 -0.17105746480E+04 -0.92649990633E+03  0.20541738048E+04  0.00000000000E+00 0. -1.
<mgrwt>
<rscale>  0 0.36744321E+04</rscale>
<asrwt>0</asrwt>
<pdfrwt beam="1">  1        2 0.43378091E+00 0.36744321E+04</pdfrwt>
<pdfrwt beam="2">  1       -2 0.18417188E+00 0.36744321E+04</pdfrwt>
<totfact> 0.30927764E-01</totfact>
</mgrwt>
</event>
<event>
 6    1  0.1075473E-006  0.3505890E+04  0.7818608E-02  0.8112395E-01
          2   -1    0    0  501    0  0.00000000000E+00  0.00000000000E+00  0.16188026204E+04  0.16188026204E+04  0.00000000000E+00 0. -1.
         -2   -1    0    0    0  501 -0.00000000000E+00 -0.00000000000E+00 -0.18982032784E+04  0.18982032784E+04  0.00000000000E+00 0.  1.
         23    2    1    2    0    0 -0.14997810376E+04 -0.69511514922E+03  0.44137502858E+03  0.17136629415E+04  0.96439255380E+02 0.  0.
         11    1    3    3    0    0 -0.71629574594E+03 -0.38303727038E+03  0.23039408334E+03  0.84432137234E+03  0.00000000000E+00 0. -1.
        -11    1    3    3    0    0 -0.78348529161E+03 -0.31207787884E+03  0.21098094524E+03  0.86934156917E+03  0.00000000000E+00 0.  1.
         22    1    1    2    0    0  0.14997810376E+04  0.69511514922E+03 -0.72077568653E+03  0.18033429573E+04  0.00000000000E+00 0. -1.
<mgrwt>
<rscale>  0 0.35058902E+04</rscale>
<asrwt>0</asrwt>
<pdfrwt beam="1">  1        2 0.24904656E+00 0.35058902E+04</pdfrwt>
<pdfrwt beam="2">  1       -2 0.29203127E+00 0.35058902E+04</pdfrwt>
<totfact> 0.31787758E-01</totfact>
</mgrwt>
</event>
<event>
 6    1  0.1028026E-006  0.1939024E+04  0.7818608E-02  0.8635672E-01
          1   -1    0    0  501    0  0.00000000000E+00  0.00000000000E+00  0.35273213166E+03  0.35273213166E+03  0.00000000000E+00 0. -1.
         -1   -1    0    0    0  501 -0.00000000000E+00 -0.00000000000E+00 -0.26647803675E+04  0.26647803675E+04  0.00000000000E+00 0.  1.
         23    2    1    2    0    0 -0.58154320741E+03 -0.38131782021E+03 -0.11303204746E+03  0.71115867139E+03  0.96822673159E+02 0.  0.
         13    1    3    3    0    0 -0.48428615505E+03 -0.35696277757E+03 -0.90475158480E+02  0.60839235600E+03  0.00000000000E+00 0.  1.
        -13    1    3    3    0    0 -0.97257052366E+02 -0.24355042637E+02 -0.22556888978E+02  0.10276631538E+03  0.00000000000E+00 0. -1.
         22    1    1    2    0    0  0.58154320741E+03  0.38131782021E+03 -0.21990161884E+04  0.23063538278E+04  0.00000000000E+00 0.  1.
<mgrwt>
<rscale>  0 0.19390241E+04</rscale>
<asrwt>0</asrwt>
<pdfrwt beam="1">  1        1 0.54266481E-01 0.19390241E+04</pdfrwt>
<pdfrwt beam="2">  1       -1 0.40996622E+00 0.19390241E+04</pdfrwt>
<totfact> 0.40492121E-01</totfact>
</mgrwt>
</event>
<event>
 6    1  0.1028026E-006  0.2934917E+04  0.7818608E-02  0.8262564E-01
          1   -1    0    0  501    0  0.00000000000E+00  0.00000000000E+00  0.16352256145E+04  0.16352256145E+04  0.00000000000E+00 0. -1.
         -1   -1    0    0    0  501 -0.00000000000E+00 -0.00000000000E+00 -0.13169031792E+04  0.13169031792E+04  0.00000000000E+00 0.  1.
         23    2    1    2    0    0  0.29944898460E+03  0.96953135212E+03 -0.90501963333E+03  0.13627180368E+04  0.90989965861E+02 0.  0.
         13    1    3    3    0    0  0.10478321793E+03  0.36560305352E+03 -0.28203571970E+03  0.47348628564E+03  0.00000000000E+00 0.  1.
        -13    1    3    3    0    0  0.19466576667E+03  0.60392829860E+03 -0.62298391364E+03  0.88923175113E+03  0.00000000000E+00 0. -1.
         22    1    1    2    0    0 -0.29944898460E+03 -0.96953135212E+03  0.12233420686E+04  0.15894107568E+04  0.00000000000E+00 0. -1.
<mgrwt>
<rscale>  0 0.29349166E+04</rscale>
<asrwt>0</asrwt>
<pdfrwt beam="1">  1        1 0.25157317E+00 0.29349166E+04</pdfrwt>
<pdfrwt beam="2">  1       -1 0.20260049E+00 0.29349166E+04</pdfrwt>
<totfact> 0.65237599E-01</totfact>
</mgrwt>
</event>
<event>
 6    1  0.1028026E-006  0.2532039E+04  0.7818608E-02  0.8391660E-01
          1   -1    0    0  501    0  0.00000000000E+00  0.00000000000E+00  0.26108656121E+04  0.26108656121E+04  0.00000000000E+00 0. -1.
         -1   -1    0    0    0  501 -0.00000000000E+00 -0.00000000000E+00 -0.61389792471E+03  0.61389792471E+03  0.00000000000E+00 0.  1.
         23    2    1    2    0    0 -0.36451763942E+03 -0.62531357260E+03 -0.32040779296E+03  0.79698280321E+03  0.92899199727E+02 0.  0.
         13    1    3    3    0    0 -0.29132519210E+03 -0.42836412597E+03 -0.25148860403E+03  0.57585823770E+03  0.00000000000E+00 0. -1.
        -13    1    3    3    0    0 -0.73192447317E+02 -0.19694944663E+03 -0.68919188927E+02  0.22112456551E+03  0.00000000000E+00 0.  1.
         22    1    1    2    0    0  0.36451763942E+03  0.62531357260E+03  0.23173754803E+04  0.24277807336E+04  0.00000000000E+00 0. -1.
<mgrwt>
<rscale>  0 0.25320387E+04</rscale>
<asrwt>0</asrwt>
<pdfrwt beam="1">  1        1 0.40167163E+00 0.25320387E+04</pdfrwt>
<pdfrwt beam="2">  1       -1 0.94445836E-01 0.25320387E+04</pdfrwt>
<totfact> 0.10894360E+00</totfact>
</mgrwt>
</event>
<event>
 6    1  0.1028026E-006  0.8284492E+03  0.7818608E-02  0.9519727E-01
          2   -1    0    0  501    0  0.00000000000E+00  0.00000000000E+00  0.53301648658E+03  0.53301648658E+03  0.00000000000E+00 0. -1.
         -2   -1    0    0    0  501 -0.00000000000E+00 -0.00000000000E+00 -0.32190756081E+03  0.32190756081E+03  0.00000000000E+00 0.  1.
         23    2    1    2    0    0 -0.30194753506E+03  0.79977106828E+02 -0.16594119657E+03  0.36529618227E+03  0.91302620519E+02 0.  0.
         13    1    3    3    0    0 -0.15169422221E+02  0.18166050017E+02 -0.39057970918E+02  0.45668827837E+02  0.00000000000E+00 0.  1.
        -13    1    3    3    0    0 -0.28677811284E+03  0.61811056811E+02 -0.12688322565E+03  0.31962735443E+03  0.00000000000E+00 0. -1.
         22    1    1    2    0    0  0.30194753506E+03 -0.79977106828E+02  0.37705012234E+03  0.48962786512E+03  0.00000000000E+00 0. -1.
<mgrwt>
<rscale>  0 0.82844924E+03</rscale>
<asrwt>0</asrwt>
<pdfrwt beam="1">  1        2 0.82002536E-01 0.82844924E+03</pdfrwt>
<pdfrwt beam="2">  1       -2 0.49524240E-01 0.82844924E+03</pdfrwt>
<totfact> 0.22181425E+02</totfact>
</mgrwt>
</event>
<event>
 6    1  0.1028026E-006  0.7207716E+04  0.7818608E-02  0.7556385E-01
          2   -1    0    0  501    0  0.00000000000E+00  0.00000000000E+00  0.36613058869E+04  0.36613058869E+04  0.00000000000E+00 0. -1.
         -2   -1    0    0    0  501 -0.00000000000E+00 -0.00000000000E+00 -0.35473118157E+04  0.35473118157E+04  0.00000000000E+00 0.  1.
         23    2    1    2    0    0 -0.12647217835E+04  0.10105681884E+04  0.32765503227E+04  0.36557975134E+04  0.91127319092E+02 0.  0.
         13    1    3    3    0    0 -0.70353036559E+03  0.52229886539E+03  0.16973459224E+04  0.19101660295E+04  0.00000000000E+00 0.  1.
        -13    1    3    3    0    0 -0.56119141792E+03  0.48826932306E+03  0.15792044003E+04  0.17456314838E+04  0.00000000000E+00 0. -1.
         22    1    1    2    0    0  0.12647217835E+04 -0.10105681884E+04 -0.31625562515E+04  0.35528201892E+04  0.00000000000E+00 0.  1.
<mgrwt>
<rscale>  0 0.72077163E+04</rscale>
<asrwt>0</asrwt>
<pdfrwt beam="1">  1        2 0.56327783E+00 0.72077163E+04</pdfrwt>
<pdfrwt beam="2">  1       -2 0.54574028E+00 0.72077163E+04</pdfrwt>
<totfact> 0.35128548E-04</totfact>
</mgrwt>
</event>
<event>
 6    1  0.1028026E-006  0.1415857E+04  0.7818608E-02  0.8942420E-01
          3   -1    0    0  501    0  0.00000000000E+00  0.00000000000E+00  0.35402054269E+03  0.35402054269E+03  0.00000000000E+00 0. -1.
         -3   -1    0    0    0  501 -0.00000000000E+00 -0.00000000000E+00 -0.14156309792E+04  0.14156309792E+04  0.00000000000E+00 0.  1.
         23    2    1    2    0    0 -0.92501558692E+02 -0.68264817099E+03 -0.72016217436E+03  0.10007874380E+04  0.91525269816E+02 0.  0.
         13    1    3    3    0    0  0.93239017705E+01 -0.80310764901E+02 -0.55660469593E+02  0.98157230903E+02  0.00000000000E+00 0. -1.
        -13    1    3    3    0    0 -0.10182546046E+03 -0.60233740609E+03 -0.66450170477E+03  0.90263020712E+03  0.00000000000E+00 0.  1.
         22    1    1    2    0    0  0.92501558692E+02  0.68264817099E+03 -0.34144826212E+03  0.76886408384E+03  0.00000000000E+00 0.  1.
<mgrwt>
<rscale>  0 0.14158566E+04</rscale>
<asrwt>0</asrwt>
<pdfrwt beam="1">  1        3 0.54464700E-01 0.14158566E+04</pdfrwt>
<pdfrwt beam="2">  1       -3 0.21778938E+00 0.14158566E+04</pdfrwt>
<totfact> 0.96281880E-01</totfact>
</mgrwt>
</event>
<event>
 6    1  0.1028026E-006  0.3162492E+04  0.7818608E-02  0.8198794E-01
          2   -1    0    0  501    0  0.00000000000E+00  0.00000000000E+00  0.11259647977E+04  0.11259647977E+04  0.00000000000E+00 0. -1.
         -2   -1    0    0    0  501 -0.00000000000E+00 -0.00000000000E+00 -0.22206197700E+04  0.22206197700E+04  0.00000000000E+00 0.  1.
         23    2    1    2    0    0 -0.60340312295E+03  0.88838763642E+02  0.99446089017E+03  0.11702590541E+04  0.92553427377E+02 0.  0.
         11    1    3    3    0    0 -0.64426449316E+02 -0.18960282097E+02  0.10248139963E+03  0.12252631121E+03  0.00000000000E+00 0. -1.
        -11    1    3    3    0    0 -0.53897667363E+03  0.10779904574E+03  0.89197949054E+03  0.10477327429E+04  0.00000000000E+00 0.  1.
         22    1    1    2    0    0  0.60340312295E+03 -0.88838763642E+02 -0.20891158624E+04  0.21763255136E+04  0.00000000000E+00 0.  1.
<mgrwt>
<rscale>  0 0.31624925E+04</rscale>
<asrwt>0</asrwt>
<pdfrwt beam="1">  1        2 0.17322535E+00 0.31624925E+04</pdfrwt>
<pdfrwt beam="2">  1       -2 0.34163381E+00 0.31624925E+04</pdfrwt>
<totfact> 0.31140579E-01</totfact>
</mgrwt>
</event>
<event>
 6    1  0.1028026E-006  0.2261136E+04  0.7818608E-02  0.8493404E-01
         -2   -1    0    0    0  501 -0.00000000000E+00  0.00000000000E+00  0.22687615444E+04  0.22687615444E+04  0.00000000000E+00 0.  1.
          2   -1    0    0  501    0  0.00000000000E+00 -0.00000000000E+00 -0.56338400915E+03  0.56338400915E+03  0.00000000000E+00 0. -1.
         23    2    1    2    0    0 -0.47634971134E+03  0.10043741669E+04  0.60851506431E+03  0.12704849647E+04  0.90360099131E+02 0.  0.
         13    1    3    3    0    0 -0.11183210507E+03  0.16193104127E+03  0.12295819968E+03  0.23204913428E+03  0.00000000000E+00 0. -1.
        -13    1    3    3    0    0 -0.36451760628E+03  0.84244312561E+03  0.48555686463E+03  0.10384358305E+04  0.00000000000E+00 0.  1.
         22    1    1    2    0    0  0.47634971134E+03 -0.10043741669E+04  0.10968624710E+04  0.15616605889E+04  0.00000000000E+00 0.  1.
<mgrwt>
<rscale>  0 0.22611360E+04</rscale>
<asrwt>0</asrwt>
<pdfrwt beam="1">  1        2 0.86674464E-01 0.22611360E+04</pdfrwt>
<pdfrwt beam="2">  1       -2 0.34904023E+00 0.22611360E+04</pdfrwt>
<totfact> 0.76852507E-01</totfact>
</mgrwt>
</event>
<event>
 6    1  0.1028026E-006  0.2692224E+04  0.7818608E-02  0.8337533E-01
          1   -1    0    0  501    0  0.00000000000E+00  0.00000000000E+00  0.18554800958E+04  0.18554800958E+04  0.00000000000E+00 0. -1.
         -1   -1    0    0    0  501 -0.00000000000E+00 -0.00000000000E+00 -0.97657577762E+03  0.97657577762E+03  0.00000000000E+00 0.  1.
         23    2    1    2    0    0  0.33762679308E+03 -0.12788801747E+04  0.69421962608E+03  0.14965279672E+04  0.90159385336E+02 0.  0.
         13    1    3    3    0    0  0.21561456961E+03 -0.64482642425E+03  0.34446509817E+03  0.76219876928E+03  0.00000000000E+00 0.  1.
        -13    1    3    3    0    0  0.12201222347E+03 -0.63405375049E+03  0.34975452791E+03  0.73432919796E+03  0.00000000000E+00 0. -1.
         22    1    1    2    0    0 -0.33762679308E+03  0.12788801747E+04  0.18468469212E+03  0.13355279062E+04  0.00000000000E+00 0.  1.
<mgrwt>
<rscale>  0 0.26922236E+04</rscale>
<asrwt>0</asrwt>
<pdfrwt beam="1">  1        1 0.28545847E+00 0.26922236E+04</pdfrwt>
<pdfrwt beam="2">  1       -1 0.15024243E+00 0.26922236E+04</pdfrwt>
<totfact> 0.11336642E+00</totfact>
</mgrwt>
</event>
<event>
 6    1  0.1028026E-006  0.2284927E+04  0.7818608E-02  0.8483888E-01
         -2   -1    0    0    0  501 -0.00000000000E+00  0.00000000000E+00  0.35051782884E+04  0.35051782884E+04  0.00000000000E+00 0.  1.
          2   -1    0    0  501    0  0.00000000000E+00 -0.00000000000E+00 -0.37236994703E+03  0.37236994703E+03  0.00000000000E+00 0. -1.
         23    2    1    2    0    0 -0.83822235459E+03  0.42487287476E+03  0.47168406947E+03  0.10553653806E+04  0.90424276620E+02 0.  0.
         11    1    3    3    0    0 -0.24975989116E+03  0.14527398149E+03  0.18840016984E+03  0.34493355436E+03  0.00000000000E+00 0. -1.
        -11    1    3    3    0    0 -0.58846246344E+03  0.27959889327E+03  0.28328389963E+03  0.71043182627E+03  0.00000000000E+00 0.  1.
         22    1    1    2    0    0  0.83822235459E+03 -0.42487287476E+03  0.26611242719E+04  0.28221828548E+04  0.00000000000E+00 0.  1.
<mgrwt>
<rscale>  0 0.22849272E+04</rscale>
<asrwt>0</asrwt>
<pdfrwt beam="1">  1        2 0.57287687E-01 0.22849272E+04</pdfrwt>
<pdfrwt beam="2">  1       -2 0.53925818E+00 0.22849272E+04</pdfrwt>
<totfact> 0.75355102E-02</totfact>
</mgrwt>
</event>
<event>
 6    1  0.1028026E-006  0.1891057E+04  0.7818608E-02  0.8659321E-01
         -2   -1    0    0    0  501 -0.00000000000E+00  0.00000000000E+00  0.34162940494E+03  0.34162940494E+03  0.00000000000E+00 0.  1.
          2   -1    0    0  501    0  0.00000000000E+00 -0.00000000000E+00 -0.26169411436E+04  0.26169411436E+04  0.00000000000E+00 0. -1.
         23    2    1    2    0    0 -0.19766916802E+03 -0.92202083952E+03 -0.11811993881E+04  0.15141753934E+04  0.91102135601E+02 0.  0.
         13    1    3    3    0    0 -0.77706962927E+02 -0.36998687879E+03 -0.54597797958E+03  0.66409383128E+03  0.00000000000E+00 0. -1.
        -13    1    3    3    0    0 -0.11996220510E+03 -0.55203396074E+03 -0.63522140855E+03  0.85008156217E+03  0.00000000000E+00 0.  1.
         22    1    1    2    0    0  0.19766916802E+03  0.92202083952E+03 -0.10941123506E+04  0.14443951551E+04  0.00000000000E+00 0.  1.
<mgrwt>
<rscale>  0 0.18910569E+04</rscale>
<asrwt>0</asrwt>
<pdfrwt beam="1">  1        2 0.40260634E+00 0.18910569E+04</pdfrwt>
<pdfrwt beam="2">  1       -2 0.52558368E-01 0.18910569E+04</pdfrwt>
<totfact> 0.95334282E+00</totfact>
</mgrwt>
</event>
<event>
 6    1  0.1028026E-006  0.2696669E+04  0.7818608E-02  0.8336087E-01
          1   -1    0    0  501    0  0.00000000000E+00  0.00000000000E+00  0.14822401739E+04  0.14822401739E+04  0.00000000000E+00 0. -1.
         -1   -1    0    0    0  501 -0.00000000000E+00 -0.00000000000E+00 -0.12265258665E+04  0.12265258665E+04  0.00000000000E+00 0.  1.
         23    2    1    2    0    0  0.49770623296E+03 -0.32014408230E+03  0.13432597644E+04  0.14706388867E+04  0.90709495187E+02 0.  0.
         13    1    3    3    0    0  0.47160964115E+03 -0.28735051449E+03  0.11926356026E+04  0.13142928336E+04  0.00000000000E+00 0. -1.
        -13    1    3    3    0    0  0.26096591815E+02 -0.32793567806E+02  0.15062416183E+03  0.15634605310E+03  0.00000000000E+00 0.  1.
         22    1    1    2    0    0 -0.49770623296E+03  0.32014408230E+03 -0.10875454570E+04  0.12381271537E+04  0.00000000000E+00 0.  1.
<mgrwt>
<rscale>  0 0.26966690E+04</rscale>
<asrwt>0</asrwt>
<pdfrwt beam="1">  1        1 0.22803695E+00 0.26966690E+04</pdfrwt>
<pdfrwt beam="2">  1       -1 0.18869629E+00 0.26966690E+04</pdfrwt>
<totfact> 0.10608930E+00</totfact>
</mgrwt>
</event>
<event>
 6    1  0.1028026E-006  0.4297062E+04  0.7818608E-02  0.7947162E-01
         -1   -1    0    0    0  501 -0.00000000000E+00  0.00000000000E+00  0.24100522402E+04  0.24100522402E+04  0.00000000000E+00 0.  1.
          1   -1    0    0  501    0  0.00000000000E+00 -0.00000000000E+00 -0.19153877610E+04  0.19153877610E+04  0.00000000000E+00 0. -1.
         23    2    1    2    0    0 -0.16594629778E+04  0.89004100967E+03 -0.79192686349E+03  0.20448024462E+04  0.89880551213E+02 0.  0.
         11    1    3    3    0    0 -0.83016800372E+03  0.47465085419E+03 -0.44182511341E+03  0.10534143433E+04  0.00000000000E+00 0.  1.
        -11    1    3    3    0    0 -0.82929497408E+03  0.41539015549E+03 -0.35010175008E+03  0.99138810297E+03  0.00000000000E+00 0. -1.
         22    1    1    2    0    0  0.16594629778E+04 -0.89004100967E+03  0.12865913427E+04  0.22806375549E+04  0.00000000000E+00 0.  1.
<mgrwt>
<rscale>  0 0.42970616E+04</rscale>
<asrwt>0</asrwt>
<pdfrwt beam="1">  1        1 0.29467504E+00 0.42970616E+04</pdfrwt>
<pdfrwt beam="2">  1       -1 0.37077726E+00 0.42970616E+04</pdfrwt>
<totfact> 0.29324666E-02</totfact>
</mgrwt>
</event>
<event>
 6    1  0.1028026E-006  0.5140500E+04  0.7818608E-02  0.7807192E-01
         -2   -1    0    0    0  501 -0.00000000000E+00  0.00000000000E+00  0.17895754116E+04  0.17895754116E+04  0.00000000000E+00 0.  1.
          2   -1    0    0  501    0  0.00000000000E+00 -0.00000000000E+00 -0.36914825143E+04  0.36914825143E+04  0.00000000000E+00 0. -1.
         23    2    1    2    0    0  0.21956639198E+04  0.13343616671E+04 -0.97312205046E+03  0.27490069051E+04  0.92797264399E+02 0.  0.
         13    1    3    3    0    0  0.11625529165E+04  0.71332918467E+03 -0.56567036404E+03  0.14766010870E+04  0.00000000000E+00 0.  1.
        -13    1    3    3    0    0  0.10331110033E+04  0.62103248243E+03 -0.40745168642E+03  0.12724058182E+04  0.00000000000E+00 0. -1.
         22    1    1    2    0    0 -0.21956639198E+04 -0.13343616671E+04 -0.92878505225E+03  0.27320510208E+04  0.00000000000E+00 0. -1.
<mgrwt>
<rscale>  0 0.51405005E+04</rscale>
<asrwt>0</asrwt>
<pdfrwt beam="1">  1        2 0.56792038E+00 0.51405005E+04</pdfrwt>
<pdfrwt beam="2">  1       -2 0.27531930E+00 0.51405005E+04</pdfrwt>
<totfact> 0.19120606E-02</totfact>
</mgrwt>
</event>
<event>
 6    1  0.1028026E-006  0.1711264E+04  0.7818608E-02  0.8754966E-01
          1   -1    0    0  501    0  0.00000000000E+00  0.00000000000E+00  0.17944368905E+04  0.17944368905E+04  0.00000000000E+00 0. -1.
         -1   -1    0    0    0  501 -0.00000000000E+00 -0.00000000000E+00 -0.40798671828E+03  0.40798671828E+03  0.00000000000E+00 0.  1.
         23    2    1    2    0    0  0.41599148055E+03 -0.72397821693E+03  0.92119985037E+03  0.12465725574E+04  0.90225307022E+02 0.  0.
         11    1    3    3    0    0  0.21758312520E+03 -0.46075651314E+03  0.53487574705E+03  0.73873611361E+03  0.00000000000E+00 0.  1.
        -11    1    3    3    0    0  0.19840835535E+03 -0.26322170379E+03  0.38632410332E+03  0.50783644378E+03  0.00000000000E+00 0. -1.
         22    1    1    2    0    0 -0.41599148055E+03  0.72397821693E+03  0.46525032187E+03  0.95585105141E+03  0.00000000000E+00 0.  1.
<mgrwt>
<rscale>  0 0.17112643E+04</rscale>
<asrwt>0</asrwt>
<pdfrwt beam="1">  1        1 0.27606721E+00 0.17112643E+04</pdfrwt>
<pdfrwt beam="2">  1       -1 0.62767188E-01 0.17112643E+04</pdfrwt>
<totfact> 0.10059092E+01</totfact>
</mgrwt>
</event>
<event>
 6    1  0.1028026E-006  0.1076506E+04  0.7818608E-02  0.9228399E-01
          1   -1    0    0  501    0  0.00000000000E+00  0.00000000000E+00  0.39182947348E+03  0.39182947348E+03  0.00000000000E+00 0. -1.
         -1   -1    0    0    0  501 -0.00000000000E+00 -0.00000000000E+00 -0.73939313680E+03  0.73939313680E+03  0.00000000000E+00 0.  1.
         23    2    1    2    0    0  0.48556407347E+03  0.73947614602E+02  0.45945658201E+02  0.50186555322E+03  0.92289278119E+02 0.  0.
         13    1    3    3    0    0  0.41331758188E+03  0.94074358919E+02  0.49590881657E+02  0.42677940911E+03  0.00000000000E+00 0. -1.
        -13    1    3    3    0    0  0.72246491585E+02 -0.20126744317E+02 -0.36452234557E+01  0.75086144110E+02  0.00000000000E+00 0.  1.
         22    1    1    2    0    0 -0.48556407347E+03 -0.73947614602E+02 -0.39350932151E+03  0.62935705706E+03  0.00000000000E+00 0.  1.
<mgrwt>
<rscale>  0 0.10765055E+04</rscale>
<asrwt>0</asrwt>
<pdfrwt beam="1">  1        1 0.60281458E-01 0.10765055E+04</pdfrwt>
<pdfrwt beam="2">  1       -1 0.11375279E+00 0.10765055E+04</pdfrwt>
<totfact> 0.43384797E+01</totfact>
</mgrwt>
</event>
<event>
 6    1  0.1028026E-006  0.2784386E+04  0.7818608E-02  0.8308132E-01
         -3   -1    0    0    0  501 -0.00000000000E+00  0.00000000000E+00  0.15110025885E+04  0.15110025885E+04  0.00000000000E+00 0.  1.
          3   -1    0    0  501    0  0.00000000000E+00 -0.00000000000E+00 -0.12827257743E+04  0.12827257743E+04  0.00000000000E+00 0. -1.
         23    2    1    2    0    0  0.28230468759E+03 -0.12319276738E+04  0.69646857739E+03  0.14459356276E+04  0.91212003651E+02 0.  0.
         11    1    3    3    0    0  0.23836889176E+03 -0.10988413089E+04  0.64730752493E+03  0.12974124181E+04  0.00000000000E+00 0. -1.
        -11    1    3    3    0    0  0.43935795832E+02 -0.13308636491E+03  0.49161052461E+02  0.14852320950E+03  0.00000000000E+00 0.  1.
         22    1    1    2    0    0 -0.28230468759E+03  0.12319276738E+04 -0.46819176312E+03  0.13477927353E+04  0.00000000000E+00 0. -1.
<mgrwt>
<rscale>  0 0.27843864E+04</rscale>
<asrwt>0</asrwt>
<pdfrwt beam="1">  1        3 0.19734242E+00 0.27843864E+04</pdfrwt>
<pdfrwt beam="2">  1       -3 0.23246194E+00 0.27843864E+04</pdfrwt>
<totfact> 0.32121595E-02</totfact>
</mgrwt>
</event>
<event>
 6    1  0.1028026E-006  0.4315002E+04  0.7818608E-02  0.7943850E-01
         -2   -1    0    0    0  501 -0.00000000000E+00  0.00000000000E+00  0.12442525000E+04  0.12442525000E+04  0.00000000000E+00 0.  1.
          2   -1    0    0  501    0  0.00000000000E+00 -0.00000000000E+00 -0.37410505601E+04  0.37410505601E+04  0.00000000000E+00 0. -1.
         23    2    1    2    0    0 -0.17181117378E+02  0.19747678853E+04 -0.24802876854E+03  0.19924838677E+04  0.92034241843E+02 0.  0.
         11    1    3    3    0    0 -0.18863520644E+02  0.14445115953E+04 -0.22193806321E+03  0.14615834171E+04  0.00000000000E+00 0. -1.
        -11    1    3    3    0    0  0.16824032657E+01  0.53025628998E+03 -0.26090705330E+02  0.53090045060E+03  0.00000000000E+00 0.  1.
         22    1    1    2    0    0  0.17181117378E+02 -0.19747678853E+04 -0.22487692916E+04  0.29928191924E+04  0.00000000000E+00 0.  1.
<mgrwt>
<rscale>  0 0.43150024E+04</rscale>
<asrwt>0</asrwt>
<pdfrwt beam="1">  1        2 0.57554623E+00 0.43150024E+04</pdfrwt>
<pdfrwt beam="2">  1       -2 0.19142346E+00 0.43150024E+04</pdfrwt>
<totfact> 0.63274515E-02</totfact>
</mgrwt>
</event>
<event>
 6    1  0.1028026E-006  0.4464377E+04  0.7818608E-02  0.7916903E-01
          2   -1    0    0  501    0  0.00000000000E+00  0.00000000000E+00  0.19366285183E+04  0.19366285183E+04  0.00000000000E+00 0. -1.
         -2   -1    0    0    0  501 -0.00000000000E+00 -0.00000000000E+00 -0.25728551317E+04  0.25728551317E+04  0.00000000000E+00 0.  1.
         23    2    1    2    0    0 -0.17935521900E+04 -0.96978946535E+03  0.59712765395E+03  0.21265267025E+04  0.90737621292E+02 0.  0.
         11    1    3    3    0    0 -0.80823986764E+03 -0.43100795720E+03  0.31501227013E+03  0.96863423083E+03  0.00000000000E+00 0. -1.
        -11    1    3    3    0    0 -0.98531232232E+03 -0.53878150815E+03  0.28211538381E+03  0.11578924716E+04  0.00000000000E+00 0.  1.
         22    1    1    2    0    0  0.17935521900E+04  0.96978946535E+03 -0.12333542674E+04  0.23829569476E+04  0.00000000000E+00 0.  1.
<mgrwt>
<rscale>  0 0.44643766E+04</rscale>
<asrwt>0</asrwt>
<pdfrwt beam="1">  1        2 0.29794285E+00 0.44643766E+04</pdfrwt>
<pdfrwt beam="2">  1       -2 0.39582386E+00 0.44643766E+04</pdfrwt>
<totfact> 0.43520881E-02</totfact>
</mgrwt>
</event>
<event>
 6    1  0.1028026E-006  0.3229107E+04  0.7818608E-02  0.8181172E-01
         -2   -1    0    0    0  501 -0.00000000000E+00  0.00000000000E+00  0.20057429772E+04  0.20057429772E+04  0.00000000000E+00 0.  1.
          2   -1    0    0  501    0  0.00000000000E+00 -0.00000000000E+00 -0.12996597069E+04  0.12996597069E+04  0.00000000000E+00 0. -1.
         23    2    1    2    0    0  0.72760821389E+02 -0.74434595299E+03 -0.11098533020E+04  0.13414855093E+04  0.91999916724E+02 0.  0.
         11    1    3    3    0    0  0.14571899123E+02 -0.29251880937E+03 -0.35993460376E+03  0.46403934430E+03  0.00000000000E+00 0.  1.
        -11    1    3    3    0    0  0.58188922266E+02 -0.45182714363E+03 -0.74991869828E+03  0.87744616497E+03  0.00000000000E+00 0. -1.
         22    1    1    2    0    0 -0.72760821389E+02  0.74434595299E+03  0.18159365724E+04  0.19639171749E+04  0.00000000000E+00 0.  1.
<mgrwt>
<rscale>  0 0.32291072E+04</rscale>
<asrwt>0</asrwt>
<pdfrwt beam="1">  1        2 0.19994765E+00 0.32291072E+04</pdfrwt>
<pdfrwt beam="2">  1       -2 0.30857584E+00 0.32291072E+04</pdfrwt>
<totfact> 0.39114239E-01</totfact>
</mgrwt>
</event>
<event>
 6    1  0.1028026E-006  0.3918626E+04  0.7818608E-02  0.8021166E-01
          2   -1    0    0  501    0  0.00000000000E+00  0.00000000000E+00  0.18057402493E+04  0.18057402493E+04  0.00000000000E+00 0. -1.
         -2   -1    0    0    0  501 -0.00000000000E+00 -0.00000000000E+00 -0.21259467446E+04  0.21259467446E+04  0.00000000000E+00 0.  1.
         23    2    1    2    0    0 -0.15165348882E+04  0.36407229984E+02  0.10821109489E+04  0.18658463011E+04  0.95993542967E+02 0.  0.
         13    1    3    3    0    0 -0.13499307782E+04  0.42200447208E+02  0.92678463351E+03  0.16379938158E+04  0.00000000000E+00 0. -1.
        -13    1    3    3    0    0 -0.16660411000E+03 -0.57932172243E+01  0.15532631535E+03  0.22785248534E+03  0.00000000000E+00 0.  1.
         22    1    1    2    0    0  0.15165348882E+04 -0.36407229984E+02 -0.14023174441E+04  0.20658406927E+04  0.00000000000E+00 0. -1.
<mgrwt>
<rscale>  0 0.39186261E+04</rscale>
<asrwt>0</asrwt>
<pdfrwt beam="1">  1        2 0.27780619E+00 0.39186261E+04</pdfrwt>
<pdfrwt beam="2">  1       -2 0.32706873E+00 0.39186261E+04</pdfrwt>
<totfact> 0.14722349E-01</totfact>
</mgrwt>
</event>
<event>
 6    1  0.1028026E-006  0.3542847E+04  0.7818608E-02  0.8103710E-01
          2   -1    0    0  501    0  0.00000000000E+00  0.00000000000E+00  0.15701291198E+04  0.15701291198E+04  0.00000000000E+00 0. -1.
         -2   -1    0    0    0  501 -0.00000000000E+00 -0.00000000000E+00 -0.19985245347E+04  0.19985245347E+04  0.00000000000E+00 0.  1.
         23    2    1    2    0    0 -0.14994427150E+04  0.92896398454E+03 -0.36386622911E+03  0.18035852263E+04  0.96012997189E+02 0.  0.
         13    1    3    3    0    0 -0.46362719360E+03  0.25182976737E+03 -0.76172698032E+02  0.53307662329E+03  0.00000000000E+00 0.  1.
        -13    1    3    3    0    0 -0.10358155215E+04  0.67713421716E+03 -0.28769353108E+03  0.12705086030E+04  0.00000000000E+00 0. -1.
         22    1    1    2    0    0  0.14994427150E+04 -0.92896398454E+03 -0.64529185869E+02  0.17650684282E+04  0.00000000000E+00 0.  1.
<mgrwt>
<rscale>  0 0.35428472E+04</rscale>
<asrwt>0</asrwt>
<pdfrwt beam="1">  1        2 0.24155832E+00 0.35428472E+04</pdfrwt>
<pdfrwt beam="2">  1       -2 0.30746531E+00 0.35428472E+04</pdfrwt>
<totfact> 0.27142839E-01</totfact>
</mgrwt>
</event>
<event>
 6    1  0.1028026E-006  0.2316874E+04  0.7818608E-02  0.8471297E-01
          1   -1    0    0  501    0  0.00000000000E+00  0.00000000000E+00  0.13924133934E+04  0.13924133934E+04  0.00000000000E+00 0. -1.
         -1   -1    0    0    0  501 -0.00000000000E+00 -0.00000000000E+00 -0.96377735848E+03  0.96377735848E+03  0.00000000000E+00 0.  1.
         23    2    1    2    0    0 -0.80796532591E+03  0.27258763013E+03 -0.57991345067E+03  0.10354772898E+04  0.93816968295E+02 0.  0.
         11    1    3    3    0    0 -0.41479737235E+03  0.90975470137E+02 -0.29542303274E+03  0.51730857769E+03  0.00000000000E+00 0.  1.
        -11    1    3    3    0    0 -0.39316795355E+03  0.18161215999E+03 -0.28449041793E+03  0.51816871215E+03  0.00000000000E+00 0. -1.
         22    1    1    2    0    0  0.80796532591E+03 -0.27258763013E+03  0.10085494856E+04  0.13207134621E+04  0.00000000000E+00 0. -1.
<mgrwt>
<rscale>  0 0.23168742E+04</rscale>
<asrwt>0</asrwt>
<pdfrwt beam="1">  1        1 0.21421744E+00 0.23168742E+04</pdfrwt>
<pdfrwt beam="2">  1       -1 0.14827344E+00 0.23168742E+04</pdfrwt>
<totfact> 0.25270278E+00</totfact>
</mgrwt>
</event>
<event>
 6    1  0.1028026E-006  0.1473312E+04  0.7818608E-02  0.8902396E-01
          1   -1    0    0  501    0  0.00000000000E+00  0.00000000000E+00  0.15274063366E+04  0.15274063366E+04  0.00000000000E+00 0. -1.
         -1   -1    0    0    0  501 -0.00000000000E+00 -0.00000000000E+00 -0.35528353120E+03  0.35528353120E+03  0.00000000000E+00 0.  1.
         23    2    1    2    0    0 -0.16319886762E+03 -0.32990662620E+03 -0.22311355262E+03  0.43972183380E+03  0.90018783345E+02 0.  0.
         11    1    3    3    0    0 -0.57963879227E+02 -0.21679078100E+03 -0.13057877441E+03  0.25963218280E+03  0.00000000000E+00 0. -1.
        -11    1    3    3    0    0 -0.10523498839E+03 -0.11311584520E+03 -0.92534778208E+02  0.18008965099E+03  0.00000000000E+00 0.  1.
         22    1    1    2    0    0  0.16319886762E+03  0.32990662620E+03  0.13952363580E+04  0.14429680340E+04  0.00000000000E+00 0. -1.
<mgrwt>
<rscale>  0 0.14733123E+04</rscale>
<asrwt>0</asrwt>
<pdfrwt beam="1">  1        1 0.23498559E+00 0.14733123E+04</pdfrwt>
<pdfrwt beam="2">  1       -1 0.54659006E-01 0.14733123E+04</pdfrwt>
<totfact> 0.20526945E+01</totfact>
</mgrwt>
</event>
<event>
 6    1  0.1028026E-006  0.1680978E+04  0.7818608E-02  0.8772289E-01
         -2   -1    0    0    0  501 -0.00000000000E+00  0.00000000000E+00  0.36866060533E+03  0.36866060533E+03  0.00000000000E+00 0.  1.
          2   -1    0    0  501    0  0.00000000000E+00 -0.00000000000E+00 -0.19161835065E+04  0.19161835065E+04  0.00000000000E+00 0. -1.
         23    2    1    2    0    0  0.30195347017E+03 -0.15661205480E+03 -0.18171031351E+04  0.18508202227E+04  0.89266227393E+02 0.  0.
         11    1    3    3    0    0  0.35712845886E+02 -0.61457916310E+01 -0.36913467117E+03  0.37090913115E+03  0.00000000000E+00 0. -1.
        -11    1    3    3    0    0  0.26624062428E+03 -0.15046626317E+03 -0.14479684639E+04  0.14799110916E+04  0.00000000000E+00 0.  1.
         22    1    1    2    0    0 -0.30195347017E+03  0.15661205480E+03  0.26958023389E+03  0.43402388916E+03  0.00000000000E+00 0.  1.
<mgrwt>
<rscale>  0 0.16809775E+04</rscale>
<asrwt>0</asrwt>
<pdfrwt beam="1">  1        2 0.29479746E+00 0.16809775E+04</pdfrwt>
<pdfrwt beam="2">  1       -2 0.56717017E-01 0.16809775E+04</pdfrwt>
<totfact> 0.20666869E+01</totfact>
</mgrwt>
</event>
<event>
 6    1  0.1028026E-006  0.2554302E+04  0.7818608E-02  0.8383891E-01
         -1   -1    0    0    0  501 -0.00000000000E+00  0.00000000000E+00  0.18665506666E+04  0.18665506666E+04  0.00000000000E+00 0.  1.
          1   -1    0    0  501    0  0.00000000000E+00 -0.00000000000E+00 -0.87386605297E+03  0.87386605297E+03  0.00000000000E+00 0. -1.
         23    2    1    2    0    0 -0.59816720196E+03  0.81003994763E+03 -0.34308633596E+03  0.10676188394E+04  0.90183335244E+02 0.  0.
         11    1    3    3    0    0 -0.26006436122E+03  0.29804545087E+03 -0.10286769891E+03  0.40871301207E+03  0.00000000000E+00 0.  1.
        -11    1    3    3    0    0 -0.33810284074E+03  0.51199449677E+03 -0.24021863705E+03  0.65890582728E+03  0.00000000000E+00 0. -1.
         22    1    1    2    0    0  0.59816720196E+03 -0.81003994763E+03  0.13357709496E+04  0.16727978802E+04  0.00000000000E+00 0.  1.
<mgrwt>
<rscale>  0 0.25543025E+04</rscale>
<asrwt>0</asrwt>
<pdfrwt beam="1">  1        1 0.13444093E+00 0.25543025E+04</pdfrwt>
<pdfrwt beam="2">  1       -1 0.28716164E+00 0.25543025E+04</pdfrwt>
<totfact> 0.67644143E-01</totfact>
</mgrwt>
</event>
<event>
 6    1  0.1028026E-006  0.5075466E+04  0.7818608E-02  0.7816970E-01
          2   -1    0    0  501    0  0.00000000000E+00  0.00000000000E+00  0.27550181899E+04  0.27550181899E+04  0.00000000000E+00 0. -1.
         -2   -1    0    0    0  501 -0.00000000000E+00 -0.00000000000E+00 -0.23375852329E+04  0.23375852329E+04  0.00000000000E+00 0.  1.
         23    2    1    2    0    0 -0.15554417377E+04 -0.59861192996E+03  0.21277116770E+04  0.27045522210E+04  0.98541839155E+02 0.  0.
         13    1    3    3    0    0 -0.25003858084E+03 -0.13581304005E+03  0.35924832078E+03  0.45828356914E+03  0.00000000000E+00 0.  1.
        -13    1    3    3    0    0 -0.13054031568E+04 -0.46279888991E+03  0.17684633562E+04  0.22462686519E+04  0.00000000000E+00 0. -1.
         22    1    1    2    0    0  0.15554417377E+04  0.59861192996E+03 -0.17102787200E+04  0.23880512017E+04  0.00000000000E+00 0. -1.
<mgrwt>
<rscale>  0 0.50754664E+04</rscale>
<asrwt>0</asrwt>
<pdfrwt beam="1">  1        2 0.42384895E+00 0.50754664E+04</pdfrwt>
<pdfrwt beam="2">  1       -2 0.35962850E+00 0.50754664E+04</pdfrwt>
<totfact> 0.24086532E-02</totfact>
</mgrwt>
</event>
<event>
 6    1  0.1028026E-006  0.1857195E+04  0.7818608E-02  0.8676462E-01
         -1   -1    0    0    0  501 -0.00000000000E+00  0.00000000000E+00  0.10533635231E+04  0.10533635231E+04  0.00000000000E+00 0.  1.
          1   -1    0    0  501    0  0.00000000000E+00 -0.00000000000E+00 -0.81860929527E+03  0.81860929527E+03  0.00000000000E+00 0. -1.
         23    2    1    2    0    0 -0.68284334187E+03  0.16691486629E+03 -0.49068584475E+03  0.86182485840E+03  0.88509243542E+02 0.  0.
         13    1    3    3    0    0 -0.52703432001E+03  0.16642422962E+03 -0.38360401614E+03  0.67276611082E+03  0.00000000000E+00 0.  1.
        -13    1    3    3    0    0 -0.15580902186E+03  0.49063667776E+00 -0.10708182861E+03  0.18905874758E+03  0.00000000000E+00 0. -1.
         22    1    1    2    0    0  0.68284334187E+03 -0.16691486629E+03  0.72544007261E+03  0.10101479600E+04  0.00000000000E+00 0.  1.
<mgrwt>
<rscale>  0 0.18571948E+04</rscale>
<asrwt>0</asrwt>
<pdfrwt beam="1">  1        1 0.12593989E+00 0.18571948E+04</pdfrwt>
<pdfrwt beam="2">  1       -1 0.16205593E+00 0.18571948E+04</pdfrwt>
<totfact> 0.56404127E+00</totfact>
</mgrwt>
</event>
<event>
 6    1  0.1028026E-006  0.2095935E+04  0.7818608E-02  0.8563036E-01
         -2   -1    0    0    0  501 -0.00000000000E+00  0.00000000000E+00  0.13263165703E+04  0.13263165703E+04  0.00000000000E+00 0.  1.
          2   -1    0    0  501    0  0.00000000000E+00 -0.00000000000E+00 -0.82803424023E+03  0.82803424023E+03  0.00000000000E+00 0. -1.
         23    2    1    2    0    0  0.32899416930E+03 -0.68038268118E+03 -0.49369901387E+03  0.90728034621E+03  0.90890890840E+02 0.  0.
         13    1    3    3    0    0  0.15704000286E+03 -0.22775177807E+03 -0.19295242323E+03  0.33728781855E+03  0.00000000000E+00 0. -1.
        -13    1    3    3    0    0  0.17195416645E+03 -0.45263090310E+03 -0.30074659064E+03  0.56999252765E+03  0.00000000000E+00 0.  1.
         22    1    1    2    0    0 -0.32899416930E+03  0.68038268118E+03  0.99198134398E+03  0.12470704644E+04  0.00000000000E+00 0.  1.
<mgrwt>
<rscale>  0 0.20959347E+04</rscale>
<asrwt>0</asrwt>
<pdfrwt beam="1">  1        2 0.12738988E+00 0.20959347E+04</pdfrwt>
<pdfrwt beam="2">  1       -2 0.20404870E+00 0.20959347E+04</pdfrwt>
<totfact> 0.37921511E+00</totfact>
</mgrwt>
</event>
<event>
 6    1  0.1028026E-006  0.1019565E+04  0.7818608E-02  0.9287342E-01
          1   -1    0    0  501    0  0.00000000000E+00  0.00000000000E+00  0.18820068990E+04  0.18820068990E+04  0.00000000000E+00 0. -1.
         -1   -1    0    0    0  501 -0.00000000000E+00 -0.00000000000E+00 -0.13808577069E+03  0.13808577069E+03  0.00000000000E+00 0.  1.
         23    2    1    2    0    0 -0.96056817275E+02 -0.36656022938E+03  0.21468461027E+03  0.44460619179E+03  0.89397259406E+02 0.  0.
         11    1    3    3    0    0 -0.29203145352E+02 -0.22323709212E+03  0.87063835758E+02  0.24138710507E+03  0.00000000000E+00 0. -1.
        -11    1    3    3    0    0 -0.66853671923E+02 -0.14332313726E+03  0.12762077451E+03  0.20321908673E+03  0.00000000000E+00 0.  1.
         22    1    1    2    0    0  0.96056817275E+02  0.36656022938E+03  0.15292365181E+04  0.15754864779E+04  0.00000000000E+00 0. -1.
<mgrwt>
<rscale>  0 0.10195653E+04</rscale>
<asrwt>0</asrwt>
<pdfrwt beam="1">  1        1 0.28953950E+00 0.10195653E+04</pdfrwt>
<pdfrwt beam="2">  1       -1 0.21243966E-01 0.10195653E+04</pdfrwt>
<totfact> 0.66521154E+01</totfact>
</mgrwt>
</event>
<event>
 6    1  0.1028026E-006  0.2289872E+04  0.7818608E-02  0.8481925E-01
         -2   -1    0    0    0  501 -0.00000000000E+00  0.00000000000E+00  0.10066617519E+04  0.10066617519E+04  0.00000000000E+00 0.  1.
          2   -1    0    0  501    0  0.00000000000E+00 -0.00000000000E+00 -0.13022039303E+04  0.13022039303E+04  0.00000000000E+00 0. -1.
         23    2    1    2    0    0 -0.35213648690E+03  0.34166292745E+03 -0.11890287184E+04  0.12895267501E+04  0.91412715997E+02 0.  0.
         13    1    3    3    0    0 -0.20940553213E+03  0.21450694867E+03 -0.83511259001E+03  0.88728628182E+03  0.00000000000E+00 0.  1.
        -13    1    3    3    0    0 -0.14273095477E+03  0.12715597877E+03 -0.35391612842E+03  0.40224046830E+03  0.00000000000E+00 0. -1.
         22    1    1    2    0    0  0.35213648690E+03 -0.34166292745E+03  0.89348653996E+03  0.10193389321E+04  0.00000000000E+00 0.  1.
<mgrwt>
<rscale>  0 0.22898724E+04</rscale>
<asrwt>0</asrwt>
<pdfrwt beam="1">  1        2 0.20033907E+00 0.22898724E+04</pdfrwt>
<pdfrwt beam="2">  1       -2 0.15487104E+00 0.22898724E+04</pdfrwt>
<totfact> 0.41153579E+00</totfact>
</mgrwt>
</event>
<event>
 6    1  0.1028026E-006  0.2635040E+04  0.7818608E-02  0.8356395E-01
          2   -1    0    0  501    0  0.00000000000E+00  0.00000000000E+00  0.30448749665E+04  0.30448749665E+04  0.00000000000E+00 0. -1.
         -2   -1    0    0    0  501 -0.00000000000E+00 -0.00000000000E+00 -0.57009218418E+03  0.57009218418E+03  0.00000000000E+00 0.  1.
         23    2    1    2    0    0  0.18429580858E+03  0.68143243854E+03  0.27624624494E+04  0.28526845887E+04  0.91079444143E+02 0.  0.
         11    1    3    3    0    0  0.90918798604E+02  0.27626097336E+03  0.97210952114E+03  0.10146838298E+04  0.00000000000E+00 0.  1.
        -11    1    3    3    0    0  0.93377009973E+02  0.40517146518E+03  0.17903529282E+04  0.18380007589E+04  0.00000000000E+00 0. -1.
         22    1    1    2    0    0 -0.18429580858E+03 -0.68143243854E+03 -0.28767966710E+03  0.76228256193E+03  0.00000000000E+00 0.  1.
<mgrwt>
<rscale>  0 0.26350404E+04</rscale>
<asrwt>0</asrwt>
<pdfrwt beam="1">  1        2 0.46844229E+00 0.26350404E+04</pdfrwt>
<pdfrwt beam="2">  1       -2 0.87706492E-01 0.26350404E+04</pdfrwt>
<totfact> 0.16135834E+00</totfact>
</mgrwt>
</event>
<event>
 6    1  0.1028026E-006  0.1609938E+04  0.7818608E-02  0.8814466E-01
          1   -1    0    0  501    0  0.00000000000E+00  0.00000000000E+00  0.16518451682E+04  0.16518451682E+04  0.00000000000E+00 0. -1.
         -1   -1    0    0    0  501 -0.00000000000E+00 -0.00000000000E+00 -0.39227330456E+03  0.39227330456E+03  0.00000000000E+00 0.  1.
         23    2    1    2    0    0  0.76249460460E+03 -0.29481951068E+02  0.94632491596E+03  0.12192603894E+04  0.93796817959E+02 0.  0.
         11    1    3    3    0    0  0.65449464215E+03 -0.91720744064E+00  0.77062008263E+03  0.10110486584E+04  0.00000000000E+00 0. -1.
        -11    1    3    3    0    0  0.10799996245E+03 -0.28564743628E+02  0.17570483333E+03  0.20821173099E+03  0.00000000000E+00 0.  1.
         22    1    1    2    0    0 -0.76249460460E+03  0.29481951068E+02  0.31324694769E+03  0.82485808338E+03  0.00000000000E+00 0. -1.
<mgrwt>
<rscale>  0 0.16099376E+04</rscale>
<asrwt>0</asrwt>
<pdfrwt beam="1">  1        1 0.25413002E+00 0.16099376E+04</pdfrwt>
<pdfrwt beam="2">  1       -1 0.60349740E-01 0.16099376E+04</pdfrwt>
<totfact> 0.13724117E+01</totfact>
</mgrwt>
</event>
<event>
 6    1  0.1028026E-006  0.2848799E+04  0.7818608E-02  0.8288276E-01
          2   -1    0    0  501    0  0.00000000000E+00  0.00000000000E+00  0.18808543191E+04  0.18808543191E+04  0.00000000000E+00 0. -1.
         -2   -1    0    0    0  501 -0.00000000000E+00 -0.00000000000E+00 -0.10787191168E+04  0.10787191168E+04  0.00000000000E+00 0.  1.
         23    2    1    2    0    0  0.12379753783E+04  0.46451896705E+03 -0.14499638169E+03  0.13330989831E+04  0.88136485514E+02 0.  0.
         11    1    3    3    0    0  0.43147598595E+03  0.14315069857E+03 -0.88148268311E+02  0.46306993657E+03  0.00000000000E+00 0.  1.
        -11    1    3    3    0    0  0.80649939234E+03  0.32136826848E+03 -0.56848113380E+02  0.87002904654E+03  0.00000000000E+00 0. -1.
         22    1    1    2    0    0 -0.12379753783E+04 -0.46451896705E+03  0.94713158406E+03  0.16264744528E+04  0.00000000000E+00 0. -1.
<mgrwt>
<rscale>  0 0.28487987E+04</rscale>
<asrwt>0</asrwt>
<pdfrwt beam="1">  1        2 0.28936220E+00 0.28487987E+04</pdfrwt>
<pdfrwt beam="2">  1       -2 0.16595679E+00 0.28487987E+04</pdfrwt>
<totfact> 0.15368842E+00</totfact>
</mgrwt>
</event>
<event>
 6    1  0.1028026E-006  0.2590990E+04  0.7818608E-02  0.8371268E-01
          1   -1    0    0  501    0  0.00000000000E+00  0.00000000000E+00  0.37190561594E+04  0.37190561594E+04  0.00000000000E+00 0. -1.
         -1   -1    0    0    0  501 -0.00000000000E+00 -0.00000000000E+00 -0.45127225003E+03  0.45127225003E+03  0.00000000000E+00 0.  1.
         23    2    1    2    0    0  0.82953351636E+03 -0.52550302417E+03  0.27976452276E+03  0.10250876972E+04  0.90869772546E+02 0.  0.
         13    1    3    3    0    0  0.24934538249E+03 -0.12172023655E+03  0.10724925592E+03  0.29747493786E+03  0.00000000000E+00 0.  1.
        -13    1    3    3    0    0  0.58018813386E+03 -0.40378278762E+03  0.17251526684E+03  0.72761275933E+03  0.00000000000E+00 0. -1.
         22    1    1    2    0    0 -0.82953351636E+03  0.52550302417E+03  0.29880193866E+04  0.31452407123E+04  0.00000000000E+00 0. -1.
<mgrwt>
<rscale>  0 0.25909896E+04</rscale>
<asrwt>0</asrwt>
<pdfrwt beam="1">  1        1 0.57216247E+00 0.25909896E+04</pdfrwt>
<pdfrwt beam="2">  1       -1 0.69426502E-01 0.25909896E+04</pdfrwt>
<totfact> 0.30810465E-01</totfact>
</mgrwt>
</event>
<event>
 6    1  0.1028026E-006  0.4013549E+04  0.7818608E-02  0.8001819E-01
         -1   -1    0    0    0  501 -0.00000000000E+00  0.00000000000E+00  0.26683911304E+04  0.26683911304E+04  0.00000000000E+00 0.  1.
          1   -1    0    0  501    0  0.00000000000E+00 -0.00000000000E+00 -0.15092030598E+04  0.15092030598E+04  0.00000000000E+00 0. -1.
         23    2    1    2    0    0 -0.10107411807E+04 -0.38537405279E+03 -0.11781069493E+04  0.16021216306E+04  0.93524543831E+02 0.  0.
         11    1    3    3    0    0 -0.42980865333E+03 -0.19634135004E+03 -0.46236615547E+03  0.66111108441E+03  0.00000000000E+00 0.  1.
        -11    1    3    3    0    0 -0.58093252738E+03 -0.18903270275E+03 -0.71574079383E+03  0.94101054618E+03  0.00000000000E+00 0. -1.
         22    1    1    2    0    0  0.10107411807E+04  0.38537405279E+03  0.23372950199E+04  0.25754725596E+04  0.00000000000E+00 0.  1.
<mgrwt>
<rscale>  0 0.40135491E+04</rscale>
<asrwt>0</asrwt>
<pdfrwt beam="1">  1        1 0.23218509E+00 0.40135491E+04</pdfrwt>
<pdfrwt beam="2">  1       -1 0.41052171E+00 0.40135491E+04</pdfrwt>
<totfact> 0.30515536E-02</totfact>
</mgrwt>
</event>
<event>
 6    1  0.1028026E-006  0.2299195E+04  0.7818608E-02  0.8478239E-01
         -1   -1    0    0    0  501 -0.00000000000E+00  0.00000000000E+00  0.73482154053E+03  0.73482154053E+03  0.00000000000E+00 0.  1.
          1   -1    0    0  501    0  0.00000000000E+00 -0.00000000000E+00 -0.17984966509E+04  0.17984966509E+04  0.00000000000E+00 0. -1.
         23    2    1    2    0    0  0.58544387077E+03 -0.70022474902E+03 -0.12996185797E+04  0.15905941885E+04  0.89006712831E+02 0.  0.
         13    1    3    3    0    0  0.25566625880E+03 -0.33720821101E+03 -0.67090979596E+03  0.79321785644E+03  0.00000000000E+00 0.  1.
        -13    1    3    3    0    0  0.32977761197E+03 -0.36301653801E+03 -0.62870878370E+03  0.79737633206E+03  0.00000000000E+00 0. -1.
         22    1    1    2    0    0 -0.58544387077E+03  0.70022474902E+03  0.23594346931E+03  0.94272400291E+03  0.00000000000E+00 0.  1.
<mgrwt>
<rscale>  0 0.22991947E+04</rscale>
<asrwt>0</asrwt>
<pdfrwt beam="1">  1        1 0.27669179E+00 0.22991947E+04</pdfrwt>
<pdfrwt beam="2">  1       -1 0.11304947E+00 0.22991947E+04</pdfrwt>
<totfact> 0.26394773E+00</totfact>
</mgrwt>
</event>
<event>
 6    1  0.1028026E-006  0.3536559E+03  0.7818608E-02  0.1061124E+00
          2   -1    0    0  501    0  0.00000000000E+00  0.00000000000E+00  0.93062928227E+03  0.93062928227E+03  0.00000000000E+00 0. -1.
         -2   -1    0    0    0  501 -0.00000000000E+00 -0.00000000000E+00 -0.33598908024E+02  0.33598908024E+02  0.00000000000E+00 0.  1.
         23    2    1    2    0    0 -0.10490476119E+03  0.36328073137E+02  0.81198767343E+03  0.82438185040E+03  0.89200424073E+02 0.  0.
         13    1    3    3    0    0 -0.93039308514E+02  0.23896859093E+02  0.37668937323E+03  0.38874446196E+03  0.00000000000E+00 0.  1.
        -13    1    3    3    0    0 -0.11865452679E+02  0.12431214044E+02  0.43529830020E+03  0.43563738844E+03  0.00000000000E+00 0. -1.
         22    1    1    2    0    0  0.10490476119E+03 -0.36328073137E+02  0.85042700820E+02  0.13984633989E+03  0.00000000000E+00 0.  1.
<mgrwt>
<rscale>  0 0.35365592E+03</rscale>
<asrwt>0</asrwt>
<pdfrwt beam="1">  1        2 0.14317372E+00 0.35365592E+03</pdfrwt>
<pdfrwt beam="2">  1       -2 0.51690635E-02 0.35365592E+03</pdfrwt>
<totfact> 0.54250545E+03</totfact>
</mgrwt>
</event>
<event>
 6    1  0.1028026E-006  0.1759486E+04  0.7818608E-02  0.8728146E-01
         -2   -1    0    0    0  501 -0.00000000000E+00  0.00000000000E+00  0.12134288938E+04  0.12134288938E+04  0.00000000000E+00 0.  1.
          2   -1    0    0  501    0  0.00000000000E+00 -0.00000000000E+00 -0.63781884507E+03  0.63781884507E+03  0.00000000000E+00 0. -1.
         23    2    1    2    0    0 -0.52347366398E+03  0.70170501265E+03  0.34989577082E+03  0.94716724636E+03  0.91017253766E+02 0.  0.
         13    1    3    3    0    0 -0.15076844491E+03  0.18177431847E+03  0.13663007497E+03  0.27283842145E+03  0.00000000000E+00 0.  1.
        -13    1    3    3    0    0 -0.37270521907E+03  0.51993069418E+03  0.21326569585E+03  0.67432882491E+03  0.00000000000E+00 0. -1.
         22    1    1    2    0    0  0.52347366398E+03 -0.70170501265E+03  0.22571427791E+03  0.90408049250E+03  0.00000000000E+00 0. -1.
<mgrwt>
<rscale>  0 0.17594861E+04</rscale>
<asrwt>0</asrwt>
<pdfrwt beam="1">  1        2 0.98125976E-01 0.17594861E+04</pdfrwt>
<pdfrwt beam="2">  1       -2 0.18668137E+00 0.17594861E+04</pdfrwt>
<totfact> 0.71082918E+00</totfact>
</mgrwt>
</event>
<event>
 6    1  0.1028026E-006  0.4106885E+04  0.7818608E-02  0.7983325E-01
         -2   -1    0    0    0  501 -0.00000000000E+00  0.00000000000E+00  0.15503847773E+04  0.15503847773E+04  0.00000000000E+00 0.  1.
          2   -1    0    0  501    0  0.00000000000E+00 -0.00000000000E+00 -0.27197288201E+04  0.27197288201E+04  0.00000000000E+00 0. -1.
         23    2    1    2    0    0  0.13465498038E+03  0.20368886949E+04 -0.80754098169E+03  0.21969640672E+04  0.86493677634E+02 0.  0.
         11    1    3    3    0    0  0.12730395145E+03  0.13999781999E+04 -0.53409311611E+03  0.15037954358E+04  0.00000000000E+00 0. -1.
        -11    1    3    3    0    0  0.73510289281E+01  0.63691049509E+03 -0.27344786558E+03  0.69316863141E+03  0.00000000000E+00 0.  1.
         22    1    1    2    0    0 -0.13465498038E+03 -0.20368886949E+04 -0.36180306107E+03  0.20731495301E+04  0.00000000000E+00 0.  1.
<mgrwt>
<rscale>  0 0.41068850E+04</rscale>
<asrwt>0</asrwt>
<pdfrwt beam="1">  1        2 0.41841982E+00 0.41068850E+04</pdfrwt>
<pdfrwt beam="2">  1       -2 0.23852074E+00 0.41068850E+04</pdfrwt>
<totfact> 0.15290173E-01</totfact>
</mgrwt>
</event>
<event>
 6    1  0.1028026E-006  0.6157826E+04  0.7818608E-02  0.7671135E-01
         -2   -1    0    0    0  501 -0.00000000000E+00  0.00000000000E+00  0.29027088958E+04  0.29027088958E+04  0.00000000000E+00 0.  1.
          2   -1    0    0  501    0  0.00000000000E+00 -0.00000000000E+00 -0.32658137922E+04  0.32658137922E+04  0.00000000000E+00 0. -1.
         23    2    1    2    0    0  0.63059224663E+03  0.37993657821E+03  0.28125032033E+04  0.29086936759E+04  0.91248269110E+02 0.  0.
         13    1    3    3    0    0  0.60505444619E+02  0.52101352592E+02  0.21863767132E+03  0.23276144675E+03  0.00000000000E+00 0. -1.
        -13    1    3    3    0    0  0.57008680201E+03  0.32783522562E+03  0.25938655320E+04  0.26759322291E+04  0.00000000000E+00 0.  1.
         22    1    1    2    0    0 -0.63059224663E+03 -0.37993657821E+03 -0.31756080998E+04  0.32598290121E+04  0.00000000000E+00 0. -1.
<mgrwt>
<rscale>  0 0.61578265E+04</rscale>
<asrwt>0</asrwt>
<pdfrwt beam="1">  1        2 0.50243289E+00 0.61578265E+04</pdfrwt>
<pdfrwt beam="2">  1       -2 0.44657060E+00 0.61578265E+04</pdfrwt>
<totfact> 0.28643589E-03</totfact>
</mgrwt>
</event>
<event>
 6    1  0.1028026E-006  0.1232066E+04  0.7818608E-02  0.9085243E-01
          2   -1    0    0  501    0  0.00000000000E+00  0.00000000000E+00  0.59363058179E+03  0.59363058179E+03  0.00000000000E+00 0. -1.
         -2   -1    0    0    0  501 -0.00000000000E+00 -0.00000000000E+00 -0.63928113021E+03  0.63928113021E+03  0.00000000000E+00 0.  1.
         23    2    1    2    0    0  0.13878963816E+03 -0.90246529949E+02 -0.61308123399E+03  0.64182408503E+03  0.93072857618E+02 0.  0.
         13    1    3    3    0    0  0.86262163760E+02 -0.47840213697E+02 -0.19714562108E+03  0.22044555530E+03  0.00000000000E+00 0.  1.
        -13    1    3    3    0    0  0.52527474399E+02 -0.42406316252E+02 -0.41593561292E+03  0.42137852973E+03  0.00000000000E+00 0. -1.
         22    1    1    2    0    0 -0.13878963816E+03  0.90246529949E+02  0.56743068557E+03  0.59108762697E+03  0.00000000000E+00 0. -1.
<mgrwt>
<rscale>  0 0.12320663E+04</rscale>
<asrwt>0</asrwt>
<pdfrwt beam="1">  1        2 0.91327782E-01 0.12320663E+04</pdfrwt>
<pdfrwt beam="2">  1       -2 0.98350943E-01 0.12320663E+04</pdfrwt>
<totfact> 0.42513864E+01</totfact>
</mgrwt>
</event>
<event>
 6    1  0.1028026E-006  0.2616116E+04  0.7818608E-02  0.8362747E-01
         -1   -1    0    0    0  501 -0.00000000000E+00  0.00000000000E+00  0.46425097112E+03  0.46425097112E+03  0.00000000000E+00 0.  1.
          1   -1    0    0  501    0  0.00000000000E+00 -0.00000000000E+00 -0.36855408230E+04  0.36855408230E+04  0.00000000000E+00 0. -1.
         23    2    1    2    0    0 -0.50059689249E+02 -0.12813014235E+04 -0.12159072012E+04  0.17694979287E+04  0.91941759006E+02 0.  0.
         11    1    3    3    0    0 -0.42629428496E+02 -0.76196801726E+03 -0.66340764697E+03  0.10111984145E+04  0.00000000000E+00 0. -1.
        -11    1    3    3    0    0 -0.74302607522E+01 -0.51933340629E+03 -0.55249955426E+03  0.75829951412E+03  0.00000000000E+00 0.  1.
         22    1    1    2    0    0  0.50059689249E+02  0.12813014235E+04 -0.20053826506E+04  0.23802938654E+04  0.00000000000E+00 0.  1.
<mgrwt>
<rscale>  0 0.26161161E+04</rscale>
<asrwt>0</asrwt>
<pdfrwt beam="1">  1        1 0.56700626E+00 0.26161161E+04</pdfrwt>
<pdfrwt beam="2">  1       -1 0.71423228E-01 0.26161161E+04</pdfrwt>
<totfact> 0.30888632E-01</totfact>
</mgrwt>
</event>
<event>
 6    1  0.1028026E-006  0.2720549E+04  0.7818608E-02  0.8328368E-01
         -2   -1    0    0    0  501 -0.00000000000E+00  0.00000000000E+00  0.75913455922E+03  0.75913455922E+03  0.00000000000E+00 0.  1.
          2   -1    0    0  501    0  0.00000000000E+00 -0.00000000000E+00 -0.24374430548E+04  0.24374430548E+04  0.00000000000E+00 0. -1.
         23    2    1    2    0    0 -0.13486362149E+04 -0.78349775317E+02 -0.66881994060E+03  0.15101537438E+04  0.91026861234E+02 0.  0.
         11    1    3    3    0    0 -0.12030221682E+04 -0.97983169352E+02 -0.59964938283E+03  0.13477545848E+04  0.00000000000E+00 0.  1.
        -11    1    3    3    0    0 -0.14561404671E+03  0.19633394035E+02 -0.69170557765E+02  0.16239915893E+03  0.00000000000E+00 0. -1.
         22    1    1    2    0    0  0.13486362149E+04  0.78349775317E+02 -0.10094885549E+04  0.16864238702E+04  0.00000000000E+00 0. -1.
<mgrwt>
<rscale>  0 0.27205494E+04</rscale>
<asrwt>0</asrwt>
<pdfrwt beam="1">  1        2 0.37499124E+00 0.27205494E+04</pdfrwt>
<pdfrwt beam="2">  1       -2 0.11678993E+00 0.27205494E+04</pdfrwt>
<totfact> 0.18809588E+00</totfact>
</mgrwt>
</event>
<event>
 6    1  0.1028026E-006  0.1169073E+04  0.7818608E-02  0.9140366E-01
         -1   -1    0    0    0  501 -0.00000000000E+00  0.00000000000E+00  0.41660757403E+03  0.41660757403E+03  0.00000000000E+00 0.  1.
          1   -1    0    0  501    0  0.00000000000E+00 -0.00000000000E+00 -0.82015601986E+03  0.82015601986E+03  0.00000000000E+00 0. -1.
         23    2    1    2    0    0 -0.32560746994E+03  0.45338400886E+03 -0.32610137356E+02  0.56656025709E+03  0.91377348846E+02 0.  0.
         11    1    3    3    0    0 -0.44224656347E+02  0.11779968734E+03  0.11762217927E+02  0.12637616998E+03  0.00000000000E+00 0. -1.
        -11    1    3    3    0    0 -0.28138281359E+03  0.33558432152E+03 -0.44372355283E+02  0.44018408711E+03  0.00000000000E+00 0.  1.
         22    1    1    2    0    0  0.32560746994E+03 -0.45338400886E+03 -0.37093830848E+03  0.67020333680E+03  0.00000000000E+00 0. -1.
<mgrwt>
<rscale>  0 0.11690735E+04</rscale>
<asrwt>0</asrwt>
<pdfrwt beam="1">  1        1 0.12617785E+00 0.11690735E+04</pdfrwt>
<pdfrwt beam="2">  1       -1 0.64093474E-01 0.11690735E+04</pdfrwt>
<totfact> 0.52009394E+01</totfact>
</mgrwt>
</event>
<event>
 6    1  0.1028026E-006  0.2401288E+04  0.7818608E-02  0.8439022E-01
          2   -1    0    0  501    0  0.00000000000E+00  0.00000000000E+00  0.28076867817E+04  0.28076867817E+04  0.00000000000E+00 0. -1.
         -2   -1    0    0    0  501 -0.00000000000E+00 -0.00000000000E+00 -0.51342825423E+03  0.51342825423E+03  0.00000000000E+00 0.  1.
         23    2    1    2    0    0  0.81294735007E+03  0.83707565321E+02 -0.64408794727E+02  0.82487748969E+03  0.91564347239E+02 0.  0.
         11    1    3    3    0    0  0.15873693150E+03  0.32808651504E+02 -0.45750400311E+02  0.16842482051E+03  0.00000000000E+00 0. -1.
        -11    1    3    3    0    0  0.65421041856E+03  0.50898913817E+02 -0.18658394415E+02  0.65645266917E+03  0.00000000000E+00 0.  1.
         22    1    1    2    0    0 -0.81294735007E+03 -0.83707565321E+02  0.23586673222E+04  0.24962375462E+04  0.00000000000E+00 0. -1.
<mgrwt>
<rscale>  0 0.24012878E+04</rscale>
<asrwt>0</asrwt>
<pdfrwt beam="1">  1        2 0.43195180E+00 0.24012878E+04</pdfrwt>
<pdfrwt beam="2">  1       -2 0.78988964E-01 0.24012878E+04</pdfrwt>
<totfact> 0.29262702E+00</totfact>
</mgrwt>
</event>
<event>
 6    1  0.1028026E-006  0.8236469E+03  0.7818608E-02  0.9526406E-01
          2   -1    0    0  501    0  0.00000000000E+00  0.00000000000E+00  0.94264598215E+03  0.94264598215E+03  0.00000000000E+00 0. -1.
         -2   -1    0    0    0  501 -0.00000000000E+00 -0.00000000000E+00 -0.17991753037E+03  0.17991753037E+03  0.00000000000E+00 0.  1.
         23    2    1    2    0    0 -0.24215979624E+03 -0.28178071213E+03  0.61174821588E+03  0.72151891616E+03  0.91169787163E+02 0.  0.
         13    1    3    3    0    0 -0.16312387444E+03 -0.17667671908E+03  0.30977472997E+03  0.39215359848E+03  0.00000000000E+00 0.  1.
        -13    1    3    3    0    0 -0.79035921806E+02 -0.10510399305E+03  0.30197348592E+03  0.32936531768E+03  0.00000000000E+00 0. -1.
         22    1    1    2    0    0  0.24215979624E+03  0.28178071213E+03  0.15098023589E+03  0.40104459636E+03  0.00000000000E+00 0.  1.
<mgrwt>
<rscale>  0 0.82364686E+03</rscale>
<asrwt>0</asrwt>
<pdfrwt beam="1">  1        2 0.14502246E+00 0.82364686E+03</pdfrwt>
<pdfrwt beam="2">  1       -2 0.27679621E-01 0.82364686E+03</pdfrwt>
<totfact> 0.32802756E+02</totfact>
</mgrwt>
</event>
<event>
 6    1  0.1028026E-006  0.2348080E+04  0.7818608E-02  0.8459201E-01
         -1   -1    0    0    0  501 -0.00000000000E+00  0.00000000000E+00  0.17585897775E+04  0.17585897775E+04  0.00000000000E+00 0.  1.
          1   -1    0    0  501    0  0.00000000000E+00 -0.00000000000E+00 -0.78379285431E+03  0.78379285431E+03  0.00000000000E+00 0. -1.
         23    2    1    2    0    0 -0.32256199655E+03  0.14270941860E+03  0.16986506751E+04  0.17371643547E+04  0.88958750691E+02 0.  0.
         13    1    3    3    0    0 -0.11283353594E+03  0.53189294739E+02  0.81860552984E+03  0.82805526470E+03  0.00000000000E+00 0.  1.
        -13    1    3    3    0    0 -0.20972846061E+03  0.89520123865E+02  0.88004514526E+03  0.90910908996E+03  0.00000000000E+00 0. -1.
         22    1    1    2    0    0  0.32256199655E+03 -0.14270941860E+03 -0.72385375188E+03  0.80521827717E+03  0.00000000000E+00 0. -1.
<mgrwt>
<rscale>  0 0.23480802E+04</rscale>
<asrwt>0</asrwt>
<pdfrwt beam="1">  1        1 0.12058352E+00 0.23480802E+04</pdfrwt>
<pdfrwt beam="2">  1       -1 0.27055227E+00 0.23480802E+04</pdfrwt>
<totfact> 0.10538680E+00</totfact>
</mgrwt>
</event>
<event>
 6    1  0.1028026E-006  0.3308736E+04  0.7818608E-02  0.8160676E-01
         -1   -1    0    0    0  501 -0.00000000000E+00  0.00000000000E+00  0.17123753557E+04  0.17123753557E+04  0.00000000000E+00 0.  1.
          1   -1    0    0  501    0  0.00000000000E+00 -0.00000000000E+00 -0.15983258565E+04  0.15983258565E+04  0.00000000000E+00 0. -1.
         23    2    1    2    0    0 -0.14046865753E+04  0.41495929156E+02 -0.81401607291E+03  0.16266073927E+04  0.91450292696E+02 0.  0.
         13    1    3    3    0    0 -0.72013560631E+03 -0.24455975047E+02 -0.41710765093E+03  0.83256962391E+03  0.00000000000E+00 0.  1.
        -13    1    3    3    0    0 -0.68455096898E+03  0.65951904202E+02 -0.39690842198E+03  0.79403776877E+03  0.00000000000E+00 0. -1.
         22    1    1    2    0    0  0.14046865753E+04 -0.41495929156E+02  0.92806557205E+03  0.16840938195E+04  0.00000000000E+00 0.  1.
<mgrwt>
<rscale>  0 0.33087362E+04</rscale>
<asrwt>0</asrwt>
<pdfrwt beam="1">  1        1 0.24589628E+00 0.33087362E+04</pdfrwt>
<pdfrwt beam="2">  1       -1 0.26344236E+00 0.33087362E+04</pdfrwt>
<totfact> 0.26433011E-01</totfact>
</mgrwt>
</event>
<event>
 6    1  0.1028026E-006  0.1461038E+04  0.7818608E-02  0.8910783E-01
         -2   -1    0    0    0  501 -0.00000000000E+00  0.00000000000E+00  0.26437511357E+03  0.26437511357E+03  0.00000000000E+00 0.  1.
          2   -1    0    0  501    0  0.00000000000E+00 -0.00000000000E+00 -0.20185649440E+04  0.20185649440E+04  0.00000000000E+00 0. -1.
         23    2    1    2    0    0 -0.19083199524E+03  0.65230369461E+03 -0.12868218228E+04  0.14581068532E+04  0.90819774177E+02 0.  0.
         13    1    3    3    0    0 -0.10344517496E+03  0.49491317957E+03 -0.94080457651E+03  0.10680604902E+04  0.00000000000E+00 0. -1.
        -13    1    3    3    0    0 -0.87386820279E+02  0.15739051504E+03 -0.34601724627E+03  0.39004636301E+03  0.00000000000E+00 0.  1.
         22    1    1    2    0    0  0.19083199524E+03 -0.65230369461E+03 -0.46736800762E+03  0.82483320433E+03  0.00000000000E+00 0.  1.
<mgrwt>
<rscale>  0 0.14610384E+04</rscale>
<asrwt>0</asrwt>
<pdfrwt beam="1">  1        2 0.31054845E+00 0.14610384E+04</pdfrwt>
<pdfrwt beam="2">  1       -2 0.40673095E-01 0.14610384E+04</pdfrwt>
<totfact> 0.36202308E+01</totfact>
</mgrwt>
</event>
<event>
 6    1  0.1028026E-006  0.4442199E+03  0.7818608E-02  0.1029460E+00
          2   -1    0    0  501    0  0.00000000000E+00  0.00000000000E+00  0.10997268417E+03  0.10997268417E+03  0.00000000000E+00 0. -1.
         -2   -1    0    0    0  501 -0.00000000000E+00 -0.00000000000E+00 -0.44859159653E+03  0.44859159653E+03  0.00000000000E+00 0.  1.
         23    2    1    2    0    0 -0.20838637785E+03  0.34230734100E+02 -0.20614316121E+03  0.30927238296E+03  0.92508260820E+02 0.  0.
         11    1    3    3    0    0 -0.18942815181E+03  0.44157957781E+02 -0.21136721212E+03  0.28724388295E+03  0.00000000000E+00 0. -1.
        -11    1    3    3    0    0 -0.18958226043E+02 -0.99272236803E+01  0.52240509166E+01  0.22028500009E+02  0.00000000000E+00 0.  1.
         22    1    1    2    0    0  0.20838637785E+03 -0.34230734100E+02 -0.13247575115E+03  0.24929189773E+03  0.00000000000E+00 0.  1.
<mgrwt>
<rscale>  0 0.44421986E+03</rscale>
<asrwt>0</asrwt>
<pdfrwt beam="1">  1        2 0.16918874E-01 0.44421986E+03</pdfrwt>
<pdfrwt beam="2">  1       -2 0.69014092E-01 0.44421986E+03</pdfrwt>
<totfact> 0.66842575E+02</totfact>
</mgrwt>
</event>
<event>
 6    1  0.1028026E-006  0.3889674E+04  0.7818608E-02  0.8027180E-01
         -2   -1    0    0    0  501 -0.00000000000E+00  0.00000000000E+00  0.16381439205E+04  0.16381439205E+04  0.00000000000E+00 0.  1.
          2   -1    0    0  501    0  0.00000000000E+00 -0.00000000000E+00 -0.23089491753E+04  0.23089491753E+04  0.00000000000E+00 0. -1.
         23    2    1    2    0    0  0.19383615497E+04  0.13312394227E+03 -0.27769692937E+03  0.19647960352E+04  0.91325758450E+02 0.  0.
         11    1    3    3    0    0  0.17955894874E+04  0.10301773393E+03 -0.24371783823E+03  0.18149800675E+04  0.00000000000E+00 0. -1.
        -11    1    3    3    0    0  0.14277206225E+03  0.30106208336E+02 -0.33979091140E+02  0.14981596769E+03  0.00000000000E+00 0.  1.
         22    1    1    2    0    0 -0.19383615497E+04 -0.13312394227E+03 -0.39310832539E+03  0.19822970607E+04  0.00000000000E+00 0. -1.
<mgrwt>
<rscale>  0 0.38896741E+04</rscale>
<asrwt>0</asrwt>
<pdfrwt beam="1">  1        2 0.35522295E+00 0.38896741E+04</pdfrwt>
<pdfrwt beam="2">  1       -2 0.25202214E+00 0.38896741E+04</pdfrwt>
<totfact> 0.22273319E-01</totfact>
</mgrwt>
</event>
<event>
 6    1  0.1028026E-006  0.2299108E+03  0.7818608E-02  0.1126703E+00
         -1   -1    0    0    0  501 -0.00000000000E+00  0.00000000000E+00  0.11160238525E+03  0.11160238525E+03  0.00000000000E+00 0.  1.
          1   -1    0    0  501    0  0.00000000000E+00 -0.00000000000E+00 -0.11840913929E+03  0.11840913929E+03  0.00000000000E+00 0. -1.
         23    2    1    2    0    0  0.33182370700E+02  0.91731991227E+02 -0.16303376355E+02  0.13200125072E+03  0.87422549561E+02 0.  0.
         13    1    3    3    0    0 -0.12344748629E+02  0.64594964723E+02  0.18837417392E+02  0.68408702518E+02  0.00000000000E+00 0. -1.
        -13    1    3    3    0    0  0.45527119329E+02  0.27137026504E+02 -0.35140793747E+02  0.63592548203E+02  0.00000000000E+00 0.  1.
         22    1    1    2    0    0 -0.33182370700E+02 -0.91731991227E+02  0.94966223185E+01  0.98010273825E+02  0.00000000000E+00 0.  1.
<mgrwt>
<rscale>  0 0.22991079E+03</rscale>
<asrwt>0</asrwt>
<pdfrwt beam="1">  1        1 0.18216791E-01 0.22991079E+03</pdfrwt>
<pdfrwt beam="2">  1       -1 0.17169598E-01 0.22991079E+03</pdfrwt>
<totfact> 0.73164063E+03</totfact>
</mgrwt>
</event>
<event>
 6    1  0.1028026E-006  0.1992072E+04  0.7818608E-02  0.8610336E-01
         -2   -1    0    0    0  501 -0.00000000000E+00  0.00000000000E+00  0.53974453925E+03  0.53974453925E+03  0.00000000000E+00 0.  1.
          2   -1    0    0  501    0  0.00000000000E+00 -0.00000000000E+00 -0.18380692991E+04  0.18380692991E+04  0.00000000000E+00 0. -1.
         23    2    1    2    0    0 -0.42523378825E+03  0.47506184770E+03 -0.15606459846E+04  0.16883793173E+04  0.92202472948E+02 0.  0.
         13    1    3    3    0    0 -0.18808729751E+03  0.15980380339E+03 -0.68024436428E+03  0.72363421851E+03  0.00000000000E+00 0.  1.
        -13    1    3    3    0    0 -0.23714649074E+03  0.31525804431E+03 -0.88040162034E+03  0.96474509880E+03  0.00000000000E+00 0. -1.
         22    1    1    2    0    0  0.42523378825E+03 -0.47506184770E+03  0.26232122477E+03  0.68943452102E+03  0.00000000000E+00 0.  1.
<mgrwt>
<rscale>  0 0.19920722E+04</rscale>
<asrwt>0</asrwt>
<pdfrwt beam="1">  1        2 0.28277989E+00 0.19920722E+04</pdfrwt>
<pdfrwt beam="2">  1       -2 0.83037621E-01 0.19920722E+04</pdfrwt>
<totfact> 0.97079044E+00</totfact>
</mgrwt>
</event>
<event>
 6    1  0.1028026E-006  0.3030106E+04  0.7818608E-02  0.8235186E-01
          2   -1    0    0  501    0  0.00000000000E+00  0.00000000000E+00  0.10375866652E+04  0.10375866652E+04  0.00000000000E+00 0. -1.
         -2   -1    0    0    0  501 -0.00000000000E+00 -0.00000000000E+00 -0.22122355018E+04  0.22122355018E+04  0.00000000000E+00 0.  1.
         23    2    1    2    0    0 -0.33525923266E+03  0.93079149632E+03  0.64075606829E+03  0.11823438645E+04  0.92720613349E+02 0.  0.
         13    1    3    3    0    0 -0.14098864358E+03  0.36290573696E+03  0.30533873400E+03  0.49478289584E+03  0.00000000000E+00 0. -1.
        -13    1    3    3    0    0 -0.19427058908E+03  0.56788575936E+03  0.33541733429E+03  0.68756096865E+03  0.00000000000E+00 0.  1.
         22    1    1    2    0    0  0.33525923266E+03 -0.93079149632E+03 -0.18154049049E+04  0.20674783026E+04  0.00000000000E+00 0.  1.
<mgrwt>
<rscale>  0 0.30301063E+04</rscale>
<asrwt>0</asrwt>
<pdfrwt beam="1">  1        2 0.15962872E+00 0.30301063E+04</pdfrwt>
<pdfrwt beam="2">  1       -2 0.34034393E+00 0.30301063E+04</pdfrwt>
<totfact> 0.36406298E-01</totfact>
</mgrwt>
</event>
<event>
 6    1  0.1028026E-006  0.1015750E+04  0.7818608E-02  0.9291437E-01
          1   -1    0    0  501    0  0.00000000000E+00  0.00000000000E+00  0.17461380127E+04  0.17461380127E+04  0.00000000000E+00 0. -1.
         -1   -1    0    0    0  501 -0.00000000000E+00 -0.00000000000E+00 -0.14771861674E+03  0.14771861674E+03  0.00000000000E+00 0.  1.
         23    2    1    2    0    0 -0.41050104108E+03  0.10049416649E+03  0.13164472231E+04  0.13858030019E+04  0.93842882413E+02 0.  0.
         11    1    3    3    0    0 -0.30972922806E+03  0.11104746164E+03  0.10663793658E+04  0.11159877622E+04  0.00000000000E+00 0.  1.
        -11    1    3    3    0    0 -0.10077181302E+03 -0.10553295150E+02  0.25006785729E+03  0.26981523972E+03  0.00000000000E+00 0. -1.
         22    1    1    2    0    0  0.41050104108E+03 -0.10049416649E+03  0.28197217290E+03  0.50805362760E+03  0.00000000000E+00 0.  1.
<mgrwt>
<rscale>  0 0.10157502E+04</rscale>
<asrwt>0</asrwt>
<pdfrwt beam="1">  1        1 0.26863660E+00 0.10157502E+04</pdfrwt>
<pdfrwt beam="2">  1       -1 0.22725942E-01 0.10157502E+04</pdfrwt>
<totfact> 0.73330920E+01</totfact>
</mgrwt>
</event>
<event>
 6    1  0.1028026E-006  0.2474014E+04  0.7818608E-02  0.8412302E-01
          2   -1    0    0  501    0  0.00000000000E+00  0.00000000000E+00  0.17471874671E+04  0.17471874671E+04  0.00000000000E+00 0. -1.
         -2   -1    0    0    0  501 -0.00000000000E+00 -0.00000000000E+00 -0.87579960594E+03  0.87579960594E+03  0.00000000000E+00 0.  1.
         23    2    1    2    0    0 -0.11862454522E+04 -0.30023004881E+03  0.25454004054E+03  0.12526522275E+04  0.83848767442E+02 0.  0.
         13    1    3    3    0    0 -0.62157538462E+03 -0.20034251177E+03  0.13224012724E+03  0.66631864153E+03  0.00000000000E+00 0. -1.
        -13    1    3    3    0    0 -0.56467006756E+03 -0.99887537038E+02  0.12229991331E+03  0.58633358598E+03  0.00000000000E+00 0.  1.
         22    1    1    2    0    0  0.11862454522E+04  0.30023004881E+03  0.61684782057E+03  0.13703348455E+04  0.00000000000E+00 0.  1.
<mgrwt>
<rscale>  0 0.24740138E+04</rscale>
<asrwt>0</asrwt>
<pdfrwt beam="1">  1        2 0.26879807E+00 0.24740138E+04</pdfrwt>
<pdfrwt beam="2">  1       -2 0.13473840E+00 0.24740138E+04</pdfrwt>
<totfact> 0.32718495E+00</totfact>
</mgrwt>
</event>
<event>
 6    1  0.1028026E-006  0.2732858E+04  0.7818608E-02  0.8324422E-01
         -2   -1    0    0    0  501 -0.00000000000E+00  0.00000000000E+00  0.18190758171E+04  0.18190758171E+04  0.00000000000E+00 0.  1.
          2   -1    0    0  501    0  0.00000000000E+00 -0.00000000000E+00 -0.10264158251E+04  0.10264158251E+04  0.00000000000E+00 0. -1.
         23    2    1    2    0    0  0.12198934054E+04 -0.17324484273E+03  0.10080737804E+04  0.15946691944E+04  0.92754496820E+02 0.  0.
         11    1    3    3    0    0  0.78106660866E+03 -0.11629447648E+03  0.70229240947E+03  0.10567895159E+04  0.00000000000E+00 0.  1.
        -11    1    3    3    0    0  0.43882679673E+03 -0.56950366244E+02  0.30578137091E+03  0.53787967849E+03  0.00000000000E+00 0. -1.
         22    1    1    2    0    0 -0.12198934054E+04  0.17324484273E+03 -0.21541378837E+03  0.12508224479E+04  0.00000000000E+00 0.  1.
<mgrwt>
<rscale>  0 0.27328580E+04</rscale>
<asrwt>0</asrwt>
<pdfrwt beam="1">  1        2 0.15791013E+00 0.27328580E+04</pdfrwt>
<pdfrwt beam="2">  1       -2 0.27985782E+00 0.27328580E+04</pdfrwt>
<totfact> 0.89443339E-01</totfact>
</mgrwt>
</event>
<event>
 6    1  0.1028026E-006  0.1278702E+04  0.7818608E-02  0.9046627E-01
         -3   -1    0    0    0  501 -0.00000000000E+00  0.00000000000E+00  0.74694276311E+03  0.74694276311E+03  0.00000000000E+00 0.  1.
          3   -1    0    0  501    0  0.00000000000E+00 -0.00000000000E+00 -0.54725723709E+03  0.54725723709E+03  0.00000000000E+00 0. -1.
         23    2    1    2    0    0 -0.30848341701E+03 -0.27518194105E+02  0.66269607535E+03  0.73715598185E+03  0.91178855609E+02 0.  0.
         13    1    3    3    0    0 -0.20215438907E+03  0.28030642988E+01  0.33466937291E+03  0.39099596335E+03  0.00000000000E+00 0. -1.
        -13    1    3    3    0    0 -0.10632902794E+03 -0.30321258404E+02  0.32802670244E+03  0.34616001850E+03  0.00000000000E+00 0.  1.
         22    1    1    2    0    0  0.30848341701E+03  0.27518194105E+02 -0.46301054933E+03  0.55704401834E+03  0.00000000000E+00 0. -1.
<mgrwt>
<rscale>  0 0.12787022E+04</rscale>
<asrwt>0</asrwt>
<pdfrwt beam="1">  1        3 0.84193421E-01 0.12787022E+04</pdfrwt>
<pdfrwt beam="2">  1       -3 0.11491427E+00 0.12787022E+04</pdfrwt>
<totfact> 0.20964977E+00</totfact>
</mgrwt>
</event>
<event>
 6    1  0.1028026E-006  0.4056909E+03  0.7818608E-02  0.1041827E+00
          1   -1    0    0  501    0  0.00000000000E+00  0.00000000000E+00  0.80129000245E+03  0.80129000245E+03  0.00000000000E+00 0. -1.
         -1   -1    0    0    0  501 -0.00000000000E+00 -0.00000000000E+00 -0.51350034561E+02  0.51350034561E+02  0.00000000000E+00 0.  1.
         23    2    1    2    0    0  0.51506166116E+02  0.17262846754E+03  0.24942422925E+03  0.32069128235E+03  0.90426652531E+02 0.  0.
         13    1    3    3    0    0  0.63770360348E+02  0.81442970158E+02  0.17073289922E+03  0.19962299247E+03  0.00000000000E+00 0. -1.
        -13    1    3    3    0    0 -0.12264194232E+02  0.91185497384E+02  0.78691330023E+02  0.12106828988E+03  0.00000000000E+00 0.  1.
         22    1    1    2    0    0 -0.51506166116E+02 -0.17262846754E+03  0.50051573864E+03  0.53194875466E+03  0.00000000000E+00 0.  1.
<mgrwt>
<rscale>  0 0.40569086E+03</rscale>
<asrwt>0</asrwt>
<pdfrwt beam="1">  1        1 0.12327538E+00 0.40569086E+03</pdfrwt>
<pdfrwt beam="2">  1       -1 0.79000059E-02 0.40569086E+03</pdfrwt>
<totfact> 0.20224464E+03</totfact>
</mgrwt>
</event>
<event>
 6    1  0.1028026E-006  0.2060489E+04  0.7818608E-02  0.8578851E-01
          2   -1    0    0  501    0  0.00000000000E+00  0.00000000000E+00  0.60252162335E+03  0.60252162335E+03  0.00000000000E+00 0. -1.
         -2   -1    0    0    0  501 -0.00000000000E+00 -0.00000000000E+00 -0.17616026322E+04  0.17616026322E+04  0.00000000000E+00 0.  1.
         23    2    1    2    0    0  0.56075661820E+03 -0.65776790144E+03  0.58567156316E+02  0.87088159236E+03  0.88870912538E+02 0.  0.
         13    1    3    3    0    0  0.36213187615E+03 -0.48626015922E+03  0.49334011500E+02  0.60829456915E+03  0.00000000000E+00 0. -1.
        -13    1    3    3    0    0  0.19862474205E+03 -0.17150774223E+03  0.92331448158E+01  0.26258702321E+03  0.00000000000E+00 0.  1.
         22    1    1    2    0    0 -0.56075661820E+03  0.65776790144E+03 -0.12176481652E+04  0.14932426632E+04  0.00000000000E+00 0.  1.
<mgrwt>
<rscale>  0 0.20604889E+04</rscale>
<asrwt>0</asrwt>
<pdfrwt beam="1">  1        2 0.92695634E-01 0.20604889E+04</pdfrwt>
<pdfrwt beam="2">  1       -2 0.27101579E+00 0.20604889E+04</pdfrwt>
<totfact> 0.21801007E+00</totfact>
</mgrwt>
</event>
<event>
 6    1  0.1028026E-006  0.3760265E+04  0.7818608E-02  0.8054736E-01
         -2   -1    0    0    0  501 -0.00000000000E+00  0.00000000000E+00  0.23779864135E+04  0.23779864135E+04  0.00000000000E+00 0.  1.
          2   -1    0    0  501    0  0.00000000000E+00 -0.00000000000E+00 -0.14865093391E+04  0.14865093391E+04  0.00000000000E+00 0. -1.
         23    2    1    2    0    0 -0.82821337565E+03  0.39114839356E+03 -0.12400498579E+04  0.15445083550E+04  0.94063528168E+02 0.  0.
         13    1    3    3    0    0 -0.57394897333E+03  0.28915490209E+03 -0.93407251871E+03  0.11338075020E+04  0.00000000000E+00 0.  1.
        -13    1    3    3    0    0 -0.25426440232E+03  0.10199349148E+03 -0.30597733917E+03  0.41070085303E+03  0.00000000000E+00 0. -1.
         22    1    1    2    0    0  0.82821337565E+03 -0.39114839356E+03  0.21315269323E+04  0.23199873975E+04  0.00000000000E+00 0.  1.
<mgrwt>
<rscale>  0 0.37602654E+04</rscale>
<asrwt>0</asrwt>
<pdfrwt beam="1">  1        2 0.22869374E+00 0.37602654E+04</pdfrwt>
<pdfrwt beam="2">  1       -2 0.36584406E+00 0.37602654E+04</pdfrwt>
<totfact> 0.12820476E-01</totfact>
</mgrwt>
</event>
<event>
 6    1  0.1028026E-006  0.2088787E+04  0.7818608E-02  0.8566199E-01
         -1   -1    0    0    0  501 -0.00000000000E+00  0.00000000000E+00  0.19580481948E+04  0.19580481948E+04  0.00000000000E+00 0.  1.
          1   -1    0    0  501    0  0.00000000000E+00 -0.00000000000E+00 -0.55706407245E+03  0.55706407245E+03  0.00000000000E+00 0. -1.
         23    2    1    2    0    0 -0.32588892631E+03  0.93719647799E+03  0.31719906913E+03  0.10457141346E+04  0.91443814692E+02 0.  0.
         11    1    3    3    0    0 -0.52675787205E-01  0.69078021079E+02  0.18010837028E+02  0.71387436019E+02  0.00000000000E+00 0. -1.
        -11    1    3    3    0    0 -0.32583625052E+03  0.86811845691E+03  0.29918823210E+03  0.97432669860E+03  0.00000000000E+00 0.  1.
         22    1    1    2    0    0  0.32588892631E+03 -0.93719647799E+03  0.10837850533E+04  0.14693981327E+04  0.00000000000E+00 0. -1.
<mgrwt>
<rscale>  0 0.20887875E+04</rscale>
<asrwt>0</asrwt>
<pdfrwt beam="1">  1        1 0.85702166E-01 0.20887875E+04</pdfrwt>
<pdfrwt beam="2">  1       -1 0.30123818E+00 0.20887875E+04</pdfrwt>
<totfact> 0.11375870E+00</totfact>
</mgrwt>
</event>
<event>
 6    1  0.1028026E-006  0.1702461E+04  0.7818608E-02  0.8759962E-01
          1   -1    0    0  501    0  0.00000000000E+00  0.00000000000E+00  0.72652633141E+03  0.72652633141E+03  0.00000000000E+00 0. -1.
         -1   -1    0    0    0  501 -0.00000000000E+00 -0.00000000000E+00 -0.99733896021E+03  0.99733896021E+03  0.00000000000E+00 0.  1.
         23    2    1    2    0    0  0.50342338660E+03 -0.30262450094E+03  0.48398332135E+03  0.76744821676E+03  0.98591152352E+02 0.  0.
         11    1    3    3    0    0  0.12270039515E+03 -0.33373307155E+02  0.78041281275E+02  0.14919653543E+03  0.00000000000E+00 0. -1.
        -11    1    3    3    0    0  0.38072299144E+03 -0.26925119378E+03  0.40594204007E+03  0.61825168133E+03  0.00000000000E+00 0.  1.
         22    1    1    2    0    0 -0.50342338660E+03  0.30262450094E+03 -0.75479595015E+03  0.95641707487E+03  0.00000000000E+00 0.  1.
<mgrwt>
<rscale>  0 0.17024606E+04</rscale>
<asrwt>0</asrwt>
<pdfrwt beam="1">  1        1 0.11177328E+00 0.17024606E+04</pdfrwt>
<pdfrwt beam="2">  1       -1 0.15343676E+00 0.17024606E+04</pdfrwt>
<totfact> 0.80332345E+00</totfact>
</mgrwt>
</event>
<event>
 6    1  0.1028026E-006  0.1624827E+04  0.7818608E-02  0.8805439E-01
          2   -1    0    0  501    0  0.00000000000E+00  0.00000000000E+00  0.62465568747E+03  0.62465568747E+03  0.00000000000E+00 0. -1.
         -2   -1    0    0    0  501 -0.00000000000E+00 -0.00000000000E+00 -0.10566071975E+04  0.10566071975E+04  0.00000000000E+00 0.  1.
         23    2    1    2    0    0 -0.41798971143E+03  0.15874014798E+03 -0.91528703451E+03  0.10228351647E+04  0.92344925371E+02 0.  0.
         13    1    3    3    0    0 -0.19579407028E+03  0.61951591377E+02 -0.52104632919E+03  0.56005588542E+03  0.00000000000E+00 0.  1.
        -13    1    3    3    0    0 -0.22219564115E+03  0.96788556605E+02 -0.39424070532E+03  0.46277927932E+03  0.00000000000E+00 0. -1.
         22    1    1    2    0    0  0.41798971143E+03 -0.15874014798E+03  0.48333552452E+03  0.65842772018E+03  0.00000000000E+00 0. -1.
<mgrwt>
<rscale>  0 0.16248270E+04</rscale>
<asrwt>0</asrwt>
<pdfrwt beam="1">  1        2 0.96100875E-01 0.16248270E+04</pdfrwt>
<pdfrwt beam="2">  1       -2 0.16255495E+00 0.16248270E+04</pdfrwt>
<totfact> 0.10893186E+01</totfact>
</mgrwt>
</event>
<event>
 6    1  0.1028026E-006  0.2889892E+04  0.7818608E-02  0.8275891E-01
         -1   -1    0    0    0  501 -0.00000000000E+00  0.00000000000E+00  0.88322310569E+03  0.88322310569E+03  0.00000000000E+00 0.  1.
          1   -1    0    0  501    0  0.00000000000E+00 -0.00000000000E+00 -0.23639202384E+04  0.23639202384E+04  0.00000000000E+00 0. -1.
         23    2    1    2    0    0  0.12388989785E+04 -0.30433592423E+03  0.17603486914E+02  0.12793029592E+04  0.93889004136E+02 0.  0.
         13    1    3    3    0    0  0.32881628049E+03 -0.49400411919E+02  0.32317403080E+02  0.33407328770E+03  0.00000000000E+00 0.  1.
        -13    1    3    3    0    0  0.91008269796E+03 -0.25493551232E+03 -0.14713916166E+02  0.94522967151E+03  0.00000000000E+00 0. -1.
         22    1    1    2    0    0 -0.12388989785E+04  0.30433592423E+03 -0.14983006196E+04  0.19678403849E+04  0.00000000000E+00 0. -1.
<mgrwt>
<rscale>  0 0.28898920E+04</rscale>
<asrwt>0</asrwt>
<pdfrwt beam="1">  1        1 0.36368003E+00 0.28898920E+04</pdfrwt>
<pdfrwt beam="2">  1       -1 0.13588048E+00 0.28898920E+04</pdfrwt>
<totfact> 0.65448690E-01</totfact>
</mgrwt>
</event>
<event>
 6    1  0.1028026E-006  0.3850266E+04  0.7818608E-02  0.8035453E-01
         -2   -1    0    0    0  501 -0.00000000000E+00  0.00000000000E+00  0.15098735847E+04  0.15098735847E+04  0.00000000000E+00 0.  1.
          2   -1    0    0  501    0  0.00000000000E+00 -0.00000000000E+00 -0.24546010735E+04  0.24546010735E+04  0.00000000000E+00 0. -1.
         23    2    1    2    0    0  0.47114969950E+03  0.16921198337E+04 -0.12812833761E+04  0.21760335951E+04  0.90462956373E+02 0.  0.
         11    1    3    3    0    0  0.33079219715E+03  0.12771050548E+04 -0.99968217829E+03  0.16552296688E+04  0.00000000000E+00 0. -1.
        -11    1    3    3    0    0  0.14035750236E+03  0.41501477883E+03 -0.28160119781E+03  0.52080392637E+03  0.00000000000E+00 0.  1.
         22    1    1    2    0    0 -0.47114969950E+03 -0.16921198337E+04  0.33655588736E+03  0.17884410631E+04  0.00000000000E+00 0.  1.
<mgrwt>
<rscale>  0 0.38502661E+04</rscale>
<asrwt>0</asrwt>
<pdfrwt beam="1">  1        2 0.37763093E+00 0.38502661E+04</pdfrwt>
<pdfrwt beam="2">  1       -2 0.23228825E+00 0.38502661E+04</pdfrwt>
<totfact> 0.24429690E-01</totfact>
</mgrwt>
</event>
<event>
 6    1  0.1028026E-006  0.1342396E+04  0.7818608E-02  0.8996605E-01
          1   -1    0    0  501    0  0.00000000000E+00  0.00000000000E+00  0.11526010668E+04  0.11526010668E+04  0.00000000000E+00 0. -1.
         -1   -1    0    0    0  501 -0.00000000000E+00 -0.00000000000E+00 -0.39086074638E+03  0.39086074638E+03  0.00000000000E+00 0.  1.
         23    2    1    2    0    0  0.41497864665E+03 -0.55114320274E+02 -0.21607194238E+03  0.47980694116E+03  0.91009620516E+02 0.  0.
         11    1    3    3    0    0  0.26480107225E+02  0.20249927788E+01 -0.43311981909E+02  0.50805752148E+02  0.00000000000E+00 0.  1.
        -11    1    3    3    0    0  0.38849853943E+03 -0.57139313053E+02 -0.17275996047E+03  0.42900118901E+03  0.00000000000E+00 0. -1.
         22    1    1    2    0    0 -0.41497864665E+03  0.55114320274E+02  0.97781226281E+03  0.10636548720E+04  0.00000000000E+00 0. -1.
<mgrwt>
<rscale>  0 0.13423956E+04</rscale>
<asrwt>0</asrwt>
<pdfrwt beam="1">  1        1 0.17732324E+00 0.13423956E+04</pdfrwt>
<pdfrwt beam="2">  1       -1 0.60132423E-01 0.13423956E+04</pdfrwt>
<totfact> 0.31804985E+01</totfact>
</mgrwt>
</event>
<event>
 6    1  0.1028026E-006  0.1808738E+04  0.7818608E-02  0.8701666E-01
         -2   -1    0    0    0  501 -0.00000000000E+00  0.00000000000E+00  0.53106204858E+03  0.53106204858E+03  0.00000000000E+00 0.  1.
          2   -1    0    0  501    0  0.00000000000E+00 -0.00000000000E+00 -0.15400905292E+04  0.15400905292E+04  0.00000000000E+00 0. -1.
         23    2    1    2    0    0 -0.77783290806E+03  0.26555184658E+03 -0.81246140437E+02  0.83166805312E+03  0.97616592713E+02 0.  0.
         13    1    3    3    0    0 -0.32043434565E+03  0.16036647627E+03 -0.38657510786E+02  0.36040252458E+03  0.00000000000E+00 0. -1.
        -13    1    3    3    0    0 -0.45739856241E+03  0.10518537031E+03 -0.42588629651E+02  0.47126552855E+03  0.00000000000E+00 0.  1.
         22    1    1    2    0    0  0.77783290806E+03 -0.26555184658E+03 -0.92778234017E+03  0.12394845246E+04  0.00000000000E+00 0. -1.
<mgrwt>
<rscale>  0 0.18087384E+04</rscale>
<asrwt>0</asrwt>
<pdfrwt beam="1">  1        2 0.23693700E+00 0.18087384E+04</pdfrwt>
<pdfrwt beam="2">  1       -2 0.81701855E-01 0.18087384E+04</pdfrwt>
<totfact> 0.14984711E+01</totfact>
</mgrwt>
</event>
<event>
 6    1  0.1028026E-006  0.2478412E+04  0.7818608E-02  0.8410717E-01
         -1   -1    0    0    0  501 -0.00000000000E+00  0.00000000000E+00  0.72978339555E+03  0.72978339555E+03  0.00000000000E+00 0.  1.
          1   -1    0    0  501    0  0.00000000000E+00 -0.00000000000E+00 -0.21042290818E+04  0.21042290818E+04  0.00000000000E+00 0. -1.
         23    2    1    2    0    0 -0.15494779639E+03  0.11051523509E+04 -0.75713416858E+02  0.11216818884E+04  0.84066635099E+02 0.  0.
         13    1    3    3    0    0 -0.58860950885E+02  0.67757054551E+03 -0.66157669484E+02  0.68333249075E+03  0.00000000000E+00 0. -1.
        -13    1    3    3    0    0 -0.96086845500E+02  0.42758180535E+03 -0.95557473734E+01  0.43834939768E+03  0.00000000000E+00 0.  1.
         22    1    1    2    0    0  0.15494779639E+03 -0.11051523509E+04 -0.12987322694E+04  0.17123305889E+04  0.00000000000E+00 0. -1.
<mgrwt>
<rscale>  0 0.24784119E+04</rscale>
<asrwt>0</asrwt>
<pdfrwt beam="1">  1        1 0.32372755E+00 0.24784119E+04</pdfrwt>
<pdfrwt beam="2">  1       -1 0.11227437E+00 0.24784119E+04</pdfrwt>
<totfact> 0.16376942E+00</totfact>
</mgrwt>
</event>
<event>
 6    1  0.1028026E-006  0.1762414E+04  0.7818608E-02  0.8726546E-01
          1   -1    0    0  501    0  0.00000000000E+00  0.00000000000E+00  0.87828237878E+03  0.87828237878E+03  0.00000000000E+00 0. -1.
         -1   -1    0    0    0  501 -0.00000000000E+00 -0.00000000000E+00 -0.88414157846E+03  0.88414157846E+03  0.00000000000E+00 0.  1.
         23    2    1    2    0    0  0.16169457281E+03 -0.48659126959E+03  0.71073474841E+03  0.88127522691E+03  0.92660371442E+02 0.  0.
         11    1    3    3    0    0  0.20912077695E+02 -0.19959767721E+03  0.25203404452E+03  0.32217651580E+03  0.00000000000E+00 0.  1.
        -11    1    3    3    0    0  0.14078249511E+03 -0.28699359239E+03  0.45870070390E+03  0.55909871110E+03  0.00000000000E+00 0. -1.
         22    1    1    2    0    0 -0.16169457281E+03  0.48659126959E+03 -0.71659394810E+03  0.88114873034E+03  0.00000000000E+00 0.  1.
<mgrwt>
<rscale>  0 0.17624142E+04</rscale>
<asrwt>0</asrwt>
<pdfrwt beam="1">  1        1 0.13512037E+00 0.17624142E+04</pdfrwt>
<pdfrwt beam="2">  1       -1 0.13602178E+00 0.17624142E+04</pdfrwt>
<totfact> 0.81118210E+00</totfact>
</mgrwt>
</event>
<event>
 6    1  0.1028026E-006  0.5463653E+04  0.7818608E-02  0.7760710E-01
          3   -1    0    0  501    0  0.00000000000E+00  0.00000000000E+00  0.39282310279E+04  0.39282310279E+04  0.00000000000E+00 0. -1.
         -3   -1    0    0    0  501 -0.00000000000E+00 -0.00000000000E+00 -0.18998060114E+04  0.18998060114E+04  0.00000000000E+00 0.  1.
         23    2    1    2    0    0 -0.84433943345E+03  0.17015570389E+04  0.31076318302E+04  0.36433419158E+04  0.91429141353E+02 0.  0.
         13    1    3    3    0    0 -0.48889750161E+03  0.88567407783E+03  0.16744184380E+04  0.19563017264E+04  0.00000000000E+00 0. -1.
        -13    1    3    3    0    0 -0.35544193184E+03  0.81588296105E+03  0.14332133922E+04  0.16870401894E+04  0.00000000000E+00 0.  1.
         22    1    1    2    0    0  0.84433943345E+03 -0.17015570389E+04 -0.10792068138E+04  0.21846951234E+04  0.00000000000E+00 0.  1.
<mgrwt>
<rscale>  0 0.54636533E+04</rscale>
<asrwt>0</asrwt>
<pdfrwt beam="1">  1        3 0.60434323E+00 0.54636533E+04</pdfrwt>
<pdfrwt beam="2">  1       -3 0.29227785E+00 0.54636533E+04</pdfrwt>
<totfact> 0.81130704E-05</totfact>
</mgrwt>
</event>
<event>
 6    1  0.1028026E-006  0.2678213E+04  0.7818608E-02  0.8342109E-01
         -1   -1    0    0    0  501 -0.00000000000E+00  0.00000000000E+00  0.74076588788E+03  0.74076588788E+03  0.00000000000E+00 0.  1.
          1   -1    0    0  501    0  0.00000000000E+00 -0.00000000000E+00 -0.24207468750E+04  0.24207468750E+04  0.00000000000E+00 0. -1.
         23    2    1    2    0    0  0.10447124173E+04  0.45184467825E+03 -0.16701682168E+04  0.20232316295E+04  0.91742607238E+02 0.  0.
         13    1    3    3    0    0  0.63013707689E+03  0.28840870373E+03 -0.94043727337E+03  0.11681928699E+04  0.00000000000E+00 0.  1.
        -13    1    3    3    0    0  0.41457534046E+03  0.16343597452E+03 -0.72973094342E+03  0.85503875963E+03  0.00000000000E+00 0. -1.
         22    1    1    2    0    0 -0.10447124173E+04 -0.45184467825E+03 -0.98127703429E+01  0.11382811334E+04  0.00000000000E+00 0. -1.
<mgrwt>
<rscale>  0 0.26782134E+04</rscale>
<asrwt>0</asrwt>
<pdfrwt beam="1">  1        1 0.37242259E+00 0.26782134E+04</pdfrwt>
<pdfrwt beam="2">  1       -1 0.11396398E+00 0.26782134E+04</pdfrwt>
<totfact> 0.94289755E-01</totfact>
</mgrwt>
</event>
<event>
 6    1  0.1028026E-006  0.1424615E+04  0.7818608E-02  0.8936191E-01
          1   -1    0    0  501    0  0.00000000000E+00  0.00000000000E+00  0.47727484035E+03  0.47727484035E+03  0.00000000000E+00 0. -1.
         -1   -1    0    0    0  501 -0.00000000000E+00 -0.00000000000E+00 -0.10630818277E+04  0.10630818277E+04  0.00000000000E+00 0.  1.
         23    2    1    2    0    0  0.61593595424E+03 -0.25561456578E+03 -0.32305699104E+02  0.67370819141E+03  0.90128591526E+02 0.  0.
         11    1    3    3    0    0  0.45572862156E+03 -0.22442319384E+03 -0.45120603606E+02  0.50999040708E+03  0.00000000000E+00 0. -1.
        -11    1    3    3    0    0  0.16020733268E+03 -0.31191371937E+02  0.12814904502E+02  0.16371778433E+03  0.00000000000E+00 0.  1.
         22    1    1    2    0    0 -0.61593595424E+03  0.25561456578E+03 -0.55350128822E+03  0.86664847662E+03  0.00000000000E+00 0.  1.
<mgrwt>
<rscale>  0 0.14246153E+04</rscale>
<asrwt>0</asrwt>
<pdfrwt beam="1">  1        1 0.73426900E-01 0.14246153E+04</pdfrwt>
<pdfrwt beam="2">  1       -1 0.16355105E+00 0.14246153E+04</pdfrwt>
<totfact> 0.12635090E+01</totfact>
</mgrwt>
</event>
<event>
 6    1  0.1028026E-006  0.2841513E+04  0.7818608E-02  0.8290495E-01
         -1   -1    0    0    0  501 -0.00000000000E+00  0.00000000000E+00  0.17098800677E+04  0.17098800677E+04  0.00000000000E+00 0.  1.
          1   -1    0    0  501    0  0.00000000000E+00 -0.00000000000E+00 -0.11805209717E+04  0.11805209717E+04  0.00000000000E+00 0. -1.
         23    2    1    2    0    0 -0.14175572116E+04  0.58157122247E+02  0.22906243633E+03  0.14402187120E+04  0.94390886873E+02 0.  0.
         11    1    3    3    0    0 -0.28038519913E+03  0.45025244843E+02  0.63395738098E+02  0.29096761362E+03  0.00000000000E+00 0. -1.
        -11    1    3    3    0    0 -0.11371720125E+04  0.13131877404E+02  0.16566669823E+03  0.11492510984E+04  0.00000000000E+00 0.  1.
         22    1    1    2    0    0  0.14175572116E+04 -0.58157122247E+02  0.30029665970E+03  0.14501823275E+04  0.00000000000E+00 0.  1.
<mgrwt>
<rscale>  0 0.28415132E+04</rscale>
<asrwt>0</asrwt>
<pdfrwt beam="1">  1        1 0.18161861E+00 0.28415132E+04</pdfrwt>
<pdfrwt beam="2">  1       -1 0.26305847E+00 0.28415132E+04</pdfrwt>
<totfact> 0.54602098E-01</totfact>
</mgrwt>
</event>
<event>
 6    1  0.1028026E-006  0.1812591E+04  0.7818608E-02  0.8699632E-01
          3   -1    0    0  501    0  0.00000000000E+00  0.00000000000E+00  0.99823276468E+03  0.99823276468E+03  0.00000000000E+00 0. -1.
         -3   -1    0    0    0  501 -0.00000000000E+00 -0.00000000000E+00 -0.82282540518E+03  0.82282540518E+03  0.00000000000E+00 0.  1.
         23    2    1    2    0    0 -0.46811935520E+03  0.62995056427E+03  0.53856766722E+03  0.95626984128E+03  0.91779262522E+02 0.  0.
         11    1    3    3    0    0 -0.26688336613E+03  0.41185507608E+03  0.29710634979E+03  0.57369287768E+03  0.00000000000E+00 0. -1.
        -11    1    3    3    0    0 -0.20123598907E+03  0.21809548819E+03  0.24146131743E+03  0.38257696361E+03  0.00000000000E+00 0.  1.
         22    1    1    2    0    0  0.46811935520E+03 -0.62995056427E+03 -0.36316030772E+03  0.86478832858E+03  0.00000000000E+00 0.  1.
<mgrwt>
<rscale>  0 0.18125907E+04</rscale>
<asrwt>0</asrwt>
<pdfrwt beam="1">  1        3 0.15357427E+00 0.18125907E+04</pdfrwt>
<pdfrwt beam="2">  1       -3 0.12658852E+00 0.18125907E+04</pdfrwt>
<totfact> 0.37217897E-01</totfact>
</mgrwt>
</event>
<event>
 6    1  0.1028026E-006  0.1490809E+04  0.7818608E-02  0.8890588E-01
         -1   -1    0    0    0  501 -0.00000000000E+00  0.00000000000E+00  0.34878064638E+03  0.34878064638E+03  0.00000000000E+00 0.  1.
          1   -1    0    0  501    0  0.00000000000E+00 -0.00000000000E+00 -0.15930574726E+04  0.15930574726E+04  0.00000000000E+00 0. -1.
         23    2    1    2    0    0  0.31803511842E+03 -0.39238433456E+03  0.84865801641E+02  0.51996191911E+03  0.89701674884E+02 0.  0.
         11    1    3    3    0    0  0.27038209261E+03 -0.28492714126E+03  0.42844029262E+02  0.39512727402E+03  0.00000000000E+00 0. -1.
        -11    1    3    3    0    0  0.47653025815E+02 -0.10745719329E+03  0.42021772379E+02  0.12483464509E+03  0.00000000000E+00 0.  1.
         22    1    1    2    0    0 -0.31803511842E+03  0.39238433456E+03 -0.13291426278E+04  0.14218761999E+04  0.00000000000E+00 0. -1.
<mgrwt>
<rscale>  0 0.14908087E+04</rscale>
<asrwt>0</asrwt>
<pdfrwt beam="1">  1        1 0.24508576E+00 0.14908087E+04</pdfrwt>
<pdfrwt beam="2">  1       -1 0.53658561E-01 0.14908087E+04</pdfrwt>
<totfact> 0.19142079E+01</totfact>
</mgrwt>
</event>
<event>
 6    1  0.1028026E-006  0.1646513E+04  0.7818608E-02  0.8792472E-01
          1   -1    0    0  501    0  0.00000000000E+00  0.00000000000E+00  0.15863139960E+04  0.15863139960E+04  0.00000000000E+00 0. -1.
         -1   -1    0    0    0  501 -0.00000000000E+00 -0.00000000000E+00 -0.42724904511E+03  0.42724904511E+03  0.00000000000E+00 0.  1.
         23    2    1    2    0    0 -0.62456076684E+02  0.89743990228E+02  0.15761635096E+04  0.15823717229E+04  0.87487799309E+02 0.  0.
         11    1    3    3    0    0 -0.34631018704E+02  0.61783900364E+02  0.45193715084E+03  0.45745354531E+03  0.00000000000E+00 0.  1.
        -11    1    3    3    0    0 -0.27825057980E+02  0.27960089864E+02  0.11242263588E+04  0.11249181776E+04  0.00000000000E+00 0. -1.
         22    1    1    2    0    0  0.62456076684E+02 -0.89743990228E+02 -0.41709855869E+03  0.43119131828E+03  0.00000000000E+00 0.  1.
<mgrwt>
<rscale>  0 0.16465128E+04</rscale>
<asrwt>0</asrwt>
<pdfrwt beam="1">  1        1 0.24404830E+00 0.16465128E+04</pdfrwt>
<pdfrwt beam="2">  1       -1 0.65730623E-01 0.16465128E+04</pdfrwt>
<totfact> 0.12786972E+01</totfact>
</mgrwt>
</event>
<event>
 6    1  0.1028026E-006  0.1953458E+04  0.7818608E-02  0.8628695E-01
         -2   -1    0    0    0  501 -0.00000000000E+00  0.00000000000E+00  0.53453000581E+03  0.53453000581E+03  0.00000000000E+00 0.  1.
          2   -1    0    0  501    0  0.00000000000E+00 -0.00000000000E+00 -0.17847438519E+04  0.17847438519E+04  0.00000000000E+00 0. -1.
         23    2    1    2    0    0  0.40666033819E+03 -0.28445924532E+03 -0.16222950763E+04  0.16990044527E+04  0.92114726797E+02 0.  0.
         11    1    3    3    0    0  0.28946211211E+03 -0.14910881974E+03 -0.10630511335E+04  0.11118001021E+04  0.00000000000E+00 0.  1.
        -11    1    3    3    0    0  0.11719822608E+03 -0.13535042558E+03 -0.55924394277E+03  0.58720435066E+03  0.00000000000E+00 0. -1.
         22    1    1    2    0    0 -0.40666033819E+03  0.28445924532E+03  0.37208123020E+03  0.62026940499E+03  0.00000000000E+00 0.  1.
<mgrwt>
<rscale>  0 0.19534576E+04</rscale>
<asrwt>0</asrwt>
<pdfrwt beam="1">  1        2 0.27457597E+00 0.19534576E+04</pdfrwt>
<pdfrwt beam="2">  1       -2 0.82235388E-01 0.19534576E+04</pdfrwt>
<totfact> 0.10657205E+01</totfact>
</mgrwt>
</event>
<event>
 6    1  0.1028026E-006  0.1900616E+04  0.7818608E-02  0.8654550E-01
         -1   -1    0    0    0  501 -0.00000000000E+00  0.00000000000E+00  0.12391299083E+04  0.12391299083E+04  0.00000000000E+00 0.  1.
          1   -1    0    0  501    0  0.00000000000E+00 -0.00000000000E+00 -0.72880566136E+03  0.72880566136E+03  0.00000000000E+00 0. -1.
         23    2    1    2    0    0 -0.17500521204E+03 -0.66587949606E+03  0.93066896296E+03  0.11612683472E+04  0.91526651788E+02 0.  0.
         13    1    3    3    0    0 -0.36835217486E+02 -0.28266271121E+03  0.33888649928E+03  0.44283078139E+03  0.00000000000E+00 0. -1.
        -13    1    3    3    0    0 -0.13816999456E+03 -0.38321678485E+03  0.59178246368E+03  0.71843756577E+03  0.00000000000E+00 0.  1.
         22    1    1    2    0    0  0.17500521204E+03  0.66587949606E+03 -0.42034471604E+03  0.80666722248E+03  0.00000000000E+00 0. -1.
<mgrwt>
<rscale>  0 0.19006156E+04</rscale>
<asrwt>0</asrwt>
<pdfrwt beam="1">  1        1 0.11212395E+00 0.19006156E+04</pdfrwt>
<pdfrwt beam="2">  1       -1 0.19063537E+00 0.19006156E+04</pdfrwt>
<totfact> 0.41897552E+00</totfact>
</mgrwt>
</event>
<event>
 6    1  0.1028026E-006  0.1038504E+04  0.7818608E-02  0.9267294E-01
         -2   -1    0    0    0  501 -0.00000000000E+00  0.00000000000E+00  0.69065063246E+02  0.69065063246E+02  0.00000000000E+00 0.  1.
          2   -1    0    0  501    0  0.00000000000E+00 -0.00000000000E+00 -0.39038919817E+04  0.39038919817E+04  0.00000000000E+00 0. -1.
         23    2    1    2    0    0 -0.15817904987E+03 -0.45370025332E+03 -0.26436027187E+04  0.26884806436E+04  0.91805798814E+02 0.  0.
         13    1    3    3    0    0 -0.10666015518E+03 -0.22592704046E+03 -0.15718020421E+04  0.15915341893E+04  0.00000000000E+00 0. -1.
        -13    1    3    3    0    0 -0.51518894684E+02 -0.22777321286E+03 -0.10718006767E+04  0.10969464543E+04  0.00000000000E+00 0.  1.
         22    1    1    2    0    0  0.15817904987E+03  0.45370025332E+03 -0.11912241997E+04  0.12844764013E+04  0.00000000000E+00 0.  1.
<mgrwt>
<rscale>  0 0.10385038E+04</rscale>
<asrwt>0</asrwt>
<pdfrwt beam="1">  1        2 0.60059911E+00 0.10385038E+04</pdfrwt>
<pdfrwt beam="2">  1       -2 0.10625388E-01 0.10385038E+04</pdfrwt>
<totfact> 0.26641791E+01</totfact>
</mgrwt>
</event>
<event>
 6    1  0.1028026E-006  0.8455201E+03  0.7818608E-02  0.9496370E-01
          2   -1    0    0  501    0  0.00000000000E+00  0.00000000000E+00  0.16865664684E+04  0.16865664684E+04  0.00000000000E+00 0. -1.
         -2   -1    0    0    0  501 -0.00000000000E+00 -0.00000000000E+00 -0.10597035861E+03  0.10597035861E+03  0.00000000000E+00 0.  1.
         23    2    1    2    0    0  0.37421053855E+03  0.59408936262E+02  0.42558797311E+03  0.57696834079E+03  0.90578112984E+02 0.  0.
         11    1    3    3    0    0  0.18373720383E+03  0.72432399102E+02  0.19417036118E+03  0.27696198597E+03  0.00000000000E+00 0. -1.
        -11    1    3    3    0    0  0.19047333472E+03 -0.13023462841E+02  0.23141761192E+03  0.30000635482E+03  0.00000000000E+00 0.  1.
         22    1    1    2    0    0 -0.37421053855E+03 -0.59408936262E+02  0.11550081367E+04  0.12155684862E+04  0.00000000000E+00 0. -1.
<mgrwt>
<rscale>  0 0.84552008E+03</rscale>
<asrwt>0</asrwt>
<pdfrwt beam="1">  1        2 0.25947174E+00 0.84552008E+03</pdfrwt>
<pdfrwt beam="2">  1       -2 0.16303133E-01 0.84552008E+03</pdfrwt>
<totfact> 0.30640536E+02</totfact>
</mgrwt>
</event>
<event>
 6    1  0.1028026E-006  0.2552800E+04  0.7818608E-02  0.8384413E-01
         -1   -1    0    0    0  501 -0.00000000000E+00  0.00000000000E+00  0.15179558262E+04  0.15179558262E+04  0.00000000000E+00 0.  1.
          1   -1    0    0  501    0  0.00000000000E+00 -0.00000000000E+00 -0.10732839287E+04  0.10732839287E+04  0.00000000000E+00 0. -1.
         23    2    1    2    0    0  0.11198780514E+04 -0.56767590155E+03  0.44649811055E+03  0.13356975954E+04  0.91349462458E+02 0.  0.
         11    1    3    3    0    0  0.71173429083E+03 -0.36628786878E+03  0.33064315457E+03  0.86605854261E+03  0.00000000000E+00 0. -1.
        -11    1    3    3    0    0  0.40814376058E+03 -0.20138803277E+03  0.11585495597E+03  0.46963905275E+03  0.00000000000E+00 0.  1.
         22    1    1    2    0    0 -0.11198780514E+04  0.56767590155E+03 -0.18262130403E+01  0.12555421595E+04  0.00000000000E+00 0. -1.
<mgrwt>
<rscale>  0 0.25528005E+04</rscale>
<asrwt>0</asrwt>
<pdfrwt beam="1">  1        1 0.16512060E+00 0.25528005E+04</pdfrwt>
<pdfrwt beam="2">  1       -1 0.23353167E+00 0.25528005E+04</pdfrwt>
<totfact> 0.10506566E+00</totfact>
</mgrwt>
</event>
<event>
 6    1  0.1028026E-006  0.3011766E+04  0.7818608E-02  0.8240379E-01
          2   -1    0    0  501    0  0.00000000000E+00  0.00000000000E+00  0.86888084157E+03  0.86888084157E+03  0.00000000000E+00 0. -1.
         -2   -1    0    0    0  501 -0.00000000000E+00 -0.00000000000E+00 -0.26098898781E+04  0.26098898781E+04  0.00000000000E+00 0.  1.
         23    2    1    2    0    0  0.13858992998E+04  0.48625230037E+03 -0.12479879292E+04  0.19295038024E+04  0.91394109341E+02 0.  0.
         11    1    3    3    0    0  0.62813089755E+03  0.25528405531E+03 -0.53435150256E+03  0.86327857708E+03  0.00000000000E+00 0.  1.
        -11    1    3    3    0    0  0.75776840224E+03  0.23096824506E+03 -0.71363642661E+03  0.10662252253E+04  0.00000000000E+00 0. -1.
         22    1    1    2    0    0 -0.13858992998E+04 -0.48625230037E+03 -0.49302110740E+03  0.15492669173E+04  0.00000000000E+00 0. -1.
<mgrwt>
<rscale>  0 0.30117658E+04</rscale>
<asrwt>0</asrwt>
<pdfrwt beam="1">  1        2 0.13367398E+00 0.30117658E+04</pdfrwt>
<pdfrwt beam="2">  1       -2 0.40152152E+00 0.30117658E+04</pdfrwt>
<totfact> 0.19089668E-01</totfact>
</mgrwt>
</event>
<event>
 6    1  0.1028026E-006  0.8363092E+03  0.7818608E-02  0.9508899E-01
         -1   -1    0    0    0  501 -0.00000000000E+00  0.00000000000E+00  0.39175675451E+03  0.39175675451E+03  0.00000000000E+00 0.  1.
          1   -1    0    0  501    0  0.00000000000E+00 -0.00000000000E+00 -0.44633120620E+03  0.44633120620E+03  0.00000000000E+00 0. -1.
         23    2    1    2    0    0  0.25889105774E+03 -0.95041920862E+02 -0.33606629423E+03  0.44401283601E+03  0.90273461927E+02 0.  0.
         13    1    3    3    0    0  0.17043951735E+03 -0.35567364406E+02 -0.26060817955E+03  0.31341871312E+03  0.00000000000E+00 0.  1.
        -13    1    3    3    0    0  0.88451540390E+02 -0.59474556456E+02 -0.75458114676E+02  0.13059412289E+03  0.00000000000E+00 0. -1.
         22    1    1    2    0    0 -0.25889105774E+03  0.95041920862E+02  0.28149184253E+03  0.39407512470E+03  0.00000000000E+00 0.  1.
<mgrwt>
<rscale>  0 0.83630919E+03</rscale>
<asrwt>0</asrwt>
<pdfrwt beam="1">  1        1 0.68666340E-01 0.83630919E+03</pdfrwt>
<pdfrwt beam="2">  1       -1 0.60270270E-01 0.83630919E+03</pdfrwt>
<totfact> 0.14609883E+02</totfact>
</mgrwt>
</event>
<event>
 6    1  0.1028026E-006  0.1167157E+04  0.7818608E-02  0.9142100E-01
          2   -1    0    0  501    0  0.00000000000E+00  0.00000000000E+00  0.23775932295E+04  0.23775932295E+04  0.00000000000E+00 0. -1.
         -2   -1    0    0    0  501 -0.00000000000E+00 -0.00000000000E+00 -0.14323885649E+03  0.14323885649E+03  0.00000000000E+00 0.  1.
         23    2    1    2    0    0  0.42558330006E+03  0.33719310776E+03  0.68365675884E+03  0.87782160891E+03  0.91454228676E+02 0.  0.
         13    1    3    3    0    0  0.67747496373E+02  0.10037184263E+03  0.13653572321E+03  0.18249995553E+03  0.00000000000E+00 0. -1.
        -13    1    3    3    0    0  0.35783580369E+03  0.23682126514E+03  0.54712103564E+03  0.69532165338E+03  0.00000000000E+00 0.  1.
         22    1    1    2    0    0 -0.42558330006E+03 -0.33719310776E+03  0.15506976142E+04  0.16430104771E+04  0.00000000000E+00 0. -1.
<mgrwt>
<rscale>  0 0.11671568E+04</rscale>
<asrwt>0</asrwt>
<pdfrwt beam="1">  1        2 0.36578354E+00 0.11671568E+04</pdfrwt>
<pdfrwt beam="2">  1       -2 0.22036749E-01 0.11671568E+04</pdfrwt>
<totfact> 0.73285762E+01</totfact>
</mgrwt>
</event>
<event>
 6    1  0.1028026E-006  0.3464561E+04  0.7818608E-02  0.8122240E-01
          1   -1    0    0  501    0  0.00000000000E+00  0.00000000000E+00  0.18137512757E+04  0.18137512757E+04  0.00000000000E+00 0. -1.
         -1   -1    0    0    0  501 -0.00000000000E+00 -0.00000000000E+00 -0.16544692365E+04  0.16544692365E+04  0.00000000000E+00 0.  1.
         23    2    1    2    0    0  0.77044057347E+03  0.93290737387E+03 -0.11596381762E+04  0.16784033763E+04  0.91555165972E+02 0.  0.
         13    1    3    3    0    0  0.33843935978E+03  0.39551418842E+03 -0.56073208942E+03  0.76510989380E+03  0.00000000000E+00 0. -1.
        -13    1    3    3    0    0  0.43200121369E+03  0.53739318545E+03 -0.59890608681E+03  0.91329348252E+03  0.00000000000E+00 0.  1.
         22    1    1    2    0    0 -0.77044057347E+03 -0.93290737387E+03  0.13189202154E+04  0.17898171359E+04  0.00000000000E+00 0. -1.
<mgrwt>
<rscale>  0 0.34645610E+04</rscale>
<asrwt>0</asrwt>
<pdfrwt beam="1">  1        1 0.27903866E+00 0.34645610E+04</pdfrwt>
<pdfrwt beam="2">  1       -1 0.25453373E+00 0.34645610E+04</pdfrwt>
<totfact> 0.21248944E-01</totfact>
</mgrwt>
</event>
<event>
 6    1  0.1028026E-006  0.1822281E+04  0.7818608E-02  0.8694540E-01
         -2   -1    0    0    0  501 -0.00000000000E+00  0.00000000000E+00  0.52788770797E+03  0.52788770797E+03  0.00000000000E+00 0.  1.
          2   -1    0    0  501    0  0.00000000000E+00 -0.00000000000E+00 -0.15726397504E+04  0.15726397504E+04  0.00000000000E+00 0. -1.
         23    2    1    2    0    0 -0.43764763924E+03  0.34708182424E+03  0.30266590469E+03  0.64191977532E+03  0.91940737650E+02 0.  0.
         11    1    3    3    0    0 -0.21911064350E+03  0.20082429020E+03  0.11424858381E+03  0.31842206037E+03  0.00000000000E+00 0.  1.
        -11    1    3    3    0    0 -0.21853699574E+03  0.14625753404E+03  0.18841732088E+03  0.32349771495E+03  0.00000000000E+00 0. -1.
         22    1    1    2    0    0  0.43764763924E+03 -0.34708182424E+03 -0.13474179472E+04  0.14586076831E+04  0.00000000000E+00 0. -1.
<mgrwt>
<rscale>  0 0.18222812E+04</rscale>
<asrwt>0</asrwt>
<pdfrwt beam="1">  1        2 0.24194458E+00 0.18222812E+04</pdfrwt>
<pdfrwt beam="2">  1       -2 0.81213493E-01 0.18222812E+04</pdfrwt>
<totfact> 0.14546683E+01</totfact>
</mgrwt>
</event>
<event>
 6    1  0.1028026E-006  0.2723136E+04  0.7818608E-02  0.8327537E-01
          2   -1    0    0  501    0  0.00000000000E+00  0.00000000000E+00  0.89202780438E+03  0.89202780438E+03  0.00000000000E+00 0. -1.
         -2   -1    0    0    0  501 -0.00000000000E+00 -0.00000000000E+00 -0.20782623819E+04  0.20782623819E+04  0.00000000000E+00 0.  1.
         23    2    1    2    0    0 -0.27190422858E+02 -0.66721852101E+03 -0.18861344923E+04  0.20029330834E+04  0.91201642977E+02 0.  0.
         13    1    3    3    0    0 -0.33913043863E+02 -0.43215469798E+03 -0.13384960061E+04  0.14069397059E+04  0.00000000000E+00 0.  1.
        -13    1    3    3    0    0  0.67226210048E+01 -0.23506382303E+03 -0.54763848618E+03  0.59599337754E+03  0.00000000000E+00 0. -1.
         22    1    1    2    0    0  0.27190422858E+02  0.66721852101E+03  0.69989991475E+03  0.96735710290E+03  0.00000000000E+00 0. -1.
<mgrwt>
<rscale>  0 0.27231363E+04</rscale>
<asrwt>0</asrwt>
<pdfrwt beam="1">  1        2 0.13723505E+00 0.27231363E+04</pdfrwt>
<pdfrwt beam="2">  1       -2 0.31973267E+00 0.27231363E+04</pdfrwt>
<totfact> 0.62489183E-01</totfact>
</mgrwt>
</event>
<event>
 6    1  0.1028026E-006  0.5941284E+04  0.7818608E-02  0.7697725E-01
         -2   -1    0    0    0  501 -0.00000000000E+00  0.00000000000E+00  0.17486099278E+04  0.17486099278E+04  0.00000000000E+00 0.  1.
          2   -1    0    0  501    0  0.00000000000E+00 -0.00000000000E+00 -0.50467031341E+04  0.50467031341E+04  0.00000000000E+00 0. -1.
         23    2    1    2    0    0  0.13446988863E+04 -0.22643711962E+04 -0.32197701619E+04  0.41605974211E+04  0.89771910606E+02 0.  0.
         11    1    3    3    0    0  0.38669755811E+03 -0.67830567975E+03 -0.89427116497E+03  0.11871623786E+04  0.00000000000E+00 0.  1.
        -11    1    3    3    0    0  0.95800132822E+03 -0.15860655164E+04 -0.23254989969E+04  0.29734350425E+04  0.00000000000E+00 0. -1.
         22    1    1    2    0    0 -0.13446988863E+04  0.22643711962E+04 -0.78323044456E+02  0.26347156409E+04  0.00000000000E+00 0. -1.
<mgrwt>
<rscale>  0 0.59412844E+04</rscale>
<asrwt>0</asrwt>
<pdfrwt beam="1">  1        2 0.77641585E+00 0.59412844E+04</pdfrwt>
<pdfrwt beam="2">  1       -2 0.26901692E+00 0.59412844E+04</pdfrwt>
<totfact> 0.97171722E-04</totfact>
</mgrwt>
</event>
<event>
 6    1  0.1028026E-006  0.3579657E+04  0.7818608E-02  0.8095167E-01
          2   -1    0    0  501    0  0.00000000000E+00  0.00000000000E+00  0.17978265930E+04  0.17978265930E+04  0.00000000000E+00 0. -1.
         -2   -1    0    0    0  501 -0.00000000000E+00 -0.00000000000E+00 -0.17818658207E+04  0.17818658207E+04  0.00000000000E+00 0.  1.
         23    2    1    2    0    0 -0.10123199832E+03  0.15391054240E+04 -0.89763728878E+03  0.17869975593E+04  0.92272157334E+02 0.  0.
         13    1    3    3    0    0 -0.86811698108E+02  0.10892185201E+04 -0.68042005681E+03  0.12872081064E+04  0.00000000000E+00 0.  1.
        -13    1    3    3    0    0 -0.14420300209E+02  0.44988690390E+03 -0.21721723198E+03  0.49978945289E+03  0.00000000000E+00 0. -1.
         22    1    1    2    0    0  0.10123199832E+03 -0.15391054240E+04  0.91359806112E+03  0.17926948544E+04  0.00000000000E+00 0. -1.
<mgrwt>
<rscale>  0 0.35796568E+04</rscale>
<asrwt>0</asrwt>
<pdfrwt beam="1">  1        2 0.27658871E+00 0.35796568E+04</pdfrwt>
<pdfrwt beam="2">  1       -2 0.27413320E+00 0.35796568E+04</pdfrwt>
<totfact> 0.32304992E-01</totfact>
</mgrwt>
</event>
<event>
 6    1  0.1028026E-006  0.7531753E+03  0.7818608E-02  0.9630382E-01
          2   -1    0    0  501    0  0.00000000000E+00  0.00000000000E+00  0.16007812943E+04  0.16007812943E+04  0.00000000000E+00 0. -1.
         -2   -1    0    0    0  501 -0.00000000000E+00 -0.00000000000E+00 -0.88593153567E+02  0.88593153567E+02  0.00000000000E+00 0.  1.
         23    2    1    2    0    0  0.27643669562E+03  0.20461374739E+03  0.10787812853E+04  0.11360883242E+04  0.92970890888E+02 0.  0.
         11    1    3    3    0    0  0.90067289289E+01  0.33362454490E+02  0.63398530652E+02  0.72204904435E+02  0.00000000000E+00 0. -1.
        -11    1    3    3    0    0  0.26742996669E+03  0.17125129290E+03  0.10153827547E+04  0.10638834198E+04  0.00000000000E+00 0.  1.
         22    1    1    2    0    0 -0.27643669562E+03 -0.20461374739E+03  0.43340685543E+03  0.55328612367E+03  0.00000000000E+00 0.  1.
<mgrwt>
<rscale>  0 0.75317531E+03</rscale>
<asrwt>0</asrwt>
<pdfrwt beam="1">  1        2 0.24627402E+00 0.75317531E+03</pdfrwt>
<pdfrwt beam="2">  1       -2 0.13629717E-01 0.75317531E+03</pdfrwt>
<totfact> 0.46518370E+02</totfact>
</mgrwt>
</event>
<event>
 6    1  0.1028026E-006  0.4346662E+04  0.7818608E-02  0.7938046E-01
          2   -1    0    0  501    0  0.00000000000E+00  0.00000000000E+00  0.16589398113E+04  0.16589398113E+04  0.00000000000E+00 0. -1.
         -2   -1    0    0    0  501 -0.00000000000E+00 -0.00000000000E+00 -0.28472210722E+04  0.28472210722E+04  0.00000000000E+00 0.  1.
         23    2    1    2    0    0 -0.16786682803E+04  0.13314927268E+04 -0.96716006977E+03  0.23521658376E+04  0.80532293986E+02 0.  0.
         11    1    3    3    0    0 -0.11536553616E+04  0.93569057304E+03 -0.70688461285E+03  0.16450299078E+04  0.00000000000E+00 0.  1.
        -11    1    3    3    0    0 -0.52501291871E+03  0.39580215374E+03 -0.26027545692E+03  0.70713592979E+03  0.00000000000E+00 0. -1.
         22    1    1    2    0    0  0.16786682803E+04 -0.13314927268E+04 -0.22112119115E+03  0.21539950459E+04  0.00000000000E+00 0.  1.
<mgrwt>
<rscale>  0 0.43466623E+04</rscale>
<asrwt>0</asrwt>
<pdfrwt beam="1">  1        2 0.25522151E+00 0.43466623E+04</pdfrwt>
<pdfrwt beam="2">  1       -2 0.43803401E+00 0.43466623E+04</pdfrwt>
<totfact> 0.33050083E-02</totfact>
</mgrwt>
</event>
<event>
 6    1  0.1028026E-006  0.1955621E+04  0.7818608E-02  0.8627655E-01
          1   -1    0    0  501    0  0.00000000000E+00  0.00000000000E+00  0.18440903459E+04  0.18440903459E+04  0.00000000000E+00 0. -1.
         -1   -1    0    0    0  501 -0.00000000000E+00 -0.00000000000E+00 -0.51847443005E+03  0.51847443005E+03  0.00000000000E+00 0.  1.
         23    2    1    2    0    0 -0.52832459677E+02  0.81795912567E+03  0.24561725688E+02  0.82484230235E+03  0.88955861546E+02 0.  0.
         11    1    3    3    0    0 -0.73434545809E+02  0.57788520277E+03 -0.10069329984E+01  0.58253322138E+03  0.00000000000E+00 0.  1.
        -11    1    3    3    0    0  0.20602086131E+02  0.24007392291E+03  0.25568658687E+02  0.24230908097E+03  0.00000000000E+00 0. -1.
         22    1    1    2    0    0  0.52832459677E+02 -0.81795912567E+03  0.13010541901E+04  0.15377224736E+04  0.00000000000E+00 0. -1.
<mgrwt>
<rscale>  0 0.19556213E+04</rscale>
<asrwt>0</asrwt>
<pdfrwt beam="1">  1        1 0.28370620E+00 0.19556213E+04</pdfrwt>
<pdfrwt beam="2">  1       -1 0.79765298E-01 0.19556213E+04</pdfrwt>
<totfact> 0.55573556E+00</totfact>
</mgrwt>
</event>
<event>
 6    1  0.1028026E-006  0.4043378E+04  0.7818608E-02  0.7995853E-01
         -2   -1    0    0    0  501 -0.00000000000E+00  0.00000000000E+00  0.14016468103E+04  0.14016468103E+04  0.00000000000E+00 0.  1.
          2   -1    0    0  501    0  0.00000000000E+00 -0.00000000000E+00 -0.29160168026E+04  0.29160168026E+04  0.00000000000E+00 0. -1.
         23    2    1    2    0    0  0.18395215332E+04 -0.60004138811E+02 -0.16479746090E+04  0.24723207826E+04  0.95445126934E+02 0.  0.
         13    1    3    3    0    0  0.93757351715E+03 -0.71719479638E+02 -0.80862459463E+03  0.12401860824E+04  0.00000000000E+00 0. -1.
        -13    1    3    3    0    0  0.90194801607E+03  0.11715340827E+02 -0.83935001434E+03  0.12321347002E+04  0.00000000000E+00 0.  1.
         22    1    1    2    0    0 -0.18395215332E+04  0.60004138811E+02  0.13360461670E+03  0.18453428303E+04  0.00000000000E+00 0.  1.
<mgrwt>
<rscale>  0 0.40433776E+04</rscale>
<asrwt>0</asrwt>
<pdfrwt beam="1">  1        2 0.44861797E+00 0.40433776E+04</pdfrwt>
<pdfrwt beam="2">  1       -2 0.21563797E+00 0.40433776E+04</pdfrwt>
<totfact> 0.16258426E-01</totfact>
</mgrwt>
</event>
<event>
 6    1  0.1028026E-006  0.3420926E+04  0.7818608E-02  0.8132789E-01
         -1   -1    0    0    0  501 -0.00000000000E+00  0.00000000000E+00  0.11433196695E+04  0.11433196695E+04  0.00000000000E+00 0.  1.
          1   -1    0    0  501    0  0.00000000000E+00 -0.00000000000E+00 -0.25589382738E+04  0.25589382738E+04  0.00000000000E+00 0. -1.
         23    2    1    2    0    0  0.16911097627E+04  0.54801236461E+02 -0.97039876554E+03  0.19526648163E+04  0.91491615830E+02 0.  0.
         11    1    3    3    0    0  0.91311074093E+03 -0.22592646141E+01 -0.48562877127E+03  0.10342203019E+04  0.00000000000E+00 0.  1.
        -11    1    3    3    0    0  0.77799902176E+03  0.57060501075E+02 -0.48476999427E+03  0.91844451438E+03  0.00000000000E+00 0. -1.
         22    1    1    2    0    0 -0.16911097627E+04 -0.54801236461E+02 -0.44521983874E+03  0.17495931269E+04  0.00000000000E+00 0.  1.
<mgrwt>
<rscale>  0 0.34209265E+04</rscale>
<asrwt>0</asrwt>
<pdfrwt beam="1">  1        1 0.39368280E+00 0.34209265E+04</pdfrwt>
<pdfrwt beam="2">  1       -1 0.17589534E+00 0.34209265E+04</pdfrwt>
<totfact> 0.22550859E-01</totfact>
</mgrwt>
</event>
<event>
 6    1  0.1028026E-006  0.8663901E+03  0.7818608E-02  0.9468599E-01
          2   -1    0    0  501    0  0.00000000000E+00  0.00000000000E+00  0.87177158907E+03  0.87177158907E+03  0.00000000000E+00 0. -1.
         -2   -1    0    0    0  501 -0.00000000000E+00 -0.00000000000E+00 -0.21526046274E+03  0.21526046274E+03  0.00000000000E+00 0.  1.
         23    2    1    2    0    0 -0.32511106790E+03 -0.19385220447E+03  0.58550619393E+03  0.70191183152E+03  0.81159302900E+02 0.  0.
         13    1    3    3    0    0 -0.17772359879E+03 -0.14928282807E+03  0.32648384764E+03  0.40057801125E+03  0.00000000000E+00 0. -1.
        -13    1    3    3    0    0 -0.14738746911E+03 -0.44569376400E+02  0.25902234629E+03  0.30133382027E+03  0.00000000000E+00 0.  1.
         22    1    1    2    0    0  0.32511106790E+03  0.19385220447E+03  0.71004932408E+02  0.38512022029E+03  0.00000000000E+00 0. -1.
<mgrwt>
<rscale>  0 0.86639011E+03</rscale>
<asrwt>0</asrwt>
<pdfrwt beam="1">  1        2 0.13411870E+00 0.86639011E+03</pdfrwt>
<pdfrwt beam="2">  1       -2 0.33116995E-01 0.86639011E+03</pdfrwt>
<totfact> 0.26164827E+02</totfact>
</mgrwt>
</event>
<event>
 6    1  0.1028026E-006  0.2401208E+04  0.7818608E-02  0.8439051E-01
         -1   -1    0    0    0  501 -0.00000000000E+00  0.00000000000E+00  0.12131141198E+04  0.12131141198E+04  0.00000000000E+00 0.  1.
          1   -1    0    0  501    0  0.00000000000E+00 -0.00000000000E+00 -0.11882233518E+04  0.11882233518E+04  0.00000000000E+00 0. -1.
         23    2    1    2    0    0  0.43377244829E+03  0.97874104069E+03  0.55196001840E+03  0.12080669421E+04  0.93130624168E+02 0.  0.
         11    1    3    3    0    0  0.21218456998E+03  0.42863672648E+03  0.29336608189E+03  0.56108412295E+03  0.00000000000E+00 0. -1.
        -11    1    3    3    0    0  0.22158787830E+03  0.55010431422E+03  0.25859393651E+03  0.64698281919E+03  0.00000000000E+00 0.  1.
         22    1    1    2    0    0 -0.43377244829E+03 -0.97874104069E+03 -0.52706925041E+03  0.11932705294E+04  0.00000000000E+00 0. -1.
<mgrwt>
<rscale>  0 0.24012085E+04</rscale>
<asrwt>0</asrwt>
<pdfrwt beam="1">  1        1 0.18280359E+00 0.24012085E+04</pdfrwt>
<pdfrwt beam="2">  1       -1 0.18663294E+00 0.24012085E+04</pdfrwt>
<totfact> 0.18228705E+00</totfact>
</mgrwt>
</event>
<event>
 6    1  0.1028026E-006  0.1607015E+04  0.7818608E-02  0.8816250E-01
          2   -1    0    0  501    0  0.00000000000E+00  0.00000000000E+00  0.34273421088E+03  0.34273421088E+03  0.00000000000E+00 0. -1.
         -2   -1    0    0    0  501 -0.00000000000E+00 -0.00000000000E+00 -0.18837457715E+04  0.18837457715E+04  0.00000000000E+00 0.  1.
         23    2    1    2    0    0  0.60801604384E+03 -0.24284629781E+03 -0.13362100206E+03  0.67425383318E+03  0.90032357742E+02 0.  0.
         11    1    3    3    0    0  0.28327861325E+03 -0.10496931866E+03 -0.16600137019E+02  0.30255725926E+03  0.00000000000E+00 0. -1.
        -11    1    3    3    0    0  0.32473743059E+03 -0.13787697915E+03 -0.11702086504E+03  0.37169657391E+03  0.00000000000E+00 0.  1.
         22    1    1    2    0    0 -0.60801604384E+03  0.24284629781E+03 -0.14073905585E+04  0.15522261492E+04  0.00000000000E+00 0.  1.
<mgrwt>
<rscale>  0 0.16070148E+04</rscale>
<asrwt>0</asrwt>
<pdfrwt beam="1">  1        2 0.52728340E-01 0.16070148E+04</pdfrwt>
<pdfrwt beam="2">  1       -2 0.28980704E+00 0.16070148E+04</pdfrwt>
<totfact> 0.33342558E+00</totfact>
</mgrwt>
</event>
<event>
 6    1  0.1028026E-006  0.1832546E+04  0.7818608E-02  0.8689181E-01
          2   -1    0    0  501    0  0.00000000000E+00  0.00000000000E+00  0.91593010453E+03  0.91593010453E+03  0.00000000000E+00 0. -1.
         -2   -1    0    0    0  501 -0.00000000000E+00 -0.00000000000E+00 -0.91661572634E+03  0.91661572634E+03  0.00000000000E+00 0.  1.
         23    2    1    2    0    0  0.65131715407E+03 -0.50749196364E+02  0.63835853095E+03  0.91867114291E+03  0.98313471388E+02 0.  0.
         13    1    3    3    0    0  0.50105956710E+03 -0.62863873103E+02  0.44184723293E+03  0.67100039759E+03  0.00000000000E+00 0.  1.
        -13    1    3    3    0    0  0.15025758698E+03  0.12114676739E+02  0.19651129802E+03  0.24767074532E+03  0.00000000000E+00 0. -1.
         22    1    1    2    0    0 -0.65131715407E+03  0.50749196364E+02 -0.63904415276E+03  0.91387468796E+03  0.00000000000E+00 0.  1.
<mgrwt>
<rscale>  0 0.18325457E+04</rscale>
<asrwt>0</asrwt>
<pdfrwt beam="1">  1        2 0.14091232E+00 0.18325457E+04</pdfrwt>
<pdfrwt beam="2">  1       -2 0.14101780E+00 0.18325457E+04</pdfrwt>
<totfact> 0.94917132E+00</totfact>
</mgrwt>
</event>
<event>
 6    1  0.1033762E-006  0.4686672E+04  0.7818608E-02  0.7878747E-01
          1   -1    0    0  501    0  0.00000000000E+00  0.00000000000E+00  0.28915000020E+04  0.28915000020E+04  0.00000000000E+00 0. -1.
         -1   -1    0    0    0  501 -0.00000000000E+00 -0.00000000000E+00 -0.18990913672E+04  0.18990913672E+04  0.00000000000E+00 0.  1.
         23    2    1    2    0    0  0.10030373796E+04 -0.98808962265E+03 -0.14171653649E+04  0.19998115593E+04  0.92105994343E+02 0.  0.
         11    1    3    3    0    0  0.69695120022E+03 -0.66462427069E+03 -0.10246262389E+04  0.14061740028E+04  0.00000000000E+00 0. -1.
        -11    1    3    3    0    0  0.30608617934E+03 -0.32346535196E+03 -0.39253912601E+03  0.59363755655E+03  0.00000000000E+00 0.  1.
         22    1    1    2    0    0 -0.10030373796E+04  0.98808962265E+03  0.24095739996E+04  0.27907798098E+04  0.00000000000E+00 0. -1.
<mgrwt>
<rscale>  0 0.46866716E+04</rscale>
<asrwt>0</asrwt>
<pdfrwt beam="1">  1        1 0.44484615E+00 0.46866716E+04</pdfrwt>
<pdfrwt beam="2">  1       -1 0.29216791E+00 0.46866716E+04</pdfrwt>
<totfact> 0.19684793E-02</totfact>
</mgrwt>
</event>
<event>
 6    1  0.1028026E-006  0.1775767E+04  0.7818608E-02  0.8719294E-01
         -2   -1    0    0    0  501 -0.00000000000E+00  0.00000000000E+00  0.36163776035E+03  0.36163776035E+03  0.00000000000E+00 0.  1.
          2   -1    0    0  501    0  0.00000000000E+00 -0.00000000000E+00 -0.21799074136E+04  0.21799074136E+04  0.00000000000E+00 0. -1.
         23    2    1    2    0    0  0.78195528509E+02 -0.52092192074E+03  0.10685800439E+03  0.54565171827E+03  0.94037101004E+02 0.  0.
         11    1    3    3    0    0  0.59702292842E+02 -0.15221871298E+03  0.91017467830E+01  0.16376123517E+03  0.00000000000E+00 0. -1.
        -11    1    3    3    0    0  0.18493235667E+02 -0.36870320776E+03  0.97756257611E+02  0.38189048310E+03  0.00000000000E+00 0.  1.
         22    1    1    2    0    0 -0.78195528509E+02  0.52092192074E+03 -0.19251276577E+04  0.19958934557E+04  0.00000000000E+00 0. -1.
<mgrwt>
<rscale>  0 0.17757667E+04</rscale>
<asrwt>0</asrwt>
<pdfrwt beam="1">  1        2 0.33537037E+00 0.17757667E+04</pdfrwt>
<pdfrwt beam="2">  1       -2 0.55636578E-01 0.17757667E+04</pdfrwt>
<totfact> 0.15221146E+01</totfact>
</mgrwt>
</event>
<event>
 6    1  0.1028026E-006  0.6663748E+03  0.7818608E-02  0.9776529E-01
         -1   -1    0    0    0  501 -0.00000000000E+00  0.00000000000E+00  0.13493466571E+04  0.13493466571E+04  0.00000000000E+00 0.  1.
          1   -1    0    0  501    0  0.00000000000E+00 -0.00000000000E+00 -0.82272293259E+02  0.82272293259E+02  0.00000000000E+00 0. -1.
         23    2    1    2    0    0 -0.30663447941E+03 -0.49827669056E+02  0.42930358799E+03  0.53810489147E+03  0.93529690425E+02 0.  0.
         11    1    3    3    0    0 -0.16113144125E+03 -0.65580414786E+02  0.27523319118E+03  0.32560319668E+03  0.00000000000E+00 0. -1.
        -11    1    3    3    0    0 -0.14550303817E+03  0.15752745730E+02  0.15407039681E+03  0.21250169479E+03  0.00000000000E+00 0.  1.
         22    1    1    2    0    0  0.30663447941E+03  0.49827669056E+02  0.83777077588E+03  0.89351405892E+03  0.00000000000E+00 0.  1.
<mgrwt>
<rscale>  0 0.66637480E+03</rscale>
<asrwt>0</asrwt>
<pdfrwt beam="1">  1        1 0.12657277E-01 0.66637480E+03</pdfrwt>
<pdfrwt beam="2">  1       -1 0.20759178E+00 0.66637480E+03</pdfrwt>
<totfact> 0.66763084E+01</totfact>
</mgrwt>
</event>
<event>
 6    1  0.1028026E-006  0.2521695E+04  0.7818608E-02  0.8395297E-01
          1   -1    0    0  501    0  0.00000000000E+00  0.00000000000E+00  0.25229801742E+04  0.25229801742E+04  0.00000000000E+00 0. -1.
         -1   -1    0    0    0  501 -0.00000000000E+00 -0.00000000000E+00 -0.63010269716E+03  0.63010269716E+03  0.00000000000E+00 0.  1.
         23    2    1    2    0    0  0.57409135207E+03  0.99589224807E+03  0.15908004575E+04  0.19645405810E+04  0.85972953310E+02 0.  0.
         13    1    3    3    0    0  0.20978707689E+03  0.35503159058E+03  0.50202363576E+03  0.64968129017E+03  0.00000000000E+00 0. -1.
        -13    1    3    3    0    0  0.36430427518E+03  0.64086065749E+03  0.10887768217E+04  0.13148592908E+04  0.00000000000E+00 0.  1.
         22    1    1    2    0    0 -0.57409135207E+03 -0.99589224807E+03  0.30207701962E+03  0.11885422904E+04  0.00000000000E+00 0.  1.
<mgrwt>
<rscale>  0 0.25216952E+04</rscale>
<asrwt>0</asrwt>
<pdfrwt beam="1">  1        1 0.38815079E+00 0.25216952E+04</pdfrwt>
<pdfrwt beam="2">  1       -1 0.96938878E-01 0.25216952E+04</pdfrwt>
<totfact> 0.11842021E+00</totfact>
</mgrwt>
</event>
<event>
 6    1  0.1948509E-006  0.3598049E+04  0.7818608E-02  0.8090939E-01
         -2   -1    0    0    0  501 -0.00000000000E+00  0.00000000000E+00  0.11898077938E+04  0.11898077938E+04  0.00000000000E+00 0.  1.
          2   -1    0    0  501    0  0.00000000000E+00 -0.00000000000E+00 -0.27201775047E+04  0.27201775047E+04  0.00000000000E+00 0. -1.
         23    2    1    2    0    0  0.26763464434E+03 -0.17143974691E+04 -0.12769212970E+04  0.21564109249E+04  0.93771495939E+02 0.  0.
         13    1    3    3    0    0  0.10049017046E+03 -0.64937427114E+03 -0.42757917473E+03  0.78397013275E+03  0.00000000000E+00 0. -1.
        -13    1    3    3    0    0  0.16714447388E+03 -0.10650231980E+04 -0.84934212228E+03  0.13724407922E+04  0.00000000000E+00 0.  1.
         22    1    1    2    0    0 -0.26763464434E+03  0.17143974691E+04 -0.25344841387E+03  0.17535743735E+04  0.00000000000E+00 0.  1.
<mgrwt>
<rscale>  0 0.35980486E+04</rscale>
<asrwt>0</asrwt>
<pdfrwt beam="1">  1        2 0.41848885E+00 0.35980486E+04</pdfrwt>
<pdfrwt beam="2">  1       -2 0.18304735E+00 0.35980486E+04</pdfrwt>
<totfact> 0.36366679E-01</totfact>
</mgrwt>
</event>
<event>
 6    1  0.1028026E-006  0.6860120E+03  0.7818608E-02  0.9741457E-01
         -1   -1    0    0    0  501 -0.00000000000E+00  0.00000000000E+00  0.61323375395E+03  0.61323375395E+03  0.00000000000E+00 0.  1.
          1   -1    0    0  501    0  0.00000000000E+00 -0.00000000000E+00 -0.19185689606E+03  0.19185689606E+03  0.00000000000E+00 0. -1.
         23    2    1    2    0    0 -0.17399073423E+03 -0.26266951875E+03  0.73944839137E+02  0.33607352950E+03  0.90606436406E+02 0.  0.
         13    1    3    3    0    0 -0.59798256500E+02 -0.82666765601E+02 -0.18554338908E+02  0.10370096001E+03  0.00000000000E+00 0. -1.
        -13    1    3    3    0    0 -0.11419247773E+03 -0.18000275315E+03  0.92499178045E+02  0.23237256949E+03  0.00000000000E+00 0.  1.
         22    1    1    2    0    0  0.17399073423E+03  0.26266951875E+03  0.34743201874E+03  0.46901712051E+03  0.00000000000E+00 0. -1.
<mgrwt>
<rscale>  0 0.68601202E+03</rscale>
<asrwt>0</asrwt>
<pdfrwt beam="1">  1        1 0.29516446E-01 0.68601202E+03</pdfrwt>
<pdfrwt beam="2">  1       -1 0.94343654E-01 0.68601202E+03</pdfrwt>
<totfact> 0.17352925E+02</totfact>
</mgrwt>
</event>
<event>
 6    1  0.1028026E-006  0.2753022E+04  0.7818608E-02  0.8318003E-01
          2   -1    0    0  501    0  0.00000000000E+00  0.00000000000E+00  0.93964545918E+03  0.93964545918E+03  0.00000000000E+00 0. -1.
         -2   -1    0    0    0  501 -0.00000000000E+00 -0.00000000000E+00 -0.20164861142E+04  0.20164861142E+04  0.00000000000E+00 0.  1.
         23    2    1    2    0    0  0.25488090508E+01  0.26668049261E+03 -0.19873968103E+04  0.20073231134E+04  0.92059863127E+02 0.  0.
         11    1    3    3    0    0  0.12182788943E+02  0.11813836141E+03 -0.12091462666E+04  0.12149649324E+04  0.00000000000E+00 0.  1.
        -11    1    3    3    0    0 -0.96339798921E+01  0.14854213120E+03 -0.77825054372E+03  0.79235818107E+03  0.00000000000E+00 0. -1.
         22    1    1    2    0    0 -0.25488090508E+01 -0.26668049261E+03  0.91055615535E+03  0.94880845992E+03  0.00000000000E+00 0. -1.
<mgrwt>
<rscale>  0 0.27530216E+04</rscale>
<asrwt>0</asrwt>
<pdfrwt beam="1">  1        2 0.14456084E+00 0.27530216E+04</pdfrwt>
<pdfrwt beam="2">  1       -2 0.31022863E+00 0.27530216E+04</pdfrwt>
<totfact> 0.66270006E-01</totfact>
</mgrwt>
</event>
<event>
 6    1  0.1028026E-006  0.2638576E+04  0.7818608E-02  0.8355215E-01
          2   -1    0    0  501    0  0.00000000000E+00  0.00000000000E+00  0.27019944700E+04  0.27019944700E+04  0.00000000000E+00 0. -1.
         -2   -1    0    0    0  501 -0.00000000000E+00 -0.00000000000E+00 -0.64416168958E+03  0.64416168958E+03  0.00000000000E+00 0.  1.
         23    2    1    2    0    0 -0.65015738425E+02 -0.67665134585E+03  0.24616934554E+04  0.25554681460E+04  0.91644348347E+02 0.  0.
         13    1    3    3    0    0  0.18529939479E+02 -0.99103145095E+02  0.42727400880E+03  0.43900782524E+03  0.00000000000E+00 0. -1.
        -13    1    3    3    0    0 -0.83545677904E+02 -0.57754820076E+03  0.20344194466E+04  0.21164603207E+04  0.00000000000E+00 0.  1.
         22    1    1    2    0    0  0.65015738425E+02  0.67665134585E+03 -0.40386067497E+03  0.79068801362E+03  0.00000000000E+00 0.  1.
<mgrwt>
<rscale>  0 0.26385764E+04</rscale>
<asrwt>0</asrwt>
<pdfrwt beam="1">  1        2 0.41569145E+00 0.26385764E+04</pdfrwt>
<pdfrwt beam="2">  1       -2 0.99101800E-01 0.26385764E+04</pdfrwt>
<totfact> 0.19699304E+00</totfact>
</mgrwt>
</event>
<event>
 6    1  0.1028026E-006  0.1434875E+04  0.7818608E-02  0.8928954E-01
          2   -1    0    0  501    0  0.00000000000E+00  0.00000000000E+00  0.10828380603E+04  0.10828380603E+04  0.00000000000E+00 0. -1.
         -2   -1    0    0    0  501 -0.00000000000E+00 -0.00000000000E+00 -0.47534046866E+03  0.47534046866E+03  0.00000000000E+00 0.  1.
         23    2    1    2    0    0  0.17468665072E+03 -0.75117282998E+02  0.10529855587E+04  0.10738051596E+04  0.90116046436E+02 0.  0.
         11    1    3    3    0    0  0.67090020628E+02 -0.50005427907E+02  0.66986500766E+03  0.67507091641E+03  0.00000000000E+00 0. -1.
        -11    1    3    3    0    0  0.10759663009E+03 -0.25111855091E+02  0.38312055102E+03  0.39873424318E+03  0.00000000000E+00 0.  1.
         22    1    1    2    0    0 -0.17468665072E+03  0.75117282998E+02 -0.44548796706E+03  0.48437336935E+03  0.00000000000E+00 0.  1.
<mgrwt>
<rscale>  0 0.14348753E+04</rscale>
<asrwt>0</asrwt>
<pdfrwt beam="1">  1        2 0.16659047E+00 0.14348753E+04</pdfrwt>
<pdfrwt beam="2">  1       -2 0.73129303E-01 0.14348753E+04</pdfrwt>
<totfact> 0.36608894E+01</totfact>
</mgrwt>
</event>
<event>
 6    1  0.1028026E-006  0.2098525E+04  0.7818608E-02  0.8561893E-01
         -2   -1    0    0    0  501 -0.00000000000E+00  0.00000000000E+00  0.11066730345E+04  0.11066730345E+04  0.00000000000E+00 0.  1.
          2   -1    0    0  501    0  0.00000000000E+00 -0.00000000000E+00 -0.99483066113E+03  0.99483066113E+03  0.00000000000E+00 0. -1.
         23    2    1    2    0    0  0.85894974918E+03 -0.34813149024E+02 -0.54296830350E+03  0.10208633070E+04  0.91327356548E+02 0.  0.
         13    1    3    3    0    0  0.66594962223E+03 -0.59110226495E+02 -0.39581816927E+03  0.77695234175E+03  0.00000000000E+00 0. -1.
        -13    1    3    3    0    0  0.19300012696E+03  0.24297077471E+02 -0.14715013423E+03  0.24391096528E+03  0.00000000000E+00 0.  1.
         22    1    1    2    0    0 -0.85894974918E+03  0.34813149024E+02  0.65481067687E+03  0.10806403886E+04  0.00000000000E+00 0.  1.
<mgrwt>
<rscale>  0 0.20985255E+04</rscale>
<asrwt>0</asrwt>
<pdfrwt beam="1">  1        2 0.15305087E+00 0.20985255E+04</pdfrwt>
<pdfrwt beam="2">  1       -2 0.17025739E+00 0.20985255E+04</pdfrwt>
<totfact> 0.49640803E+00</totfact>
</mgrwt>
</event>
<event>
 6    1  0.1028026E-006  0.2455623E+04  0.7818608E-02  0.8418968E-01
          1   -1    0    0  501    0  0.00000000000E+00  0.00000000000E+00  0.97623345671E+03  0.97623345671E+03  0.00000000000E+00 0. -1.
         -1   -1    0    0    0  501 -0.00000000000E+00 -0.00000000000E+00 -0.15442214893E+04  0.15442214893E+04  0.00000000000E+00 0.  1.
         23    2    1    2    0    0  0.72619543090E+03 -0.52319902636E+03 -0.11446057077E+04  0.14557554728E+04  0.89469243273E+02 0.  0.
         13    1    3    3    0    0  0.17877399922E+03 -0.15592102319E+03 -0.25165819603E+03  0.34583718120E+03  0.00000000000E+00 0. -1.
        -13    1    3    3    0    0  0.54742143168E+03 -0.36727800318E+03 -0.89294751165E+03  0.11099182916E+04  0.00000000000E+00 0.  1.
         22    1    1    2    0    0 -0.72619543090E+03  0.52319902636E+03  0.57661767508E+03  0.10646994732E+04  0.00000000000E+00 0.  1.
<mgrwt>
<rscale>  0 0.24556227E+04</rscale>
<asrwt>0</asrwt>
<pdfrwt beam="1">  1        1 0.15018976E+00 0.24556227E+04</pdfrwt>
<pdfrwt beam="2">  1       -1 0.23757254E+00 0.24556227E+04</pdfrwt>
<totfact> 0.11849088E+00</totfact>
</mgrwt>
</event>
<event>
 6    1  0.1028026E-006  0.1152150E+04  0.7818608E-02  0.9155803E-01
         -2   -1    0    0    0  501 -0.00000000000E+00  0.00000000000E+00  0.37490308072E+03  0.37490308072E+03  0.00000000000E+00 0.  1.
          2   -1    0    0  501    0  0.00000000000E+00 -0.00000000000E+00 -0.88519462852E+03  0.88519462852E+03  0.00000000000E+00 0. -1.
         23    2    1    2    0    0  0.41481273263E+03  0.82630915267E+02 -0.67867707816E+03  0.80484925164E+03  0.91006978540E+02 0.  0.
         13    1    3    3    0    0  0.29546172231E+03  0.98796525996E+02 -0.50893237694E+03  0.59671647137E+03  0.00000000000E+00 0. -1.
        -13    1    3    3    0    0  0.11935101033E+03 -0.16165610730E+02 -0.16974470121E+03  0.20813278028E+03  0.00000000000E+00 0.  1.
         22    1    1    2    0    0 -0.41481273263E+03 -0.82630915267E+02  0.16838553035E+03  0.45524845760E+03  0.00000000000E+00 0.  1.
<mgrwt>
<rscale>  0 0.11521496E+04</rscale>
<asrwt>0</asrwt>
<pdfrwt beam="1">  1        2 0.13618379E+00 0.11521496E+04</pdfrwt>
<pdfrwt beam="2">  1       -2 0.57677398E-01 0.11521496E+04</pdfrwt>
<totfact> 0.83619646E+01</totfact>
</mgrwt>
</event>
<event>
 6    1  0.1028026E-006  0.2731801E+04  0.7818608E-02  0.8324760E-01
          2   -1    0    0  501    0  0.00000000000E+00  0.00000000000E+00  0.36998134716E+04  0.36998134716E+04  0.00000000000E+00 0. -1.
         -2   -1    0    0    0  501 -0.00000000000E+00 -0.00000000000E+00 -0.50426439356E+03  0.50426439356E+03  0.00000000000E+00 0.  1.
         23    2    1    2    0    0 -0.10338871550E+04  0.75684645637E+03  0.23192477129E+04  0.26517752882E+04  0.10612736613E+03 0.  0.
         13    1    3    3    0    0 -0.43857591796E+03  0.38631144091E+03  0.10451509470E+04  0.11974664368E+04  0.00000000000E+00 0.  1.
        -13    1    3    3    0    0 -0.59531123699E+03  0.37053501545E+03  0.12740967659E+04  0.14543088514E+04  0.00000000000E+00 0. -1.
         22    1    1    2    0    0  0.10338871550E+04 -0.75684645637E+03  0.87630136510E+03  0.15523025769E+04  0.00000000000E+00 0.  1.
<mgrwt>
<rscale>  0 0.27318010E+04</rscale>
<asrwt>0</asrwt>
<pdfrwt beam="1">  1        2 0.56920206E+00 0.27318010E+04</pdfrwt>
<pdfrwt beam="2">  1       -2 0.77579140E-01 0.27318010E+04</pdfrwt>
<totfact> 0.75697699E-01</totfact>
</mgrwt>
</event>
<event>
 6    1  0.1925924E-006  0.2285633E+04  0.7818608E-02  0.8483608E-01
         -2   -1    0    0    0  501 -0.00000000000E+00  0.00000000000E+00  0.14893213430E+04  0.14893213430E+04  0.00000000000E+00 0.  1.
          2   -1    0    0  501    0  0.00000000000E+00 -0.00000000000E+00 -0.87692917480E+03  0.87692917480E+03  0.00000000000E+00 0. -1.
         23    2    1    2    0    0  0.72768400670E+03  0.87828806097E+03  0.33904229743E+03  0.11933762349E+04  0.91012234528E+02 0.  0.
         11    1    3    3    0    0  0.44398636982E+03  0.49468692877E+03  0.23521492695E+03  0.70509936601E+03  0.00000000000E+00 0. -1.
        -11    1    3    3    0    0  0.28369763687E+03  0.38360113221E+03  0.10382737047E+03  0.48827686885E+03  0.00000000000E+00 0.  1.
         22    1    1    2    0    0 -0.72768400670E+03 -0.87828806097E+03  0.27334987074E+03  0.11728742829E+04  0.00000000000E+00 0. -1.
<mgrwt>
<rscale>  0 0.22856328E+04</rscale>
<asrwt>0</asrwt>
<pdfrwt beam="1">  1        2 0.13491218E+00 0.22856328E+04</pdfrwt>
<pdfrwt beam="2">  1       -2 0.22912636E+00 0.22856328E+04</pdfrwt>
<totfact> 0.23887641E+00</totfact>
</mgrwt>
</event>
<event>
 6    1  0.1028026E-006  0.2056596E+04  0.7818608E-02  0.8580608E-01
          1   -1    0    0  501    0  0.00000000000E+00  0.00000000000E+00  0.19126381986E+04  0.19126381986E+04  0.00000000000E+00 0. -1.
         -1   -1    0    0    0  501 -0.00000000000E+00 -0.00000000000E+00 -0.55284751045E+03  0.55284751045E+03  0.00000000000E+00 0.  1.
         23    2    1    2    0    0  0.22750670228E+02  0.48949764906E+03 -0.39988682505E+03  0.63885205890E+03  0.89982992163E+02 0.  0.
         11    1    3    3    0    0  0.37972343961E+02  0.25166300066E+03 -0.15955191934E+03  0.30038804865E+03  0.00000000000E+00 0. -1.
        -11    1    3    3    0    0 -0.15221673732E+02  0.23783464841E+03 -0.24033490571E+03  0.33846401025E+03  0.00000000000E+00 0.  1.
         22    1    1    2    0    0 -0.22750670228E+02 -0.48949764906E+03  0.17596775132E+04  0.18266336502E+04  0.00000000000E+00 0. -1.
<mgrwt>
<rscale>  0 0.20565965E+04</rscale>
<asrwt>0</asrwt>
<pdfrwt beam="1">  1        1 0.29425203E+00 0.20565965E+04</pdfrwt>
<pdfrwt beam="2">  1       -1 0.85053464E-01 0.20565965E+04</pdfrwt>
<totfact> 0.43108707E+00</totfact>
</mgrwt>
</event>
<event>
 6    1  0.1028026E-006  0.1458511E+04  0.7818608E-02  0.8912521E-01
         -2   -1    0    0    0  501 -0.00000000000E+00  0.00000000000E+00  0.63115275321E+03  0.63115275321E+03  0.00000000000E+00 0.  1.
          2   -1    0    0  501    0  0.00000000000E+00 -0.00000000000E+00 -0.84260706929E+03  0.84260706929E+03  0.00000000000E+00 0. -1.
         23    2    1    2    0    0 -0.20343309065E+03 -0.74381361603E+02  0.59405287562E+03  0.63963786186E+03  0.96541006662E+02 0.  0.
         13    1    3    3    0    0 -0.47564545013E+02  0.92802158637E+01  0.22783340669E+03  0.23293039636E+03  0.00000000000E+00 0. -1.
        -13    1    3    3    0    0 -0.15586854563E+03 -0.83661577467E+02  0.36621946894E+03  0.40670746550E+03  0.00000000000E+00 0.  1.
         22    1    1    2    0    0  0.20343309065E+03  0.74381361603E+02 -0.80550719170E+03  0.83412196063E+03  0.00000000000E+00 0. -1.
<mgrwt>
<rscale>  0 0.14585113E+04</rscale>
<asrwt>0</asrwt>
<pdfrwt beam="1">  1        2 0.12963186E+00 0.14585113E+04</pdfrwt>
<pdfrwt beam="2">  1       -2 0.97100424E-01 0.14585113E+04</pdfrwt>
<totfact> 0.27569061E+01</totfact>
</mgrwt>
</event>
<event>
 6    1  0.1028026E-006  0.5630727E+04  0.7818608E-02  0.7737953E-01
         -1   -1    0    0    0  501 -0.00000000000E+00  0.00000000000E+00  0.27582329881E+04  0.27582329881E+04  0.00000000000E+00 0.  1.
          1   -1    0    0  501    0  0.00000000000E+00 -0.00000000000E+00 -0.28736774557E+04  0.28736774557E+04  0.00000000000E+00 0. -1.
         23    2    1    2    0    0  0.60372920656E+03  0.24862934402E+04 -0.12310890678E+04  0.28407087493E+04  0.88892518794E+02 0.  0.
         13    1    3    3    0    0  0.10647201877E+03  0.44084372120E+03 -0.25637661913E+03  0.52096875928E+03  0.00000000000E+00 0. -1.
        -13    1    3    3    0    0  0.49725718779E+03  0.20454497190E+04 -0.97471244863E+03  0.23197399900E+04  0.00000000000E+00 0.  1.
         22    1    1    2    0    0 -0.60372920656E+03 -0.24862934402E+04  0.11156446002E+04  0.27912016946E+04  0.00000000000E+00 0. -1.
<mgrwt>
<rscale>  0 0.56307271E+04</rscale>
<asrwt>0</asrwt>
<pdfrwt beam="1">  1        1 0.44210422E+00 0.56307271E+04</pdfrwt>
<pdfrwt beam="2">  1       -1 0.42434354E+00 0.56307271E+04</pdfrwt>
<totfact> 0.24720526E-03</totfact>
</mgrwt>
</event>
<event>
 6    1  0.1028026E-006  0.3895026E+04  0.7818608E-02  0.8026065E-01
          2   -1    0    0  501    0  0.00000000000E+00  0.00000000000E+00  0.24539723368E+04  0.24539723368E+04  0.00000000000E+00 0. -1.
         -2   -1    0    0    0  501 -0.00000000000E+00 -0.00000000000E+00 -0.15455782281E+04  0.15455782281E+04  0.00000000000E+00 0.  1.
         23    2    1    2    0    0 -0.63022380525E+03 -0.16524141134E+04 -0.38031391345E+03  0.18113040492E+04  0.92353880329E+02 0.  0.
         13    1    3    3    0    0 -0.26098760048E+03 -0.80577900289E+03 -0.19823308509E+03  0.86987969578E+03  0.00000000000E+00 0. -1.
        -13    1    3    3    0    0 -0.36923620476E+03 -0.84663511048E+03 -0.18208082836E+03  0.94142435345E+03  0.00000000000E+00 0.  1.
         22    1    1    2    0    0  0.63022380525E+03  0.16524141134E+04  0.12887080221E+04  0.21882465156E+04  0.00000000000E+00 0. -1.
<mgrwt>
<rscale>  0 0.38950257E+04</rscale>
<asrwt>0</asrwt>
<pdfrwt beam="1">  1        2 0.37753420E+00 0.38950257E+04</pdfrwt>
<pdfrwt beam="2">  1       -2 0.23778127E+00 0.38950257E+04</pdfrwt>
<totfact> 0.22515562E-01</totfact>
</mgrwt>
</event>
<event>
 6    1  0.1028026E-006  0.2576604E+04  0.7818608E-02  0.8376192E-01
         -2   -1    0    0    0  501 -0.00000000000E+00  0.00000000000E+00  0.16384108807E+04  0.16384108807E+04  0.00000000000E+00 0.  1.
          2   -1    0    0  501    0  0.00000000000E+00 -0.00000000000E+00 -0.10130074793E+04  0.10130074793E+04  0.00000000000E+00 0. -1.
         23    2    1    2    0    0  0.20011571717E+03 -0.72814118169E+03 -0.75836976268E+03  0.10750097675E+04  0.10141707205E+03 0.  0.
         13    1    3    3    0    0  0.11558013485E+03 -0.54561842375E+03 -0.51351023508E+03  0.75812333656E+03  0.00000000000E+00 0. -1.
        -13    1    3    3    0    0  0.84535582318E+02 -0.18252275793E+03 -0.24485952760E+03  0.31688643092E+03  0.00000000000E+00 0.  1.
         22    1    1    2    0    0 -0.20011571717E+03  0.72814118169E+03  0.13837731641E+04  0.15764085925E+04  0.00000000000E+00 0.  1.
<mgrwt>
<rscale>  0 0.25766043E+04</rscale>
<asrwt>0</asrwt>
<pdfrwt beam="1">  1        2 0.15584730E+00 0.25766043E+04</pdfrwt>
<pdfrwt beam="2">  1       -2 0.25206321E+00 0.25766043E+04</pdfrwt>
<totfact> 0.13665965E+00</totfact>
</mgrwt>
</event>
<event>
 6    1  0.1028026E-006  0.2208030E+04  0.7818608E-02  0.8515093E-01
         -2   -1    0    0    0  501 -0.00000000000E+00  0.00000000000E+00  0.61155430546E+03  0.61155430546E+03  0.00000000000E+00 0.  1.
          2   -1    0    0  501    0  0.00000000000E+00 -0.00000000000E+00 -0.19930341589E+04  0.19930341589E+04  0.00000000000E+00 0. -1.
         23    2    1    2    0    0  0.66568445945E+03  0.83305810289E+03 -0.36349566632E+03  0.11303383473E+04  0.91728281759E+02 0.  0.
         13    1    3    3    0    0  0.28109706476E+03  0.35336550623E+03 -0.20197930281E+03  0.49464975445E+03  0.00000000000E+00 0. -1.
        -13    1    3    3    0    0  0.38458739470E+03  0.47969259666E+03 -0.16151636351E+03  0.63568859289E+03  0.00000000000E+00 0.  1.
         22    1    1    2    0    0 -0.66568445945E+03 -0.83305810289E+03 -0.10179841871E+04  0.14742501170E+04  0.00000000000E+00 0. -1.
<mgrwt>
<rscale>  0 0.22080295E+04</rscale>
<asrwt>0</asrwt>
<pdfrwt beam="1">  1        2 0.30662064E+00 0.22080295E+04</pdfrwt>
<pdfrwt beam="2">  1       -2 0.94085278E-01 0.22080295E+04</pdfrwt>
<totfact> 0.58696658E+00</totfact>
</mgrwt>
</event>
<event>
 6    1  0.1028026E-006  0.3285811E+04  0.7818608E-02  0.8166515E-01
          2   -1    0    0  501    0  0.00000000000E+00  0.00000000000E+00  0.16705818271E+04  0.16705818271E+04  0.00000000000E+00 0. -1.
         -2   -1    0    0    0  501 -0.00000000000E+00 -0.00000000000E+00 -0.16156873386E+04  0.16156873386E+04  0.00000000000E+00 0.  1.
         23    2    1    2    0    0 -0.11605055825E+04 -0.87393023579E+03  0.79205079126E+03  0.16571814827E+04  0.91535493188E+02 0.  0.
         11    1    3    3    0    0 -0.95903580442E+03 -0.67856187022E+03  0.62873596405E+03  0.13324806934E+04  0.00000000000E+00 0.  1.
        -11    1    3    3    0    0 -0.20146977812E+03 -0.19536836557E+03  0.16331482720E+03  0.32470078926E+03  0.00000000000E+00 0. -1.
         22    1    1    2    0    0  0.11605055825E+04  0.87393023579E+03 -0.73715630280E+03  0.16290876830E+04  0.00000000000E+00 0.  1.
<mgrwt>
<rscale>  0 0.32858106E+04</rscale>
<asrwt>0</asrwt>
<pdfrwt beam="1">  1        2 0.25701259E+00 0.32858106E+04</pdfrwt>
<pdfrwt beam="2">  1       -2 0.24856728E+00 0.32858106E+04</pdfrwt>
<totfact> 0.55848436E-01</totfact>
</mgrwt>
</event>
<event>
 6    1  0.1028026E-006  0.6053024E+04  0.7818608E-02  0.7683862E-01
          2   -1    0    0  501    0  0.00000000000E+00  0.00000000000E+00  0.36714617689E+04  0.36714617689E+04  0.00000000000E+00 0. -1.
         -2   -1    0    0    0  501 -0.00000000000E+00 -0.00000000000E+00 -0.24948574545E+04  0.24948574545E+04  0.00000000000E+00 0.  1.
         23    2    1    2    0    0 -0.21707908281E+04 -0.13706344198E+04 -0.10429231691E+04  0.27726083073E+04  0.93255332279E+02 0.  0.
         13    1    3    3    0    0 -0.59359880584E+03 -0.39759512687E+03 -0.33045833706E+03  0.78717478347E+03  0.00000000000E+00 0. -1.
        -13    1    3    3    0    0 -0.15771920222E+04 -0.97303929297E+03 -0.71246483203E+03  0.19854335238E+04  0.00000000000E+00 0.  1.
         22    1    1    2    0    0  0.21707908281E+04  0.13706344198E+04  0.22195274835E+04  0.33937109161E+04  0.00000000000E+00 0. -1.
<mgrwt>
<rscale>  0 0.60530236E+04</rscale>
<asrwt>0</asrwt>
<pdfrwt beam="1">  1        2 0.56484027E+00 0.60530236E+04</pdfrwt>
<pdfrwt beam="2">  1       -2 0.38382422E+00 0.60530236E+04</pdfrwt>
<totfact> 0.38754286E-03</totfact>
</mgrwt>
</event>
<event>
 6    1  0.1028026E-006  0.1299874E+04  0.7818608E-02  0.9029665E-01
          2   -1    0    0  501    0  0.00000000000E+00  0.00000000000E+00  0.13250241855E+04  0.13250241855E+04  0.00000000000E+00 0. -1.
         -2   -1    0    0    0  501 -0.00000000000E+00 -0.00000000000E+00 -0.31880015212E+03  0.31880015212E+03  0.00000000000E+00 0.  1.
         23    2    1    2    0    0  0.48452488008E+03  0.36288619559E+03  0.79242249655E+03  0.10018260140E+04  0.96287065200E+02 0.  0.
         11    1    3    3    0    0  0.24869224336E+03  0.18884324783E+03  0.32987081357E+03  0.45422941099E+03  0.00000000000E+00 0. -1.
        -11    1    3    3    0    0  0.23583263671E+03  0.17404294776E+03  0.46255168298E+03  0.54759660301E+03  0.00000000000E+00 0.  1.
         22    1    1    2    0    0 -0.48452488008E+03 -0.36288619559E+03  0.21380153682E+03  0.64199832361E+03  0.00000000000E+00 0. -1.
<mgrwt>
<rscale>  0 0.12998737E+04</rscale>
<asrwt>0</asrwt>
<pdfrwt beam="1">  1        2 0.20384987E+00 0.12998737E+04</pdfrwt>
<pdfrwt beam="2">  1       -2 0.49046178E-01 0.12998737E+04</pdfrwt>
<totfact> 0.61652985E+01</totfact>
</mgrwt>
</event>
<event>
 6    1  0.1028026E-006  0.1694565E+04  0.7818608E-02  0.8764470E-01
         -1   -1    0    0    0  501 -0.00000000000E+00  0.00000000000E+00  0.40840080947E+03  0.40840080947E+03  0.00000000000E+00 0.  1.
          1   -1    0    0  501    0  0.00000000000E+00 -0.00000000000E+00 -0.17578021599E+04  0.17578021599E+04  0.00000000000E+00 0. -1.
         23    2    1    2    0    0  0.59916815589E+03  0.42593988444E+02 -0.14362140526E+04  0.15592819102E+04  0.88501658113E+02 0.  0.
         13    1    3    3    0    0  0.20362531799E+03 -0.20930651552E+02 -0.54474865006E+03  0.58193853116E+03  0.00000000000E+00 0. -1.
        -13    1    3    3    0    0  0.39554283790E+03  0.63524639996E+02 -0.89146540257E+03  0.97734337900E+03  0.00000000000E+00 0.  1.
         22    1    1    2    0    0 -0.59916815589E+03 -0.42593988444E+02  0.86812702178E+02  0.60692105924E+03  0.00000000000E+00 0.  1.
<mgrwt>
<rscale>  0 0.16945652E+04</rscale>
<asrwt>0</asrwt>
<pdfrwt beam="1">  1        1 0.27043110E+00 0.16945652E+04</pdfrwt>
<pdfrwt beam="2">  1       -1 0.62830894E-01 0.16945652E+04</pdfrwt>
<totfact> 0.10646590E+01</totfact>
</mgrwt>
</event>
<event>
 6    1  0.1028026E-006  0.1852085E+04  0.7818608E-02  0.8679081E-01
          2   -1    0    0  501    0  0.00000000000E+00  0.00000000000E+00  0.18299370001E+04  0.18299370001E+04  0.00000000000E+00 0. -1.
         -2   -1    0    0    0  501 -0.00000000000E+00 -0.00000000000E+00 -0.46862547857E+03  0.46862547857E+03  0.00000000000E+00 0.  1.
         23    2    1    2    0    0  0.39953951157E+03  0.10746628765E+03  0.17066318823E+04  0.17596497066E+04  0.11222247595E+03 0.  0.
         13    1    3    3    0    0  0.22885848209E+03  0.51705724102E+01  0.85971919246E+03  0.88967411423E+03  0.00000000000E+00 0. -1.
        -13    1    3    3    0    0  0.17068102948E+03  0.10229571524E+03  0.84691268980E+03  0.86997559237E+03  0.00000000000E+00 0.  1.
         22    1    1    2    0    0 -0.39953951157E+03 -0.10746628765E+03 -0.34532036077E+03  0.53891277203E+03  0.00000000000E+00 0.  1.
<mgrwt>
<rscale>  0 0.18520854E+04</rscale>
<asrwt>0</asrwt>
<pdfrwt beam="1">  1        2 0.28152877E+00 0.18520854E+04</pdfrwt>
<pdfrwt beam="2">  1       -2 0.72096229E-01 0.18520854E+04</pdfrwt>
<totfact> 0.13602956E+01</totfact>
</mgrwt>
</event>
<event>
 6    1  0.1028026E-006  0.1862136E+04  0.7818608E-02  0.8673937E-01
          2   -1    0    0  501    0  0.00000000000E+00  0.00000000000E+00  0.20092701733E+04  0.20092701733E+04  0.00000000000E+00 0. -1.
         -2   -1    0    0    0  501 -0.00000000000E+00 -0.00000000000E+00 -0.43144408671E+03  0.43144408671E+03  0.00000000000E+00 0.  1.
         23    2    1    2    0    0  0.60734756124E+03 -0.27199516505E+02 -0.12919946739E+03  0.62865821348E+03  0.94381000041E+02 0.  0.
         13    1    3    3    0    0  0.40737670185E+03 -0.52472407784E+02 -0.11529810337E+03  0.42661784237E+03  0.00000000000E+00 0. -1.
        -13    1    3    3    0    0  0.19997085939E+03  0.25272891279E+02 -0.13901364015E+02  0.20204037111E+03  0.00000000000E+00 0.  1.
         22    1    1    2    0    0 -0.60734756124E+03  0.27199516505E+02  0.17070255540E+04  0.18120560465E+04  0.00000000000E+00 0. -1.
<mgrwt>
<rscale>  0 0.18621361E+04</rscale>
<asrwt>0</asrwt>
<pdfrwt beam="1">  1        2 0.30911848E+00 0.18621361E+04</pdfrwt>
<pdfrwt beam="2">  1       -2 0.66376015E-01 0.18621361E+04</pdfrwt>
<totfact> 0.12941477E+01</totfact>
</mgrwt>
</event>
<event>
 6    1  0.1028026E-006  0.2036911E+04  0.7818608E-02  0.8589555E-01
         -1   -1    0    0    0  501 -0.00000000000E+00  0.00000000000E+00  0.29008852498E+03  0.29008852498E+03  0.00000000000E+00 0.  1.
          1   -1    0    0  501    0  0.00000000000E+00 -0.00000000000E+00 -0.35756385398E+04  0.35756385398E+04  0.00000000000E+00 0. -1.
         23    2    1    2    0    0  0.57244847640E+03  0.29038670847E+03 -0.15035873112E+03  0.66550112212E+03  0.90897177813E+02 0.  0.
         11    1    3    3    0    0  0.13149315730E+03  0.65621047840E+02  0.41274053364E+01  0.14701567199E+03  0.00000000000E+00 0. -1.
        -11    1    3    3    0    0  0.44095531910E+03  0.22476566063E+03 -0.15448613645E+03  0.51848545014E+03  0.00000000000E+00 0.  1.
         22    1    1    2    0    0 -0.57244847640E+03 -0.29038670847E+03 -0.31351912837E+04  0.32002259426E+04  0.00000000000E+00 0. -1.
<mgrwt>
<rscale>  0 0.20369111E+04</rscale>
<asrwt>0</asrwt>
<pdfrwt beam="1">  1        1 0.55009824E+00 0.20369111E+04</pdfrwt>
<pdfrwt beam="2">  1       -1 0.44629003E-01 0.20369111E+04</pdfrwt>
<totfact> 0.10053549E+00</totfact>
</mgrwt>
</event>
<event>
 6    1  0.1028026E-006  0.2721105E+04  0.7818608E-02  0.8328189E-01
          2   -1    0    0  501    0  0.00000000000E+00  0.00000000000E+00  0.10106027020E+04  0.10106027020E+04  0.00000000000E+00 0. -1.
         -2   -1    0    0    0  501 -0.00000000000E+00 -0.00000000000E+00 -0.18316824980E+04  0.18316824980E+04  0.00000000000E+00 0.  1.
         23    2    1    2    0    0  0.19409064350E+03 -0.12165086264E+04 -0.10104923710E+04  0.15959138510E+04  0.91004241862E+02 0.  0.
         11    1    3    3    0    0  0.18409873448E+03 -0.11931800259E+04 -0.97270603005E+03  0.15503960588E+04  0.00000000000E+00 0. -1.
        -11    1    3    3    0    0  0.99919090203E+01 -0.23328600511E+02 -0.37786340931E+02  0.45517792221E+02  0.00000000000E+00 0.  1.
         22    1    1    2    0    0 -0.19409064350E+03  0.12165086264E+04  0.18941257496E+03  0.12463713489E+04  0.00000000000E+00 0. -1.
<mgrwt>
<rscale>  0 0.27211051E+04</rscale>
<asrwt>0</asrwt>
<pdfrwt beam="1">  1        2 0.15547734E+00 0.27211051E+04</pdfrwt>
<pdfrwt beam="2">  1       -2 0.28179731E+00 0.27211051E+04</pdfrwt>
<totfact> 0.89172289E-01</totfact>
</mgrwt>
</event>
<event>
 6    1  0.1028026E-006  0.3504371E+04  0.7818608E-02  0.8112755E-01
         -1   -1    0    0    0  501 -0.00000000000E+00  0.00000000000E+00  0.12214160443E+04  0.12214160443E+04  0.00000000000E+00 0.  1.
          1   -1    0    0  501    0  0.00000000000E+00 -0.00000000000E+00 -0.25136028723E+04  0.25136028723E+04  0.00000000000E+00 0. -1.
         23    2    1    2    0    0  0.87130829746E+03  0.92923390169E+03  0.63407717526E+03  0.14256582252E+04  0.88282034137E+02 0.  0.
         11    1    3    3    0    0  0.50208101053E+03  0.53193062289E+03  0.41253882582E+03  0.83977604843E+03  0.00000000000E+00 0. -1.
        -11    1    3    3    0    0  0.36922728693E+03  0.39730327879E+03  0.22153834944E+03  0.58588217674E+03  0.00000000000E+00 0.  1.
         22    1    1    2    0    0 -0.87130829746E+03 -0.92923390169E+03 -0.19262640032E+04  0.23093606915E+04  0.00000000000E+00 0. -1.
<mgrwt>
<rscale>  0 0.35043715E+04</rscale>
<asrwt>0</asrwt>
<pdfrwt beam="1">  1        1 0.38670814E+00 0.35043715E+04</pdfrwt>
<pdfrwt beam="2">  1       -1 0.18791016E+00 0.35043715E+04</pdfrwt>
<totfact> 0.19757319E-01</totfact>
</mgrwt>
</event>
<event>
 6    1  0.1028026E-006  0.2040388E+04  0.7818608E-02  0.8587967E-01
         -1   -1    0    0    0  501 -0.00000000000E+00  0.00000000000E+00  0.28903176064E+03  0.28903176064E+03  0.00000000000E+00 0.  1.
          1   -1    0    0  501    0  0.00000000000E+00 -0.00000000000E+00 -0.36009728239E+04  0.36009728239E+04  0.00000000000E+00 0. -1.
         23    2    1    2    0    0 -0.49700249999E+03  0.37127729991E+03 -0.12028128323E+03  0.63861250269E+03  0.92195569737E+02 0.  0.
         11    1    3    3    0    0 -0.42443883509E+03  0.27333943568E+03 -0.10644384242E+03  0.51593901134E+03  0.00000000000E+00 0.  1.
        -11    1    3    3    0    0 -0.72563664895E+02  0.97937864232E+02 -0.13837440813E+02  0.12267349136E+03  0.00000000000E+00 0. -1.
         22    1    1    2    0    0  0.49700249999E+03 -0.37127729991E+03 -0.31916597800E+04  0.32513920819E+04  0.00000000000E+00 0. -1.
<mgrwt>
<rscale>  0 0.20403877E+04</rscale>
<asrwt>0</asrwt>
<pdfrwt beam="1">  1        1 0.55399582E+00 0.20403877E+04</pdfrwt>
<pdfrwt beam="2">  1       -1 0.44466424E-01 0.20403877E+04</pdfrwt>
<totfact> 0.96577674E-01</totfact>
</mgrwt>
</event>
<event>
 6    1  0.1028026E-006  0.1359602E+04  0.7818608E-02  0.8983591E-01
          1   -1    0    0  501    0  0.00000000000E+00  0.00000000000E+00  0.42048178924E+03  0.42048178924E+03  0.00000000000E+00 0. -1.
         -1   -1    0    0    0  501 -0.00000000000E+00 -0.00000000000E+00 -0.10990467076E+04  0.10990467076E+04  0.00000000000E+00 0.  1.
         23    2    1    2    0    0  0.58433242016E+02  0.17361941073E+03 -0.10691847318E+04  0.10880867485E+04  0.84962568889E+02 0.  0.
         13    1    3    3    0    0  0.12361745256E+02  0.78677233161E+01 -0.27932081760E+03  0.27970490335E+03  0.00000000000E+00 0. -1.
        -13    1    3    3    0    0  0.46071496760E+02  0.16575168741E+03 -0.78986391417E+03  0.80838184517E+03  0.00000000000E+00 0.  1.
         22    1    1    2    0    0 -0.58433242016E+02 -0.17361941073E+03  0.39061981341E+03  0.43144174831E+03  0.00000000000E+00 0. -1.
<mgrwt>
<rscale>  0 0.13596016E+04</rscale>
<asrwt>0</asrwt>
<pdfrwt beam="1">  1        1 0.64689507E-01 0.13596016E+04</pdfrwt>
<pdfrwt beam="2">  1       -1 0.16908411E+00 0.13596016E+04</pdfrwt>
<totfact> 0.13716287E+01</totfact>
</mgrwt>
</event>
<event>
 6    1  0.1028026E-006  0.2943649E+04  0.7818608E-02  0.8260008E-01
          1   -1    0    0  501    0  0.00000000000E+00  0.00000000000E+00  0.15616825822E+04  0.15616825822E+04  0.00000000000E+00 0. -1.
         -1   -1    0    0    0  501 -0.00000000000E+00 -0.00000000000E+00 -0.13871363697E+04  0.13871363697E+04  0.00000000000E+00 0.  1.
         23    2    1    2    0    0 -0.75198757411E+03  0.38791428172E+03  0.12920065821E+04  0.15471483489E+04  0.91783461317E+02 0.  0.
         13    1    3    3    0    0 -0.12900236701E+03  0.48003335915E+02  0.15980893973E+03  0.21091426735E+03  0.00000000000E+00 0.  1.
        -13    1    3    3    0    0 -0.62298520709E+03  0.33991094580E+03  0.11321976424E+04  0.13362340816E+04  0.00000000000E+00 0. -1.
         22    1    1    2    0    0  0.75198757411E+03 -0.38791428172E+03 -0.11174603696E+04  0.14016706029E+04  0.00000000000E+00 0.  1.
<mgrwt>
<rscale>  0 0.29436486E+04</rscale>
<asrwt>0</asrwt>
<pdfrwt beam="1">  1        1 0.24025886E+00 0.29436486E+04</pdfrwt>
<pdfrwt beam="2">  1       -1 0.21340559E+00 0.29436486E+04</pdfrwt>
<totfact> 0.61815952E-01</totfact>
</mgrwt>
</event>
<event>
 6    1  0.1028026E-006  0.8230610E+03  0.7818608E-02  0.9527224E-01
         -1   -1    0    0    0  501 -0.00000000000E+00  0.00000000000E+00  0.20141115288E+03  0.20141115288E+03  0.00000000000E+00 0.  1.
          1   -1    0    0  501    0  0.00000000000E+00 -0.00000000000E+00 -0.84085383192E+03  0.84085383192E+03  0.00000000000E+00 0. -1.
         23    2    1    2    0    0 -0.11270223910E+03  0.32577752070E+03 -0.59587624973E+03  0.69480157456E+03  0.94063464425E+02 0.  0.
         11    1    3    3    0    0 -0.54362941850E+02  0.15432275910E+03 -0.19254489791E+03  0.25267445683E+03  0.00000000000E+00 0. -1.
        -11    1    3    3    0    0 -0.58339297254E+02  0.17145476159E+03 -0.40333135182E+03  0.44212711774E+03  0.00000000000E+00 0.  1.
         22    1    1    2    0    0  0.11270223910E+03 -0.32577752070E+03 -0.43566429307E+02  0.34746341024E+03  0.00000000000E+00 0.  1.
<mgrwt>
<rscale>  0 0.82306097E+03</rscale>
<asrwt>0</asrwt>
<pdfrwt beam="1">  1        1 0.12936213E+00 0.82306097E+03</pdfrwt>
<pdfrwt beam="2">  1       -1 0.30986332E-01 0.82306097E+03</pdfrwt>
<totfact> 0.19829588E+02</totfact>
</mgrwt>
</event>
<event>
 6    1  0.1028026E-006  0.1949389E+04  0.7818608E-02  0.8630655E-01
          2   -1    0    0  501    0  0.00000000000E+00  0.00000000000E+00  0.86993265176E+03  0.86993265176E+03  0.00000000000E+00 0. -1.
         -2   -1    0    0    0  501 -0.00000000000E+00 -0.00000000000E+00 -0.10920723671E+04  0.10920723671E+04  0.00000000000E+00 0.  1.
         23    2    1    2    0    0  0.41435591024E+03  0.14547459348E+03  0.76182522501E+03  0.88448904146E+03  0.95338939076E+02 0.  0.
         13    1    3    3    0    0  0.53438371640E+02  0.34798557084E+02  0.59910232574E+02  0.87497629144E+02  0.00000000000E+00 0. -1.
        -13    1    3    3    0    0  0.36091753860E+03  0.11067603640E+03  0.70191499244E+03  0.79699141232E+03  0.00000000000E+00 0.  1.
         22    1    1    2    0    0 -0.41435591024E+03 -0.14547459348E+03 -0.98396494034E+03  0.10775159774E+04  0.00000000000E+00 0.  1.
<mgrwt>
<rscale>  0 0.19493890E+04</rscale>
<asrwt>0</asrwt>
<pdfrwt beam="1">  1        2 0.13383579E+00 0.19493890E+04</pdfrwt>
<pdfrwt beam="2">  1       -2 0.16801113E+00 0.19493890E+04</pdfrwt>
<totfact> 0.63134629E+00</totfact>
</mgrwt>
</event>
<event>
 6    1  0.1028026E-006  0.3467888E+04  0.7818608E-02  0.8121442E-01
          2   -1    0    0  501    0  0.00000000000E+00  0.00000000000E+00  0.21172882326E+04  0.21172882326E+04  0.00000000000E+00 0. -1.
         -2   -1    0    0    0  501 -0.00000000000E+00 -0.00000000000E+00 -0.14200060509E+04  0.14200060509E+04  0.00000000000E+00 0.  1.
         23    2    1    2    0    0  0.12156316478E+04  0.14094025332E+03  0.16000801245E+04  0.20165482219E+04  0.92659960194E+02 0.  0.
         13    1    3    3    0    0  0.83913285918E+03  0.13932290514E+03  0.11238541083E+04  0.14094690078E+04  0.00000000000E+00 0. -1.
        -13    1    3    3    0    0  0.37649878864E+03  0.16173481897E+01  0.47622601622E+03  0.60707921410E+03  0.00000000000E+00 0.  1.
         22    1    1    2    0    0 -0.12156316478E+04 -0.14094025332E+03 -0.90279794282E+03  0.15207460616E+04  0.00000000000E+00 0.  1.
<mgrwt>
<rscale>  0 0.34678882E+04</rscale>
<asrwt>0</asrwt>
<pdfrwt beam="1">  1        2 0.32573665E+00 0.34678882E+04</pdfrwt>
<pdfrwt beam="2">  1       -2 0.21846247E+00 0.34678882E+04</pdfrwt>
<totfact> 0.47857447E-01</totfact>
</mgrwt>
</event>
<event>
 6    1  0.1028026E-006  0.8684727E+03  0.7818608E-02  0.9465873E-01
          1   -1    0    0  501    0  0.00000000000E+00  0.00000000000E+00  0.13745539302E+04  0.13745539302E+04  0.00000000000E+00 0. -1.
         -1   -1    0    0    0  501 -0.00000000000E+00 -0.00000000000E+00 -0.13717993789E+03  0.13717993789E+03  0.00000000000E+00 0.  1.
         23    2    1    2    0    0 -0.20371061782E+03  0.16130719062E+03  0.26756397914E+02  0.27354447005E+03  0.81195115063E+02 0.  0.
         11    1    3    3    0    0 -0.27634506069E+02  0.62294634331E+02  0.21537794512E+02  0.71471420754E+02  0.00000000000E+00 0. -1.
        -11    1    3    3    0    0 -0.17607611175E+03  0.99012556286E+02  0.52186034012E+01  0.20207304930E+03  0.00000000000E+00 0.  1.
         22    1    1    2    0    0  0.20371061782E+03 -0.16130719062E+03  0.12106175944E+04  0.12381893981E+04  0.00000000000E+00 0. -1.
<mgrwt>
<rscale>  0 0.86847273E+03</rscale>
<asrwt>0</asrwt>
<pdfrwt beam="1">  1        1 0.21146983E+00 0.86847273E+03</pdfrwt>
<pdfrwt beam="2">  1       -1 0.21104607E-01 0.86847273E+03</pdfrwt>
<totfact> 0.15101849E+02</totfact>
</mgrwt>
</event>
<event>
 6    1  0.1028026E-006  0.6111650E+03  0.7818608E-02  0.9882509E-01
         -2   -1    0    0    0  501 -0.00000000000E+00  0.00000000000E+00  0.76569880502E+02  0.76569880502E+02  0.00000000000E+00 0.  1.
          2   -1    0    0  501    0  0.00000000000E+00 -0.00000000000E+00 -0.12195481799E+04  0.12195481799E+04  0.00000000000E+00 0. -1.
         23    2    1    2    0    0 -0.28131957338E+03  0.10048773633E+03 -0.57301187181E+03  0.65261187077E+03  0.91220398558E+02 0.  0.
         11    1    3    3    0    0 -0.16027855976E+03  0.70027303822E+02 -0.42123302816E+03  0.45610339180E+03  0.00000000000E+00 0.  1.
        -11    1    3    3    0    0 -0.12104101362E+03  0.30460432506E+02 -0.15177884365E+03  0.19650847897E+03  0.00000000000E+00 0. -1.
         22    1    1    2    0    0  0.28131957338E+03 -0.10048773633E+03 -0.56996642755E+03  0.64350618960E+03  0.00000000000E+00 0. -1.
<mgrwt>
<rscale>  0 0.61116498E+03</rscale>
<asrwt>0</asrwt>
<pdfrwt beam="1">  1        2 0.18762278E+00 0.61116498E+03</pdfrwt>
<pdfrwt beam="2">  1       -2 0.11779983E-01 0.61116498E+03</pdfrwt>
<totfact> 0.97915016E+02</totfact>
</mgrwt>
</event>
<event>
 6    1  0.1028026E-006  0.7265000E+03  0.7818608E-02  0.9672957E-01
          2   -1    0    0  501    0  0.00000000000E+00  0.00000000000E+00  0.66679130123E+03  0.66679130123E+03  0.00000000000E+00 0. -1.
         -2   -1    0    0    0  501 -0.00000000000E+00 -0.00000000000E+00 -0.19788885248E+03  0.19788885248E+03  0.00000000000E+00 0.  1.
         23    2    1    2    0    0 -0.48089734398E+02  0.30471767835E+02  0.65832012581E+03  0.66689186394E+03  0.90101159534E+02 0.  0.
         13    1    3    3    0    0 -0.42171838916E+02 -0.22544635857E+02  0.41775279487E+03  0.42048082266E+03  0.00000000000E+00 0.  1.
        -13    1    3    3    0    0 -0.59178954812E+01  0.53016403692E+02  0.24056733094E+03  0.24641104128E+03  0.00000000000E+00 0. -1.
         22    1    1    2    0    0  0.48089734398E+02 -0.30471767835E+02 -0.18941767706E+03  0.19778828977E+03  0.00000000000E+00 0.  1.
<mgrwt>
<rscale>  0 0.72650001E+03</rscale>
<asrwt>0</asrwt>
<pdfrwt beam="1">  1        2 0.10258328E+00 0.72650001E+03</pdfrwt>
<pdfrwt beam="2">  1       -2 0.30444439E-01 0.72650001E+03</pdfrwt>
<totfact> 0.43707727E+02</totfact>
</mgrwt>
</event>
<event>
 6    1  0.1028026E-006  0.2784949E+04  0.7818608E-02  0.8307956E-01
          1   -1    0    0  501    0  0.00000000000E+00  0.00000000000E+00  0.71963458674E+03  0.71963458674E+03  0.00000000000E+00 0. -1.
         -1   -1    0    0    0  501 -0.00000000000E+00 -0.00000000000E+00 -0.26944026694E+04  0.26944026694E+04  0.00000000000E+00 0.  1.
         23    2    1    2    0    0 -0.27475533856E+00 -0.19913528775E+03 -0.26760463864E+04  0.26850336912E+04  0.92340253392E+02 0.  0.
         11    1    3    3    0    0  0.37445562878E+02 -0.13245751385E+03 -0.14209488299E+04  0.14276003433E+04  0.00000000000E+00 0.  1.
        -11    1    3    3    0    0 -0.37720318216E+02 -0.66677773898E+02 -0.12550975565E+04  0.12574333479E+04  0.00000000000E+00 0. -1.
         22    1    1    2    0    0  0.27475533856E+00  0.19913528775E+03  0.70127830377E+03  0.72900356491E+03  0.00000000000E+00 0. -1.
<mgrwt>
<rscale>  0 0.27849491E+04</rscale>
<asrwt>0</asrwt>
<pdfrwt beam="1">  1        1 0.11071302E+00 0.27849491E+04</pdfrwt>
<pdfrwt beam="2">  1       -1 0.41452348E+00 0.27849491E+04</pdfrwt>
<totfact> 0.12865788E-01</totfact>
</mgrwt>
</event>
<event>
 6    1  0.1028026E-006  0.2470890E+04  0.7818608E-02  0.8413430E-01
          2   -1    0    0  501    0  0.00000000000E+00  0.00000000000E+00  0.98804099888E+03  0.98804099888E+03  0.00000000000E+00 0. -1.
         -2   -1    0    0    0  501 -0.00000000000E+00 -0.00000000000E+00 -0.15447983009E+04  0.15447983009E+04  0.00000000000E+00 0.  1.
         23    2    1    2    0    0 -0.57474013912E+03  0.24567626289E+03 -0.13695492631E+04  0.15075033424E+04  0.78854864336E+02 0.  0.
         11    1    3    3    0    0 -0.51269118436E+03  0.20207513929E+03 -0.12477279373E+04  0.13640057251E+04  0.00000000000E+00 0. -1.
        -11    1    3    3    0    0 -0.62048954762E+02  0.43601123604E+02 -0.12182132576E+03  0.14349761732E+03  0.00000000000E+00 0.  1.
         22    1    1    2    0    0  0.57474013912E+03 -0.24567626289E+03  0.81279196104E+03  0.10253359574E+04  0.00000000000E+00 0. -1.
<mgrwt>
<rscale>  0 0.24708898E+04</rscale>
<asrwt>0</asrwt>
<pdfrwt beam="1">  1        2 0.15200631E+00 0.24708898E+04</pdfrwt>
<pdfrwt beam="2">  1       -2 0.23766128E+00 0.24708898E+04</pdfrwt>
<totfact> 0.17554110E+00</totfact>
</mgrwt>
</event>
<event>
 6    1  0.1296504E-006  0.2978532E+04  0.7818608E-02  0.8249888E-01
         -2   -1    0    0    0  501 -0.00000000000E+00  0.00000000000E+00  0.12844198458E+04  0.12844198458E+04  0.00000000000E+00 0.  1.
          2   -1    0    0  501    0  0.00000000000E+00 -0.00000000000E+00 -0.17267820427E+04  0.17267820427E+04  0.00000000000E+00 0. -1.
         23    2    1    2    0    0  0.14567406477E+04 -0.24004437269E+03 -0.40853670203E+03  0.15344287916E+04  0.88627670307E+02 0.  0.
         11    1    3    3    0    0  0.87827427301E+03 -0.11351643545E+03 -0.21298234145E+03  0.91083102578E+03  0.00000000000E+00 0. -1.
        -11    1    3    3    0    0  0.57846637472E+03 -0.12652793724E+03 -0.19555436058E+03  0.62359776581E+03  0.00000000000E+00 0.  1.
         22    1    1    2    0    0 -0.14567406477E+04  0.24004437269E+03 -0.33825494817E+02  0.14767730969E+04  0.00000000000E+00 0. -1.
<mgrwt>
<rscale>  0 0.29785319E+04</rscale>
<asrwt>0</asrwt>
<pdfrwt beam="1">  1        2 0.26565878E+00 0.29785319E+04</pdfrwt>
<pdfrwt beam="2">  1       -2 0.19760305E+00 0.29785319E+04</pdfrwt>
<totfact> 0.11209265E+00</totfact>
</mgrwt>
</event>
<event>
 6    1  0.1028026E-006  0.8858343E+03  0.7818608E-02  0.9443465E-01
          2   -1    0    0  501    0  0.00000000000E+00  0.00000000000E+00  0.10159592102E+04  0.10159592102E+04  0.00000000000E+00 0. -1.
         -2   -1    0    0    0  501 -0.00000000000E+00 -0.00000000000E+00 -0.19309395822E+03  0.19309395822E+03  0.00000000000E+00 0.  1.
         23    2    1    2    0    0  0.15158396656E+03 -0.79491078265E+02  0.96638648879E+03  0.98568155911E+03  0.91480925967E+02 0.  0.
         11    1    3    3    0    0  0.30267012805E+02 -0.64232245857E+02  0.39909911472E+03  0.40536647227E+03  0.00000000000E+00 0.  1.
        -11    1    3    3    0    0  0.12131695375E+03 -0.15258832408E+02  0.56728737406E+03  0.58031508683E+03  0.00000000000E+00 0. -1.
         22    1    1    2    0    0 -0.15158396656E+03  0.79491078265E+02 -0.14352123679E+03  0.22337160932E+03  0.00000000000E+00 0.  1.
<mgrwt>
<rscale>  0 0.88583426E+03</rscale>
<asrwt>0</asrwt>
<pdfrwt beam="1">  1        2 0.15630141E+00 0.88583426E+03</pdfrwt>
<pdfrwt beam="2">  1       -2 0.29706763E-01 0.88583426E+03</pdfrwt>
<totfact> 0.25735990E+02</totfact>
</mgrwt>
</event>
<event>
 6    1  0.1028026E-006  0.2077810E+04  0.7818608E-02  0.8571082E-01
         -1   -1    0    0    0  501 -0.00000000000E+00  0.00000000000E+00  0.40066696011E+03  0.40066696011E+03  0.00000000000E+00 0.  1.
          1   -1    0    0  501    0  0.00000000000E+00 -0.00000000000E+00 -0.26938181212E+04  0.26938181212E+04  0.00000000000E+00 0. -1.
         23    2    1    2    0    0  0.95005494652E+03 -0.20636302791E+03 -0.61203021211E+03  0.11524866916E+04  0.91948317044E+02 0.  0.
         11    1    3    3    0    0  0.53711181259E+03 -0.16071213636E+03 -0.33422615322E+03  0.65270560860E+03  0.00000000000E+00 0.  1.
        -11    1    3    3    0    0  0.41294313393E+03 -0.45650891552E+02 -0.27780405888E+03  0.49978108297E+03  0.00000000000E+00 0. -1.
         22    1    1    2    0    0 -0.95005494652E+03  0.20636302791E+03 -0.16811209490E+04  0.19419983898E+04  0.00000000000E+00 0. -1.
<mgrwt>
<rscale>  0 0.20778103E+04</rscale>
<asrwt>0</asrwt>
<pdfrwt beam="1">  1        1 0.41443356E+00 0.20778103E+04</pdfrwt>
<pdfrwt beam="2">  1       -1 0.61641070E-01 0.20778103E+04</pdfrwt>
<totfact> 0.24398665E+00</totfact>
</mgrwt>
</event>
<event>
 6    1  0.1028026E-006  0.1985115E+04  0.7818608E-02  0.8613612E-01
          1   -1    0    0  501    0  0.00000000000E+00  0.00000000000E+00  0.12122344832E+04  0.12122344832E+04  0.00000000000E+00 0. -1.
         -1   -1    0    0    0  501 -0.00000000000E+00 -0.00000000000E+00 -0.81268953042E+03  0.81268953042E+03  0.00000000000E+00 0.  1.
         23    2    1    2    0    0 -0.66576453013E+03 -0.13465338338E+02  0.94813826425E+03  0.11621503780E+04  0.90573771180E+02 0.  0.
         13    1    3    3    0    0 -0.30709506731E+03 -0.49866965500E+02  0.45930710471E+03  0.55475860611E+03  0.00000000000E+00 0.  1.
        -13    1    3    3    0    0 -0.35866946282E+03  0.36401627162E+02  0.48883115953E+03  0.60739177188E+03  0.00000000000E+00 0. -1.
         22    1    1    2    0    0  0.66576453013E+03  0.13465338338E+02 -0.54859331147E+03  0.86277363561E+03  0.00000000000E+00 0.  1.
<mgrwt>
<rscale>  0 0.19851149E+04</rscale>
<asrwt>0</asrwt>
<pdfrwt beam="1">  1        1 0.18649761E+00 0.19851149E+04</pdfrwt>
<pdfrwt beam="2">  1       -1 0.12502916E+00 0.19851149E+04</pdfrwt>
<totfact> 0.54385413E+00</totfact>
</mgrwt>
</event>
<event>
 6    1  0.1028026E-006  0.6327471E+04  0.7818608E-02  0.7651074E-01
          1   -1    0    0  501    0  0.00000000000E+00  0.00000000000E+00  0.24101463614E+04  0.24101463614E+04  0.00000000000E+00 0. -1.
         -1   -1    0    0    0  501 -0.00000000000E+00 -0.00000000000E+00 -0.41529515627E+04  0.41529515627E+04  0.00000000000E+00 0.  1.
         23    2    1    2    0    0  0.95999694268E+03  0.21472055258E+04 -0.30653539515E+04  0.38647241737E+04  0.87249019496E+02 0.  0.
         13    1    3    3    0    0  0.36919490187E+03  0.89496061302E+03 -0.13146697877E+04  0.16326714382E+04  0.00000000000E+00 0. -1.
        -13    1    3    3    0    0  0.59080204081E+03  0.12522449127E+04 -0.17506841638E+04  0.22320527356E+04  0.00000000000E+00 0.  1.
         22    1    1    2    0    0 -0.95999694268E+03 -0.21472055258E+04  0.13225487502E+04  0.26983737504E+04  0.00000000000E+00 0. -1.
<mgrwt>
<rscale>  0 0.63274706E+04</rscale>
<asrwt>0</asrwt>
<pdfrwt beam="1">  1        1 0.37079175E+00 0.63274706E+04</pdfrwt>
<pdfrwt beam="2">  1       -1 0.63891563E+00 0.63274706E+04</pdfrwt>
<totfact> 0.33261715E-04</totfact>
</mgrwt>
</event>
<event>
 6    1  0.1028026E-006  0.2381081E+04  0.7818608E-02  0.8446621E-01
         -2   -1    0    0    0  501 -0.00000000000E+00  0.00000000000E+00  0.61526259734E+03  0.61526259734E+03  0.00000000000E+00 0.  1.
          2   -1    0    0  501    0  0.00000000000E+00 -0.00000000000E+00 -0.23037105972E+04  0.23037105972E+04  0.00000000000E+00 0. -1.
         23    2    1    2    0    0  0.48886819848E+03 -0.12775688584E+03  0.47373626096E+03  0.69853298702E+03  0.90599953905E+02 0.  0.
         11    1    3    3    0    0  0.22801147209E+03 -0.19002909505E+02  0.18209237096E+03  0.29241746449E+03  0.00000000000E+00 0.  1.
        -11    1    3    3    0    0  0.26085672638E+03 -0.10875397633E+03  0.29164389001E+03  0.40611552254E+03  0.00000000000E+00 0. -1.
         22    1    1    2    0    0 -0.48886819848E+03  0.12775688584E+03 -0.21621842609E+04  0.22204402075E+04  0.00000000000E+00 0. -1.
<mgrwt>
<rscale>  0 0.23810812E+04</rscale>
<asrwt>0</asrwt>
<pdfrwt beam="1">  1        2 0.35441701E+00 0.23810812E+04</pdfrwt>
<pdfrwt beam="2">  1       -2 0.94655785E-01 0.23810812E+04</pdfrwt>
<totfact> 0.38187765E+00</totfact>
</mgrwt>
</event>
<event>
 6    1  0.1028026E-006  0.1434769E+04  0.7818608E-02  0.8929029E-01
         -2   -1    0    0    0  501 -0.00000000000E+00  0.00000000000E+00  0.10609337176E+04  0.10609337176E+04  0.00000000000E+00 0.  1.
          2   -1    0    0  501    0  0.00000000000E+00 -0.00000000000E+00 -0.48508235705E+03  0.48508235705E+03  0.00000000000E+00 0. -1.
         23    2    1    2    0    0  0.23565488431E+03 -0.36191427910E+03  0.90220692141E+03  0.10046999729E+04  0.94496225667E+02 0.  0.
         13    1    3    3    0    0  0.63722316933E+02 -0.17747166909E+03  0.34723365472E+03  0.39513027975E+03  0.00000000000E+00 0.  1.
        -13    1    3    3    0    0  0.17193256738E+03 -0.18444261001E+03  0.55497326670E+03  0.60956969319E+03  0.00000000000E+00 0. -1.
         22    1    1    2    0    0 -0.23565488431E+03  0.36191427910E+03 -0.32635556083E+03  0.54131610174E+03  0.00000000000E+00 0. -1.
<mgrwt>
<rscale>  0 0.14347686E+04</rscale>
<asrwt>0</asrwt>
<pdfrwt beam="1">  1        2 0.74628055E-01 0.14347686E+04</pdfrwt>
<pdfrwt beam="2">  1       -2 0.16322057E+00 0.14347686E+04</pdfrwt>
<totfact> 0.14755707E+01</totfact>
</mgrwt>
</event>
<event>
 6    1  0.1028026E-006  0.5995535E+03  0.7818608E-02  0.9906333E-01
         -2   -1    0    0    0  501 -0.00000000000E+00  0.00000000000E+00  0.13849422331E+03  0.13849422331E+03  0.00000000000E+00 0.  1.
          2   -1    0    0  501    0  0.00000000000E+00 -0.00000000000E+00 -0.64887985487E+03  0.64887985487E+03  0.00000000000E+00 0. -1.
         23    2    1    2    0    0 -0.15702998434E+03 -0.10319026622E+03  0.32829930219E+02  0.21257864190E+03  0.93836174518E+02 0.  0.
         11    1    3    3    0    0 -0.43103976955E+02  0.66223154696E+01  0.32426797167E+02  0.54344319538E+02  0.00000000000E+00 0. -1.
        -11    1    3    3    0    0 -0.11392600738E+03 -0.10981258169E+03  0.40313305154E+00  0.15823432236E+03  0.00000000000E+00 0.  1.
         22    1    1    2    0    0  0.15702998434E+03  0.10319026622E+03 -0.54321556177E+03  0.57479543629E+03  0.00000000000E+00 0. -1.
<mgrwt>
<rscale>  0 0.59955354E+03</rscale>
<asrwt>0</asrwt>
<pdfrwt beam="1">  1        2 0.99827672E-01 0.59955354E+03</pdfrwt>
<pdfrwt beam="2">  1       -2 0.21306803E-01 0.59955354E+03</pdfrwt>
<totfact> 0.86399300E+02</totfact>
</mgrwt>
</event>
<event>
 6    1  0.1028026E-006  0.2163065E+04  0.7818608E-02  0.8533961E-01
          1   -1    0    0  501    0  0.00000000000E+00  0.00000000000E+00  0.17513261499E+04  0.17513261499E+04  0.00000000000E+00 0. -1.
         -1   -1    0    0    0  501 -0.00000000000E+00 -0.00000000000E+00 -0.66790083545E+03  0.66790083545E+03  0.00000000000E+00 0.  1.
         23    2    1    2    0    0 -0.75321899445E+03  0.59953568386E+03 -0.35401553355E+01  0.96723668844E+03  0.93554203226E+02 0.  0.
         13    1    3    3    0    0 -0.55898694056E+03  0.44055639139E+03 -0.43595669216E+02  0.71306164957E+03  0.00000000000E+00 0.  1.
        -13    1    3    3    0    0 -0.19423205389E+03  0.15897929248E+03  0.40055513881E+02  0.25417503888E+03  0.00000000000E+00 0. -1.
         22    1    1    2    0    0  0.75321899445E+03 -0.59953568386E+03  0.10869654698E+04  0.14519902969E+04  0.00000000000E+00 0. -1.
<mgrwt>
<rscale>  0 0.21630647E+04</rscale>
<asrwt>0</asrwt>
<pdfrwt beam="1">  1        1 0.26943479E+00 0.21630647E+04</pdfrwt>
<pdfrwt beam="2">  1       -1 0.10275398E+00 0.21630647E+04</pdfrwt>
<totfact> 0.36000035E+00</totfact>
</mgrwt>
</event>
<event>
 6    1  0.1744955E-006  0.3090282E+04  0.7818608E-02  0.8218410E-01
         -2   -1    0    0    0  501 -0.00000000000E+00  0.00000000000E+00  0.13527106026E+04  0.13527106026E+04  0.00000000000E+00 0.  1.
          2   -1    0    0  501    0  0.00000000000E+00 -0.00000000000E+00 -0.17649459185E+04  0.17649459185E+04  0.00000000000E+00 0. -1.
         23    2    1    2    0    0 -0.11842191081E+04 -0.65144908207E+02 -0.12032958528E+04  0.16920354186E+04  0.91892291726E+02 0.  0.
         11    1    3    3    0    0 -0.64850374880E+03 -0.13496774230E+02 -0.60044060786E+03  0.88389377116E+03  0.00000000000E+00 0.  1.
        -11    1    3    3    0    0 -0.53571535930E+03 -0.51648133977E+02 -0.60285524495E+03  0.80814164742E+03  0.00000000000E+00 0. -1.
         22    1    1    2    0    0  0.11842191081E+04  0.65144908207E+02  0.79106053689E+03  0.14256211026E+04  0.00000000000E+00 0.  1.
<mgrwt>
<rscale>  0 0.30902822E+04</rscale>
<asrwt>0</asrwt>
<pdfrwt beam="1">  1        2 0.27153014E+00 0.30902822E+04</pdfrwt>
<pdfrwt beam="2">  1       -2 0.20810932E+00 0.30902822E+04</pdfrwt>
<totfact> 0.90313926E-01</totfact>
</mgrwt>
</event>
<event>
 6    1  0.1028026E-006  0.1755407E+04  0.7818608E-02  0.8730380E-01
          1   -1    0    0  501    0  0.00000000000E+00  0.00000000000E+00  0.19941717134E+04  0.19941717134E+04  0.00000000000E+00 0. -1.
         -1   -1    0    0    0  501 -0.00000000000E+00 -0.00000000000E+00 -0.38630755143E+03  0.38630755143E+03  0.00000000000E+00 0.  1.
         23    2    1    2    0    0 -0.33859258260E+03  0.79164962758E+03  0.59308306484E+03  0.10496394003E+04  0.92958480543E+02 0.  0.
         11    1    3    3    0    0 -0.22885555932E+03  0.56261057255E+03  0.36717688213E+03  0.70973543391E+03  0.00000000000E+00 0. -1.
        -11    1    3    3    0    0 -0.10973702328E+03  0.22903905502E+03  0.22590618271E+03  0.33990396642E+03  0.00000000000E+00 0.  1.
         22    1    1    2    0    0  0.33859258260E+03 -0.79164962758E+03  0.10147810972E+04  0.13308398645E+04  0.00000000000E+00 0.  1.
<mgrwt>
<rscale>  0 0.17554072E+04</rscale>
<asrwt>0</asrwt>
<pdfrwt beam="1">  1        1 0.30679564E+00 0.17554072E+04</pdfrwt>
<pdfrwt beam="2">  1       -1 0.59431932E-01 0.17554072E+04</pdfrwt>
<totfact> 0.81767172E+00</totfact>
</mgrwt>
</event>
<event>
 6    1  0.1028026E-006  0.1874947E+04  0.7818608E-02  0.8667428E-01
         -1   -1    0    0    0  501 -0.00000000000E+00  0.00000000000E+00  0.20193224164E+04  0.20193224164E+04  0.00000000000E+00 0.  1.
          1   -1    0    0  501    0  0.00000000000E+00 -0.00000000000E+00 -0.43522363852E+03  0.43522363852E+03  0.00000000000E+00 0. -1.
         23    2    1    2    0    0  0.12969963426E+03 -0.48370062322E+03  0.18279673835E+04  0.18975360148E+04  0.91596311646E+02 0.  0.
         11    1    3    3    0    0  0.87391407412E+02 -0.16919618524E+03  0.62048710548E+03  0.64905227467E+03  0.00000000000E+00 0. -1.
        -11    1    3    3    0    0  0.42308226851E+02 -0.31450443798E+03  0.12074802780E+04  0.12484837401E+04  0.00000000000E+00 0.  1.
         22    1    1    2    0    0 -0.12969963426E+03  0.48370062322E+03 -0.24386860559E+03  0.55701004014E+03  0.00000000000E+00 0. -1.
<mgrwt>
<rscale>  0 0.18749473E+04</rscale>
<asrwt>0</asrwt>
<pdfrwt beam="1">  1        1 0.66957484E-01 0.18749473E+04</pdfrwt>
<pdfrwt beam="2">  1       -1 0.31066498E+00 0.18749473E+04</pdfrwt>
<totfact> 0.14158645E+00</totfact>
</mgrwt>
</event>
<event>
 6    1  0.1028026E-006  0.2782963E+04  0.7818608E-02  0.8308577E-01
         -2   -1    0    0    0  501 -0.00000000000E+00  0.00000000000E+00  0.14612387607E+04  0.14612387607E+04  0.00000000000E+00 0.  1.
          2   -1    0    0  501    0  0.00000000000E+00 -0.00000000000E+00 -0.13250541147E+04  0.13250541147E+04  0.00000000000E+00 0. -1.
         23    2    1    2    0    0 -0.32826052044E+03 -0.94367484503E+03 -0.89868801058E+03  0.13478080483E+04  0.10329187899E+03 0.  0.
         11    1    3    3    0    0 -0.25508855599E+03 -0.77076170708E+03 -0.67548816641E+03  0.10561382691E+04  0.00000000000E+00 0. -1.
        -11    1    3    3    0    0 -0.73171964456E+02 -0.17291313795E+03 -0.22319984418E+03  0.29166977920E+03  0.00000000000E+00 0.  1.
         22    1    1    2    0    0  0.32826052044E+03  0.94367484503E+03  0.10348726566E+04  0.14384848271E+04  0.00000000000E+00 0.  1.
<mgrwt>
<rscale>  0 0.27829628E+04</rscale>
<asrwt>0</asrwt>
<pdfrwt beam="1">  1        2 0.20385448E+00 0.27829628E+04</pdfrwt>
<pdfrwt beam="2">  1       -2 0.22480596E+00 0.27829628E+04</pdfrwt>
<totfact> 0.12837731E+00</totfact>
</mgrwt>
</event>
<event>
 6    1  0.1028026E-006  0.5518778E+04  0.7818608E-02  0.7753111E-01
         -1   -1    0    0    0  501 -0.00000000000E+00  0.00000000000E+00  0.43802941004E+04  0.43802941004E+04  0.00000000000E+00 0.  1.
          1   -1    0    0  501    0  0.00000000000E+00 -0.00000000000E+00 -0.17382916358E+04  0.17382916358E+04  0.00000000000E+00 0. -1.
         23    2    1    2    0    0 -0.24366708571E+04  0.33098166498E+03 -0.64774327811E+02  0.24615986796E+04  0.91425476055E+02 0.  0.
         13    1    3    3    0    0 -0.97449442603E+03  0.17707711523E+03 -0.32966925806E+02  0.99100076150E+03  0.00000000000E+00 0. -1.
        -13    1    3    3    0    0 -0.14621764310E+04  0.15390454975E+03 -0.31807402005E+02  0.14705979181E+04  0.00000000000E+00 0.  1.
         22    1    1    2    0    0  0.24366708571E+04 -0.33098166498E+03  0.27067767924E+04  0.36569870566E+04  0.00000000000E+00 0.  1.
<mgrwt>
<rscale>  0 0.55187783E+04</rscale>
<asrwt>0</asrwt>
<pdfrwt beam="1">  1        1 0.26742948E+00 0.55187783E+04</pdfrwt>
<pdfrwt beam="2">  1       -1 0.67389140E+00 0.55187783E+04</pdfrwt>
<totfact> 0.77336460E-04</totfact>
</mgrwt>
</event>
<event>
 6    1  0.1028026E-006  0.7480497E+03  0.7818608E-02  0.9638415E-01
         -2   -1    0    0    0  501 -0.00000000000E+00  0.00000000000E+00  0.17900553441E+03  0.17900553441E+03  0.00000000000E+00 0.  1.
          2   -1    0    0  501    0  0.00000000000E+00 -0.00000000000E+00 -0.78150986332E+03  0.78150986332E+03  0.00000000000E+00 0. -1.
         23    2    1    2    0    0  0.28951532378E+03  0.12711122333E+03 -0.64426321236E+02  0.33641257917E+03  0.95111969558E+02 0.  0.
         11    1    3    3    0    0  0.19085769737E+03  0.51178435155E+02 -0.75258526112E+02  0.21144677492E+03  0.00000000000E+00 0. -1.
        -11    1    3    3    0    0  0.98657626408E+02  0.75932788177E+02  0.10832204876E+02  0.12496580425E+03  0.00000000000E+00 0.  1.
         22    1    1    2    0    0 -0.28951532378E+03 -0.12711122333E+03 -0.53807800767E+03  0.62410281856E+03  0.00000000000E+00 0. -1.
<mgrwt>
<rscale>  0 0.74804971E+03</rscale>
<asrwt>0</asrwt>
<pdfrwt beam="1">  1        2 0.12023229E+00 0.74804971E+03</pdfrwt>
<pdfrwt beam="2">  1       -2 0.27539313E-01 0.74804971E+03</pdfrwt>
<totfact> 0.42919433E+02</totfact>
</mgrwt>
</event>
<event>
 6    1  0.1028026E-006  0.2107535E+04  0.7818608E-02  0.8557931E-01
          1   -1    0    0  501    0  0.00000000000E+00  0.00000000000E+00  0.21922904272E+04  0.21922904272E+04  0.00000000000E+00 0. -1.
         -1   -1    0    0    0  501 -0.00000000000E+00 -0.00000000000E+00 -0.50651426597E+03  0.50651426597E+03  0.00000000000E+00 0.  1.
         23    2    1    2    0    0  0.98331070305E+03 -0.78035726291E+02  0.37725702508E+03  0.10601430921E+04  0.92687644022E+02 0.  0.
         11    1    3    3    0    0  0.42362638110E+03 -0.65341482992E+02  0.12805937282E+03  0.44735670681E+03  0.00000000000E+00 0. -1.
        -11    1    3    3    0    0  0.55968432195E+03 -0.12694243300E+02  0.24919765226E+03  0.61278638525E+03  0.00000000000E+00 0.  1.
         22    1    1    2    0    0 -0.98331070305E+03  0.78035726291E+02  0.13085191362E+04  0.16386616011E+04  0.00000000000E+00 0. -1.
<mgrwt>
<rscale>  0 0.21075354E+04</rscale>
<asrwt>0</asrwt>
<pdfrwt beam="1">  1        1 0.33727544E+00 0.21075354E+04</pdfrwt>
<pdfrwt beam="2">  1       -1 0.77925273E-01 0.21075354E+04</pdfrwt>
<totfact> 0.33426835E+00</totfact>
</mgrwt>
</event>
<event>
 6    1  0.1028026E-006  0.3084867E+04  0.7818608E-02  0.8219903E-01
          1   -1    0    0  501    0  0.00000000000E+00  0.00000000000E+00  0.31737002064E+04  0.31737002064E+04  0.00000000000E+00 0. -1.
         -1   -1    0    0    0  501 -0.00000000000E+00 -0.00000000000E+00 -0.74963005926E+03  0.74963005926E+03  0.00000000000E+00 0.  1.
         23    2    1    2    0    0  0.10236688156E+04  0.73384663880E+03  0.23425041824E+04  0.26611568466E+04  0.89449338886E+02 0.  0.
         13    1    3    3    0    0  0.27335716796E+03  0.14919436833E+03  0.56461979774E+03  0.64480897700E+03  0.00000000000E+00 0.  1.
        -13    1    3    3    0    0  0.75031164762E+03  0.58465227047E+03  0.17778843847E+04  0.20163478696E+04  0.00000000000E+00 0. -1.
         22    1    1    2    0    0 -0.10236688156E+04 -0.73384663880E+03  0.81565964738E+02  0.12621734191E+04  0.00000000000E+00 0.  1.
<mgrwt>
<rscale>  0 0.30848670E+04</rscale>
<asrwt>0</asrwt>
<pdfrwt beam="1">  1        1 0.48826156E+00 0.30848670E+04</pdfrwt>
<pdfrwt beam="2">  1       -1 0.11532770E+00 0.30848670E+04</pdfrwt>
<totfact> 0.25597517E-01</totfact>
</mgrwt>
</event>
<event>
 6    1  0.1028026E-006  0.3403642E+04  0.7818608E-02  0.8137013E-01
          2   -1    0    0  501    0  0.00000000000E+00  0.00000000000E+00  0.34865257158E+04  0.34865257158E+04  0.00000000000E+00 0. -1.
         -2   -1    0    0    0  501 -0.00000000000E+00 -0.00000000000E+00 -0.83068237652E+03  0.83068237652E+03  0.00000000000E+00 0.  1.
         23    2    1    2    0    0 -0.14409887212E+04 -0.69775422367E+03  0.20559510317E+04  0.26074770515E+04  0.93233459593E+02 0.  0.
         11    1    3    3    0    0 -0.16573586838E+03 -0.10487946676E+03  0.28706511426E+03  0.34767004536E+03  0.00000000000E+00 0. -1.
        -11    1    3    3    0    0 -0.12752528528E+04 -0.59287475690E+03  0.17688859174E+04  0.22598070061E+04  0.00000000000E+00 0.  1.
         22    1    1    2    0    0  0.14409887212E+04  0.69775422367E+03  0.59989230758E+03  0.17097310408E+04  0.00000000000E+00 0.  1.
<mgrwt>
<rscale>  0 0.34036424E+04</rscale>
<asrwt>0</asrwt>
<pdfrwt beam="1">  1        2 0.53638856E+00 0.34036424E+04</pdfrwt>
<pdfrwt beam="2">  1       -2 0.12779729E+00 0.34036424E+04</pdfrwt>
<totfact> 0.31156216E-01</totfact>
</mgrwt>
</event>
<event>
 6    1  0.1028026E-006  0.9743454E+03  0.7818608E-02  0.9337139E-01
          1   -1    0    0  501    0  0.00000000000E+00  0.00000000000E+00  0.11027502495E+04  0.11027502495E+04  0.00000000000E+00 0. -1.
         -1   -1    0    0    0  501 -0.00000000000E+00 -0.00000000000E+00 -0.21522302025E+03  0.21522302025E+03  0.00000000000E+00 0.  1.
         23    2    1    2    0    0  0.10150627725E+03  0.18977723928E+03 -0.13707477802E+03  0.27101185777E+03  0.91318165842E+02 0.  0.
         11    1    3    3    0    0  0.12393679048E+01  0.37327063736E+02 -0.64717949460E+02  0.74721206510E+02  0.00000000000E+00 0.  1.
        -11    1    3    3    0    0  0.10026690934E+03  0.15245017554E+03 -0.72356828559E+02  0.19629065126E+03  0.00000000000E+00 0. -1.
         22    1    1    2    0    0 -0.10150627725E+03 -0.18977723928E+03  0.10246020073E+04  0.10469614120E+04  0.00000000000E+00 0. -1.
<mgrwt>
<rscale>  0 0.97434540E+03</rscale>
<asrwt>0</asrwt>
<pdfrwt beam="1">  1        1 0.16965388E+00 0.97434540E+03</pdfrwt>
<pdfrwt beam="2">  1       -1 0.33111234E-01 0.97434540E+03</pdfrwt>
<totfact> 0.10843251E+02</totfact>
</mgrwt>
</event>
<event>
 6    1  0.1028026E-006  0.1038871E+04  0.7818608E-02  0.9266910E-01
          2   -1    0    0  501    0  0.00000000000E+00  0.00000000000E+00  0.11224872509E+04  0.11224872509E+04  0.00000000000E+00 0. -1.
         -2   -1    0    0    0  501 -0.00000000000E+00 -0.00000000000E+00 -0.24037071083E+03  0.24037071083E+03  0.00000000000E+00 0.  1.
         23    2    1    2    0    0  0.56752978438E+02 -0.40945873707E+03  0.84836486725E+03  0.94810920239E+03  0.91163335542E+02 0.  0.
         13    1    3    3    0    0 -0.11594547717E+02 -0.19437113457E+03  0.33807987539E+03  0.39014429848E+03  0.00000000000E+00 0. -1.
        -13    1    3    3    0    0  0.68347526155E+02 -0.21508760250E+03  0.51028499186E+03  0.55796490391E+03  0.00000000000E+00 0.  1.
         22    1    1    2    0    0 -0.56752978438E+02  0.40945873707E+03  0.33751672777E+02  0.41474875930E+03  0.00000000000E+00 0.  1.
<mgrwt>
<rscale>  0 0.10388707E+04</rscale>
<asrwt>0</asrwt>
<pdfrwt beam="1">  1        2 0.17269034E+00 0.10388707E+04</pdfrwt>
<pdfrwt beam="2">  1       -2 0.36980110E-01 0.10388707E+04</pdfrwt>
<totfact> 0.14472753E+02</totfact>
</mgrwt>
</event>
<event>
 6    1  0.1028026E-006  0.2173112E+04  0.7818608E-02  0.8529704E-01
          1   -1    0    0  501    0  0.00000000000E+00  0.00000000000E+00  0.23516362660E+04  0.23516362660E+04  0.00000000000E+00 0. -1.
         -1   -1    0    0    0  501 -0.00000000000E+00 -0.00000000000E+00 -0.50203511880E+03  0.50203511880E+03  0.00000000000E+00 0.  1.
         23    2    1    2    0    0 -0.27523153109E+03 -0.30307662807E+03  0.22453976915E+04  0.22842306569E+04  0.91055272951E+02 0.  0.
         13    1    3    3    0    0 -0.19117039596E+03 -0.16467529117E+03  0.15360239118E+04  0.15566096265E+04  0.00000000000E+00 0.  1.
        -13    1    3    3    0    0 -0.84061135132E+02 -0.13840133690E+03  0.70937377968E+03  0.72762103033E+03  0.00000000000E+00 0. -1.
         22    1    1    2    0    0  0.27523153109E+03  0.30307662807E+03 -0.39579654425E+03  0.56944072794E+03  0.00000000000E+00 0.  1.
<mgrwt>
<rscale>  0 0.21731120E+04</rscale>
<asrwt>0</asrwt>
<pdfrwt beam="1">  1        1 0.36179019E+00 0.21731120E+04</pdfrwt>
<pdfrwt beam="2">  1       -1 0.77236173E-01 0.21731120E+04</pdfrwt>
<totfact> 0.26345114E+00</totfact>
</mgrwt>
</event>
<event>
 6    1  0.1028026E-006  0.5753851E+03  0.7818608E-02  0.9957832E-01
          2   -1    0    0  501    0  0.00000000000E+00  0.00000000000E+00  0.14204941364E+04  0.14204941364E+04  0.00000000000E+00 0. -1.
         -2   -1    0    0    0  501 -0.00000000000E+00 -0.00000000000E+00 -0.58266354963E+02  0.58266354963E+02  0.00000000000E+00 0.  1.
         23    2    1    2    0    0 -0.40073156697E+02  0.14376221374E+03  0.13084190300E+04  0.13201136707E+04  0.92012571639E+02 0.  0.
         11    1    3    3    0    0  0.20971346691E+02  0.90689967992E+02  0.78106227250E+03  0.78658930911E+03  0.00000000000E+00 0. -1.
        -11    1    3    3    0    0 -0.61044503388E+02  0.53072245744E+02  0.52735675752E+03  0.53352436154E+03  0.00000000000E+00 0.  1.
         22    1    1    2    0    0  0.40073156697E+02 -0.14376221374E+03  0.53808751387E+02  0.15864682068E+03  0.00000000000E+00 0.  1.
<mgrwt>
<rscale>  0 0.57538514E+03</rscale>
<asrwt>0</asrwt>
<pdfrwt beam="1">  1        2 0.21853753E+00 0.57538514E+03</pdfrwt>
<pdfrwt beam="2">  1       -2 0.89640557E-02 0.57538514E+03</pdfrwt>
<totfact> 0.11741421E+03</totfact>
</mgrwt>
</event>
<event>
 6    1  0.1028026E-006  0.2533829E+04  0.7818608E-02  0.8391032E-01
          1   -1    0    0  501    0  0.00000000000E+00  0.00000000000E+00  0.16161261112E+04  0.16161261112E+04  0.00000000000E+00 0. -1.
         -1   -1    0    0    0  501 -0.00000000000E+00 -0.00000000000E+00 -0.99316068793E+03  0.99316068793E+03  0.00000000000E+00 0.  1.
         23    2    1    2    0    0 -0.95435321703E+03  0.34838525435E+03  0.10887298953E+04  0.14916558709E+04  0.86845287868E+02 0.  0.
         13    1    3    3    0    0 -0.25742649325E+03  0.13232892499E+03  0.28711783973E+03  0.40769596234E+03  0.00000000000E+00 0. -1.
        -13    1    3    3    0    0 -0.69692672378E+03  0.21605632935E+03  0.80161205555E+03  0.10839599086E+04  0.00000000000E+00 0.  1.
         22    1    1    2    0    0  0.95435321703E+03 -0.34838525435E+03 -0.46576447203E+03  0.11176309282E+04  0.00000000000E+00 0.  1.
<mgrwt>
<rscale>  0 0.25338294E+04</rscale>
<asrwt>0</asrwt>
<pdfrwt beam="1">  1        1 0.24863479E+00 0.25338294E+04</pdfrwt>
<pdfrwt beam="2">  1       -1 0.15279395E+00 0.25338294E+04</pdfrwt>
<totfact> 0.15991318E+00</totfact>
</mgrwt>
</event>
<event>
 6    1  0.1028026E-006  0.3393291E+04  0.7818608E-02  0.8139555E-01
         -2   -1    0    0    0  501 -0.00000000000E+00  0.00000000000E+00  0.15376339525E+04  0.15376339525E+04  0.00000000000E+00 0.  1.
          2   -1    0    0  501    0  0.00000000000E+00 -0.00000000000E+00 -0.18721008823E+04  0.18721008823E+04  0.00000000000E+00 0. -1.
         23    2    1    2    0    0 -0.11481953432E+04  0.10323768409E+04  0.53616550342E+03  0.16371222652E+04  0.92419566601E+02 0.  0.
         13    1    3    3    0    0 -0.32168696384E+03  0.28602929335E+03  0.10608855607E+03  0.44333964529E+03  0.00000000000E+00 0. -1.
        -13    1    3    3    0    0 -0.82650837939E+03  0.74634754757E+03  0.43007694735E+03  0.11937826199E+04  0.00000000000E+00 0.  1.
         22    1    1    2    0    0  0.11481953432E+04 -0.10323768409E+04 -0.87063243328E+03  0.17726125696E+04  0.00000000000E+00 0. -1.
<mgrwt>
<rscale>  0 0.33932910E+04</rscale>
<asrwt>0</asrwt>
<pdfrwt beam="1">  1        2 0.28801552E+00 0.33932910E+04</pdfrwt>
<pdfrwt beam="2">  1       -2 0.23655907E+00 0.33932910E+04</pdfrwt>
<totfact> 0.50755602E-01</totfact>
</mgrwt>
</event>
<event>
 6    1  0.1028026E-006  0.3774860E+04  0.7818608E-02  0.8051571E-01
         -1   -1    0    0    0  501 -0.00000000000E+00  0.00000000000E+00  0.10795870337E+04  0.10795870337E+04  0.00000000000E+00 0.  1.
          1   -1    0    0  501    0  0.00000000000E+00 -0.00000000000E+00 -0.32997736793E+04  0.32997736793E+04  0.00000000000E+00 0. -1.
         23    2    1    2    0    0 -0.12672471694E+04  0.86840321298E+02  0.50716481431E+03  0.13707227128E+04  0.90597885135E+02 0.  0.
         13    1    3    3    0    0 -0.39932888897E+03  0.69581324515E+02  0.16401822117E+03  0.43727233981E+03  0.00000000000E+00 0.  1.
        -13    1    3    3    0    0 -0.86791828046E+03  0.17258996783E+02  0.34314659313E+03  0.93345037303E+03  0.00000000000E+00 0. -1.
         22    1    1    2    0    0  0.12672471694E+04 -0.86840321298E+02 -0.27273514600E+04  0.30086380001E+04  0.00000000000E+00 0. -1.
<mgrwt>
<rscale>  0 0.37748605E+04</rscale>
<asrwt>0</asrwt>
<pdfrwt beam="1">  1        1 0.50765748E+00 0.37748605E+04</pdfrwt>
<pdfrwt beam="2">  1       -1 0.16609031E+00 0.37748605E+04</pdfrwt>
<totfact> 0.74835868E-02</totfact>
</mgrwt>
</event>
<event>
 6    1  0.1028026E-006  0.9660140E+03  0.7818608E-02  0.9346626E-01
          2   -1    0    0  501    0  0.00000000000E+00  0.00000000000E+00  0.11662725344E+04  0.11662725344E+04  0.00000000000E+00 0. -1.
         -2   -1    0    0    0  501 -0.00000000000E+00 -0.00000000000E+00 -0.20003536856E+03  0.20003536856E+03  0.00000000000E+00 0.  1.
         23    2    1    2    0    0 -0.27133459303E+03  0.37104799415E+03  0.67764039998E+03  0.82354905358E+03  0.87962813925E+02 0.  0.
         11    1    3    3    0    0 -0.21006813856E+03  0.22735560068E+03  0.48746616316E+03  0.57744476119E+03  0.00000000000E+00 0. -1.
        -11    1    3    3    0    0 -0.61266454471E+02  0.14369239347E+03  0.19017423682E+03  0.24610429239E+03  0.00000000000E+00 0.  1.
         22    1    1    2    0    0  0.27133459303E+03 -0.37104799415E+03  0.28859676591E+03  0.54275884943E+03  0.00000000000E+00 0.  1.
<mgrwt>
<rscale>  0 0.96601399E+03</rscale>
<asrwt>0</asrwt>
<pdfrwt beam="1">  1        2 0.17942654E+00 0.96601399E+03</pdfrwt>
<pdfrwt beam="2">  1       -2 0.30774673E-01 0.96601399E+03</pdfrwt>
<totfact> 0.19373650E+02</totfact>
</mgrwt>
</event>
<event>
 6    1  0.1028026E-006  0.3168510E+04  0.7818608E-02  0.8197184E-01
          1   -1    0    0  501    0  0.00000000000E+00  0.00000000000E+00  0.19127234613E+04  0.19127234613E+04  0.00000000000E+00 0. -1.
         -1   -1    0    0    0  501 -0.00000000000E+00 -0.00000000000E+00 -0.13121934839E+04  0.13121934839E+04  0.00000000000E+00 0.  1.
         23    2    1    2    0    0  0.39514389873E+03 -0.14094461530E+04  0.91351547423E+03  0.17280411721E+04  0.94544233641E+02 0.  0.
         13    1    3    3    0    0  0.36387828587E+03 -0.13351027364E+04  0.83926729702E+03  0.16184178445E+04  0.00000000000E+00 0. -1.
        -13    1    3    3    0    0  0.31265612864E+02 -0.74343416571E+02  0.74248177210E+02  0.10962332760E+03  0.00000000000E+00 0.  1.
         22    1    1    2    0    0 -0.39514389873E+03  0.14094461530E+04 -0.31298549683E+03  0.14968757731E+04  0.00000000000E+00 0.  1.
<mgrwt>
<rscale>  0 0.31685096E+04</rscale>
<asrwt>0</asrwt>
<pdfrwt beam="1">  1        1 0.29426515E+00 0.31685096E+04</pdfrwt>
<pdfrwt beam="2">  1       -1 0.20187592E+00 0.31685096E+04</pdfrwt>
<totfact> 0.41860823E-01</totfact>
</mgrwt>
</event>
<event>
 6    1  0.1028026E-006  0.5087719E+03  0.7818608E-02  0.1011514E+00
         -2   -1    0    0    0  501 -0.00000000000E+00  0.00000000000E+00  0.56279074608E+03  0.56279074608E+03  0.00000000000E+00 0.  1.
          2   -1    0    0  501    0  0.00000000000E+00 -0.00000000000E+00 -0.11498451153E+03  0.11498451153E+03  0.00000000000E+00 0. -1.
         23    2    1    2    0    0 -0.85447693469E+02 -0.79842328958E+02  0.51994197429E+03  0.54037194339E+03  0.89364840726E+02 0.  0.
         13    1    3    3    0    0 -0.64501793008E+02 -0.44963845456E+02  0.16144431886E+03  0.17957309596E+03  0.00000000000E+00 0. -1.
        -13    1    3    3    0    0 -0.20945900461E+02 -0.34878483502E+02  0.35849765543E+03  0.36079884743E+03  0.00000000000E+00 0.  1.
         22    1    1    2    0    0  0.85447693469E+02  0.79842328958E+02 -0.72135739737E+02  0.13740331422E+03  0.00000000000E+00 0. -1.
<mgrwt>
<rscale>  0 0.50877193E+03</rscale>
<asrwt>0</asrwt>
<pdfrwt beam="1">  1        2 0.17689925E-01 0.50877193E+03</pdfrwt>
<pdfrwt beam="2">  1       -2 0.86583190E-01 0.50877193E+03</pdfrwt>
<totfact> 0.38365196E+02</totfact>
</mgrwt>
</event>
<event>
 6    1  0.1028026E-006  0.2039400E+04  0.7818608E-02  0.8588418E-01
          2   -1    0    0  501    0  0.00000000000E+00  0.00000000000E+00  0.26082521776E+04  0.26082521776E+04  0.00000000000E+00 0. -1.
         -2   -1    0    0    0  501 -0.00000000000E+00 -0.00000000000E+00 -0.39865324648E+03  0.39865324648E+03  0.00000000000E+00 0.  1.
         23    2    1    2    0    0  0.40895170663E+03 -0.70983108627E+03  0.21692188719E+03  0.85240699736E+03  0.91874450192E+02 0.  0.
         11    1    3    3    0    0  0.27474485159E+03 -0.52719089319E+03  0.19029461974E+03  0.62420110032E+03  0.00000000000E+00 0.  1.
        -11    1    3    3    0    0  0.13420685504E+03 -0.18264019309E+03  0.26627267453E+02  0.22820589704E+03  0.00000000000E+00 0. -1.
         22    1    1    2    0    0 -0.40895170663E+03  0.70983108627E+03  0.19926770439E+04  0.21544984268E+04  0.00000000000E+00 0. -1.
<mgrwt>
<rscale>  0 0.20394001E+04</rscale>
<asrwt>0</asrwt>
<pdfrwt beam="1">  1        2 0.40126955E+00 0.20394001E+04</pdfrwt>
<pdfrwt beam="2">  1       -2 0.61331270E-01 0.20394001E+04</pdfrwt>
<totfact> 0.68947584E+00</totfact>
</mgrwt>
</event>
<event>
 6    1  0.1028026E-006  0.3595381E+04  0.7818608E-02  0.8091551E-01
          2   -1    0    0  501    0  0.00000000000E+00  0.00000000000E+00  0.72666461297E+03  0.72666461297E+03  0.00000000000E+00 0. -1.
         -2   -1    0    0    0  501 -0.00000000000E+00 -0.00000000000E+00 -0.44472934368E+04  0.44472934368E+04  0.00000000000E+00 0.  1.
         23    2    1    2    0    0 -0.56298070244E+03  0.27568759247E+03 -0.42843507126E+04  0.43309080585E+04  0.90292095877E+02 0.  0.
         11    1    3    3    0    0 -0.29545035467E+03  0.10412290597E+03 -0.23092083169E+04  0.23303595308E+04  0.00000000000E+00 0. -1.
        -11    1    3    3    0    0 -0.26753034777E+03  0.17156468651E+03 -0.19751423956E+04  0.20005485277E+04  0.00000000000E+00 0.  1.
         22    1    1    2    0    0  0.56298070244E+03 -0.27568759247E+03  0.56372188875E+03  0.84304999129E+03  0.00000000000E+00 0. -1.
<mgrwt>
<rscale>  0 0.35953808E+04</rscale>
<asrwt>0</asrwt>
<pdfrwt beam="1">  1        2 0.11179455E+00 0.35953808E+04</pdfrwt>
<pdfrwt beam="2">  1       -2 0.68419901E+00 0.35953808E+04</pdfrwt>
<totfact> 0.81864919E-03</totfact>
</mgrwt>
</event>
<event>
 6    1  0.1028026E-006  0.3666734E+04  0.7818608E-02  0.8075374E-01
         -2   -1    0    0    0  501 -0.00000000000E+00  0.00000000000E+00  0.19437373766E+04  0.19437373766E+04  0.00000000000E+00 0.  1.
          2   -1    0    0  501    0  0.00000000000E+00 -0.00000000000E+00 -0.17292636197E+04  0.17292636197E+04  0.00000000000E+00 0. -1.
         23    2    1    2    0    0 -0.11786230045E+04 -0.85931796105E+03 -0.10034125806E+04  0.17727834624E+04  0.91350166620E+02 0.  0.
         13    1    3    3    0    0 -0.10227096838E+04 -0.73349872318E+03 -0.90063673156E+03  0.15476117073E+04  0.00000000000E+00 0. -1.
        -13    1    3    3    0    0 -0.15591332063E+03 -0.12581923787E+03 -0.10277584904E+03  0.22517175515E+03  0.00000000000E+00 0.  1.
         22    1    1    2    0    0  0.11786230045E+04  0.85931796105E+03  0.12178863375E+04  0.19002175339E+04  0.00000000000E+00 0.  1.
<mgrwt>
<rscale>  0 0.36667339E+04</rscale>
<asrwt>0</asrwt>
<pdfrwt beam="1">  1        2 0.26604056E+00 0.36667339E+04</pdfrwt>
<pdfrwt beam="2">  1       -2 0.29903652E+00 0.36667339E+04</pdfrwt>
<totfact> 0.24668108E-01</totfact>
</mgrwt>
</event>
<event>
 6    1  0.1028026E-006  0.3381495E+04  0.7818608E-02  0.8142463E-01
         -2   -1    0    0    0  501 -0.00000000000E+00  0.00000000000E+00  0.95642751298E+03  0.95642751298E+03  0.00000000000E+00 0.  1.
          2   -1    0    0  501    0  0.00000000000E+00 -0.00000000000E+00 -0.29888589002E+04  0.29888589002E+04  0.00000000000E+00 0. -1.
         23    2    1    2    0    0 -0.42033323718E+03 -0.13026919074E+04 -0.21725177041E+04  0.25693102462E+04  0.88519662818E+02 0.  0.
         11    1    3    3    0    0 -0.31149548524E+03 -0.96948668844E+03 -0.16863519423E+04  0.19699534892E+04  0.00000000000E+00 0.  1.
        -11    1    3    3    0    0 -0.10883775194E+03 -0.33320521896E+03 -0.48616576180E+03  0.59935675698E+03  0.00000000000E+00 0. -1.
         22    1    1    2    0    0  0.42033323718E+03  0.13026919074E+04  0.14008631688E+03  0.13759761670E+04  0.00000000000E+00 0.  1.
<mgrwt>
<rscale>  0 0.33814949E+04</rscale>
<asrwt>0</asrwt>
<pdfrwt beam="1">  1        2 0.45982445E+00 0.33814949E+04</pdfrwt>
<pdfrwt beam="2">  1       -2 0.14714269E+00 0.33814949E+04</pdfrwt>
<totfact> 0.46248200E-01</totfact>
</mgrwt>
</event>
<event>
 6    1  0.1028026E-006  0.1807575E+04  0.7818608E-02  0.8702282E-01
         -2   -1    0    0    0  501 -0.00000000000E+00  0.00000000000E+00  0.35235072293E+03  0.35235072293E+03  0.00000000000E+00 0.  1.
          2   -1    0    0  501    0  0.00000000000E+00 -0.00000000000E+00 -0.23182342524E+04  0.23182342524E+04  0.00000000000E+00 0. -1.
         23    2    1    2    0    0 -0.54372165782E+02 -0.71649550522E+03 -0.17894731167E+04  0.19306912160E+04  0.95038910967E+02 0.  0.
         11    1    3    3    0    0 -0.67085987461E+02 -0.42317068222E+03 -0.97791027039E+03  0.10676527773E+04  0.00000000000E+00 0.  1.
        -11    1    3    3    0    0  0.12713821679E+02 -0.29332482299E+03 -0.81156284636E+03  0.86303843868E+03  0.00000000000E+00 0. -1.
         22    1    1    2    0    0  0.54372165782E+02  0.71649550522E+03 -0.17641041275E+03  0.73989375936E+03  0.00000000000E+00 0.  1.
<mgrwt>
<rscale>  0 0.18075746E+04</rscale>
<asrwt>0</asrwt>
<pdfrwt beam="1">  1        2 0.35665142E+00 0.18075746E+04</pdfrwt>
<pdfrwt beam="2">  1       -2 0.54207804E-01 0.18075746E+04</pdfrwt>
<totfact> 0.13389997E+01</totfact>
</mgrwt>
</event>
<event>
 6    1  0.1028026E-006  0.3083479E+04  0.7818608E-02  0.8220287E-01
         -2   -1    0    0    0  501 -0.00000000000E+00  0.00000000000E+00  0.51787309895E+03  0.51787309895E+03  0.00000000000E+00 0.  1.
          2   -1    0    0  501    0  0.00000000000E+00 -0.00000000000E+00 -0.45898510151E+04  0.45898510151E+04  0.00000000000E+00 0. -1.
         23    2    1    2    0    0  0.11427030820E+04  0.13062738101E+03 -0.34024816964E+03  0.12027733144E+04  0.89782975595E+02 0.  0.
         11    1    3    3    0    0  0.30563545506E+03  0.15052649494E+02 -0.12669981286E+03  0.33119851483E+03  0.00000000000E+00 0.  1.
        -11    1    3    3    0    0  0.83706762694E+03  0.11557473152E+03 -0.21354835678E+03  0.87157479961E+03  0.00000000000E+00 0. -1.
         22    1    1    2    0    0 -0.11427030820E+04 -0.13062738101E+03 -0.37317297465E+04  0.39049507996E+04  0.00000000000E+00 0. -1.
<mgrwt>
<rscale>  0 0.30834788E+04</rscale>
<asrwt>0</asrwt>
<pdfrwt beam="1">  1        2 0.70613093E+00 0.30834788E+04</pdfrwt>
<pdfrwt beam="2">  1       -2 0.79672783E-01 0.30834788E+04</pdfrwt>
<totfact> 0.11850735E-01</totfact>
</mgrwt>
</event>
<event>
 6    1  0.1028026E-006  0.4323474E+04  0.7818608E-02  0.7942292E-01
         -1   -1    0    0    0  501 -0.00000000000E+00  0.00000000000E+00  0.11911875902E+04  0.11911875902E+04  0.00000000000E+00 0.  1.
          1   -1    0    0  501    0  0.00000000000E+00 -0.00000000000E+00 -0.39230645643E+04  0.39230645643E+04  0.00000000000E+00 0. -1.
         23    2    1    2    0    0  0.12163336727E+04 -0.91301882535E+03  0.44914134256E+03  0.15883553169E+04  0.89853705170E+02 0.  0.
         11    1    3    3    0    0  0.99073172559E+03 -0.69950726848E+03  0.34942808521E+03  0.12621250958E+04  0.00000000000E+00 0. -1.
        -11    1    3    3    0    0  0.22560194709E+03 -0.21351155686E+03  0.99713257350E+02  0.32623022106E+03  0.00000000000E+00 0.  1.
         22    1    1    2    0    0 -0.12163336727E+04  0.91301882535E+03 -0.31810183167E+04  0.35258968376E+04  0.00000000000E+00 0. -1.
<mgrwt>
<rscale>  0 0.43234735E+04</rscale>
<asrwt>0</asrwt>
<pdfrwt beam="1">  1        1 0.60354839E+00 0.43234735E+04</pdfrwt>
<pdfrwt beam="2">  1       -1 0.18325963E+00 0.43234735E+04</pdfrwt>
<totfact> 0.16783621E-02</totfact>
</mgrwt>
</event>
<event>
 6    1  0.1028026E-006  0.3036322E+04  0.7818608E-02  0.8233434E-01
          1   -1    0    0  501    0  0.00000000000E+00  0.00000000000E+00  0.18315367057E+04  0.18315367057E+04  0.00000000000E+00 0. -1.
         -1   -1    0    0    0  501 -0.00000000000E+00 -0.00000000000E+00 -0.12584041125E+04  0.12584041125E+04  0.00000000000E+00 0.  1.
         23    2    1    2    0    0  0.14801641503E+03 -0.42226208817E+03 -0.11885015007E+04  0.12723685882E+04  0.78561293817E+02 0.  0.
         11    1    3    3    0    0  0.10465148228E+03 -0.18855889329E+03 -0.52437952429E+03  0.56699230548E+03  0.00000000000E+00 0.  1.
        -11    1    3    3    0    0  0.43364932746E+02 -0.23370319488E+03 -0.66412197642E+03  0.70537628274E+03  0.00000000000E+00 0. -1.
         22    1    1    2    0    0 -0.14801641503E+03  0.42226208817E+03  0.17616340939E+04  0.18175722299E+04  0.00000000000E+00 0. -1.
<mgrwt>
<rscale>  0 0.30363223E+04</rscale>
<asrwt>0</asrwt>
<pdfrwt beam="1">  1        1 0.28177488E+00 0.30363223E+04</pdfrwt>
<pdfrwt beam="2">  1       -1 0.19360063E+00 0.30363223E+04</pdfrwt>
<totfact> 0.54855765E-01</totfact>
</mgrwt>
</event>
<event>
 6    1  0.1028026E-006  0.4805616E+04  0.7818608E-02  0.7859213E-01
          2   -1    0    0  501    0  0.00000000000E+00  0.00000000000E+00  0.33714548046E+04  0.33714548046E+04  0.00000000000E+00 0. -1.
         -2   -1    0    0    0  501 -0.00000000000E+00 -0.00000000000E+00 -0.17124617237E+04  0.17124617237E+04  0.00000000000E+00 0.  1.
         23    2    1    2    0    0 -0.56260264874E+02  0.22840990660E+04  0.16136290447E+04  0.27986743844E+04  0.92227194851E+02 0.  0.
         13    1    3    3    0    0 -0.19821839223E+01  0.39695191673E+03  0.23943841217E+03  0.46357901858E+03  0.00000000000E+00 0. -1.
        -13    1    3    3    0    0 -0.54278080951E+02  0.18871471492E+04  0.13741906325E+04  0.23350953658E+04  0.00000000000E+00 0.  1.
         22    1    1    2    0    0  0.56260264874E+02 -0.22840990660E+04  0.45364036284E+02  0.22852421439E+04  0.00000000000E+00 0.  1.
<mgrwt>
<rscale>  0 0.48056164E+04</rscale>
<asrwt>0</asrwt>
<pdfrwt beam="1">  1        2 0.51868535E+00 0.48056164E+04</pdfrwt>
<pdfrwt beam="2">  1       -2 0.26345565E+00 0.48056164E+04</pdfrwt>
<totfact> 0.39116296E-02</totfact>
</mgrwt>
</event>
<event>
 6    1  0.1028026E-006  0.1021557E+04  0.7818608E-02  0.9285213E-01
         -2   -1    0    0    0  501 -0.00000000000E+00  0.00000000000E+00  0.82417583205E+03  0.82417583205E+03  0.00000000000E+00 0.  1.
          2   -1    0    0  501    0  0.00000000000E+00 -0.00000000000E+00 -0.31655210748E+03  0.31655210748E+03  0.00000000000E+00 0. -1.
         23    2    1    2    0    0 -0.24950202913E+03  0.44102971764E+03  0.22606524482E+03  0.56104384289E+03  0.83103696310E+02 0.  0.
         13    1    3    3    0    0 -0.10129988089E+03  0.10400538671E+03  0.69587565482E+02  0.16100066958E+03  0.00000000000E+00 0.  1.
        -13    1    3    3    0    0 -0.14820214824E+03  0.33702433093E+03  0.15647767934E+03  0.40004317331E+03  0.00000000000E+00 0. -1.
         22    1    1    2    0    0  0.24950202913E+03 -0.44102971764E+03  0.28155847974E+03  0.57968409664E+03  0.00000000000E+00 0. -1.
<mgrwt>
<rscale>  0 0.10215568E+04</rscale>
<asrwt>0</asrwt>
<pdfrwt beam="1">  1        2 0.48700325E-01 0.10215568E+04</pdfrwt>
<pdfrwt beam="2">  1       -2 0.12679628E+00 0.10215568E+04</pdfrwt>
<totfact> 0.47670412E+01</totfact>
</mgrwt>
</event>
<event>
 6    1  0.1028026E-006  0.8805479E+03  0.7818608E-02  0.9450230E-01
          1   -1    0    0  501    0  0.00000000000E+00  0.00000000000E+00  0.16309608753E+04  0.16309608753E+04  0.00000000000E+00 0. -1.
         -1   -1    0    0    0  501 -0.00000000000E+00 -0.00000000000E+00 -0.11885087997E+03  0.11885087997E+03  0.00000000000E+00 0.  1.
         23    2    1    2    0    0  0.39391971813E+03  0.13945453915E+03  0.10083750599E+04  0.10953125590E+04  0.90934193397E+02 0.  0.
         11    1    3    3    0    0  0.32877868521E+03  0.10050554765E+03  0.89613439568E+03  0.95981958933E+03  0.00000000000E+00 0.  1.
        -11    1    3    3    0    0  0.65141032925E+02  0.38948991501E+02  0.11224066427E+03  0.13549296965E+03  0.00000000000E+00 0. -1.
         22    1    1    2    0    0 -0.39391971813E+03 -0.13945453915E+03  0.50373493539E+03  0.65449919630E+03  0.00000000000E+00 0.  1.
<mgrwt>
<rscale>  0 0.88054786E+03</rscale>
<asrwt>0</asrwt>
<pdfrwt beam="1">  1        1 0.25091704E+00 0.88054786E+03</pdfrwt>
<pdfrwt beam="2">  1       -1 0.18284752E-01 0.88054786E+03</pdfrwt>
<totfact> 0.12768935E+02</totfact>
</mgrwt>
</event>
<event>
 6    1  0.1028026E-006  0.1259157E+04  0.7818608E-02  0.9062596E-01
          1   -1    0    0  501    0  0.00000000000E+00  0.00000000000E+00  0.87738847700E+03  0.87738847700E+03  0.00000000000E+00 0. -1.
         -1   -1    0    0    0  501 -0.00000000000E+00 -0.00000000000E+00 -0.45176031894E+03  0.45176031894E+03  0.00000000000E+00 0.  1.
         23    2    1    2    0    0 -0.19013104998E+03 -0.59464596401E+03  0.16362603609E+03  0.65209728342E+03  0.93293883423E+02 0.  0.
         13    1    3    3    0    0 -0.97792664350E+02 -0.16586291241E+03  0.54584880061E+02  0.20013350555E+03  0.00000000000E+00 0. -1.
        -13    1    3    3    0    0 -0.92338385634E+02 -0.42878305160E+03  0.10904115603E+03  0.45196377787E+03  0.00000000000E+00 0.  1.
         22    1    1    2    0    0  0.19013104998E+03  0.59464596401E+03  0.26200212196E+03  0.67705151251E+03  0.00000000000E+00 0.  1.
<mgrwt>
<rscale>  0 0.12591573E+04</rscale>
<asrwt>0</asrwt>
<pdfrwt beam="1">  1        1 0.13498284E+00 0.12591573E+04</pdfrwt>
<pdfrwt beam="2">  1       -1 0.69501588E-01 0.12591573E+04</pdfrwt>
<totfact> 0.39207106E+01</totfact>
</mgrwt>
</event>
<event>
 6    1  0.1028026E-006  0.1129373E+04  0.7818608E-02  0.9177027E-01
         -1   -1    0    0    0  501 -0.00000000000E+00  0.00000000000E+00  0.57583996926E+03  0.57583996926E+03  0.00000000000E+00 0.  1.
          1   -1    0    0  501    0  0.00000000000E+00 -0.00000000000E+00 -0.55374891382E+03  0.55374891382E+03  0.00000000000E+00 0. -1.
         23    2    1    2    0    0 -0.52701668118E+03  0.36206504224E+02  0.19995959158E+03  0.57218892853E+03  0.91426683638E+02 0.  0.
         13    1    3    3    0    0 -0.32838829564E+03 -0.24336842068E+01  0.84016771306E+02  0.33897435506E+03  0.00000000000E+00 0. -1.
        -13    1    3    3    0    0 -0.19862838554E+03  0.38640188431E+02  0.11594282027E+03  0.23321457347E+03  0.00000000000E+00 0.  1.
         22    1    1    2    0    0  0.52701668118E+03 -0.36206504224E+02 -0.17786853614E+03  0.55739995455E+03  0.00000000000E+00 0.  1.
<mgrwt>
<rscale>  0 0.11293728E+04</rscale>
<asrwt>0</asrwt>
<pdfrwt beam="1">  1        1 0.85192140E-01 0.11293728E+04</pdfrwt>
<pdfrwt beam="2">  1       -1 0.88590765E-01 0.11293728E+04</pdfrwt>
<totfact> 0.47818250E+01</totfact>
</mgrwt>
</event>
<event>
 6    1  0.1028026E-006  0.1632162E+04  0.7818608E-02  0.8801030E-01
          1   -1    0    0  501    0  0.00000000000E+00  0.00000000000E+00  0.97175364102E+03  0.97175364102E+03  0.00000000000E+00 0. -1.
         -1   -1    0    0    0  501 -0.00000000000E+00 -0.00000000000E+00 -0.68534693589E+03  0.68534693589E+03  0.00000000000E+00 0.  1.
         23    2    1    2    0    0 -0.26974137205E+03 -0.47629791618E+03  0.75465096739E+03  0.93677231708E+03  0.91783324780E+02 0.  0.
         11    1    3    3    0    0 -0.20851741933E+03 -0.30587581364E+03  0.55607547056E+03  0.66802653877E+03  0.00000000000E+00 0.  1.
        -11    1    3    3    0    0 -0.61223952723E+02 -0.17042210254E+03  0.19857549683E+03  0.26874577831E+03  0.00000000000E+00 0. -1.
         22    1    1    2    0    0  0.26974137205E+03  0.47629791618E+03 -0.46824426226E+03  0.72032825982E+03  0.00000000000E+00 0.  1.
<mgrwt>
<rscale>  0 0.16321622E+04</rscale>
<asrwt>0</asrwt>
<pdfrwt beam="1">  1        1 0.14950056E+00 0.16321622E+04</pdfrwt>
<pdfrwt beam="2">  1       -1 0.10543799E+00 0.16321622E+04</pdfrwt>
<totfact> 0.12853608E+01</totfact>
</mgrwt>
</event>
<event>
 6    1  0.1028026E-006  0.1172741E+04  0.7818608E-02  0.9137056E-01
          2   -1    0    0  501    0  0.00000000000E+00  0.00000000000E+00  0.14492762569E+04  0.14492762569E+04  0.00000000000E+00 0. -1.
         -2   -1    0    0    0  501 -0.00000000000E+00 -0.00000000000E+00 -0.23724299385E+03  0.23724299385E+03  0.00000000000E+00 0.  1.
         23    2    1    2    0    0  0.29503972948E+03 -0.23409538125E+03 -0.30912372932E+02  0.38776486923E+03  0.86930601709E+02 0.  0.
         13    1    3    3    0    0  0.60376133555E+02 -0.32173284550E+02 -0.37695153313E+02  0.78110961619E+02  0.00000000000E+00 0.  1.
        -13    1    3    3    0    0  0.23466359593E+03 -0.20192209670E+03  0.67827803815E+01  0.30965390761E+03  0.00000000000E+00 0. -1.
         22    1    1    2    0    0 -0.29503972948E+03  0.23409538125E+03  0.12429456360E+04  0.12987543815E+04  0.00000000000E+00 0. -1.
<mgrwt>
<rscale>  0 0.11727415E+04</rscale>
<asrwt>0</asrwt>
<pdfrwt beam="1">  1        2 0.22296557E+00 0.11727415E+04</pdfrwt>
<pdfrwt beam="2">  1       -2 0.36498923E-01 0.11727415E+04</pdfrwt>
<totfact> 0.94685924E+01</totfact>
</mgrwt>
</event>
<event>
 6    1  0.1028026E-006  0.2444624E+04  0.7818608E-02  0.8422983E-01
          1   -1    0    0  501    0  0.00000000000E+00  0.00000000000E+00  0.13791383525E+04  0.13791383525E+04  0.00000000000E+00 0. -1.
         -1   -1    0    0    0  501 -0.00000000000E+00 -0.00000000000E+00 -0.10833190965E+04  0.10833190965E+04  0.00000000000E+00 0.  1.
         23    2    1    2    0    0  0.11946546139E+04 -0.18409718065E+03 -0.22070989077E+02  0.12125992066E+04  0.93905744493E+02 0.  0.
         11    1    3    3    0    0  0.53113944742E+03 -0.63946873934E+02  0.33391906547E+02  0.53601617020E+03  0.00000000000E+00 0. -1.
        -11    1    3    3    0    0  0.66351516644E+03 -0.12015030671E+03 -0.55462895624E+02  0.67658303636E+03  0.00000000000E+00 0.  1.
         22    1    1    2    0    0 -0.11946546139E+04  0.18409718065E+03  0.31789024504E+03  0.12498582425E+04  0.00000000000E+00 0. -1.
<mgrwt>
<rscale>  0 0.24446242E+04</rscale>
<asrwt>0</asrwt>
<pdfrwt beam="1">  1        1 0.21217513E+00 0.24446242E+04</pdfrwt>
<pdfrwt beam="2">  1       -1 0.16666448E+00 0.24446242E+04</pdfrwt>
<totfact> 0.18477731E+00</totfact>
</mgrwt>
</event>
<event>
 6    1  0.1028026E-006  0.3350409E+04  0.7818608E-02  0.8150186E-01
         -2   -1    0    0    0  501 -0.00000000000E+00  0.00000000000E+00  0.12901582745E+04  0.12901582745E+04  0.00000000000E+00 0.  1.
          2   -1    0    0  501    0  0.00000000000E+00 -0.00000000000E+00 -0.21751669471E+04  0.21751669471E+04  0.00000000000E+00 0. -1.
         23    2    1    2    0    0  0.35956899035E+03 -0.37345109207E+03  0.12034160235E+04  0.13135182395E+04  0.91457438298E+02 0.  0.
         13    1    3    3    0    0  0.21634549793E+03 -0.24265543625E+03  0.85553533386E+03  0.91522005151E+03  0.00000000000E+00 0.  1.
        -13    1    3    3    0    0  0.14322349243E+03 -0.13079565582E+03  0.34788068959E+03  0.39829818799E+03  0.00000000000E+00 0. -1.
         22    1    1    2    0    0 -0.35956899035E+03  0.37345109207E+03 -0.20884246961E+04  0.21518069821E+04  0.00000000000E+00 0. -1.
<mgrwt>
<rscale>  0 0.33504087E+04</rscale>
<asrwt>0</asrwt>
<pdfrwt beam="1">  1        2 0.33464106E+00 0.33504087E+04</pdfrwt>
<pdfrwt beam="2">  1       -2 0.19848589E+00 0.33504087E+04</pdfrwt>
<totfact> 0.60364676E-01</totfact>
</mgrwt>
</event>
<event>
 6    1  0.1028026E-006  0.2420133E+04  0.7818608E-02  0.8432004E-01
         -2   -1    0    0    0  501 -0.00000000000E+00  0.00000000000E+00  0.43780514101E+03  0.43780514101E+03  0.00000000000E+00 0.  1.
          2   -1    0    0  501    0  0.00000000000E+00 -0.00000000000E+00 -0.33445493917E+04  0.33445493917E+04  0.00000000000E+00 0. -1.
         23    2    1    2    0    0  0.54827260273E+03  0.49410731728E+03 -0.29506521608E+04  0.30429812898E+04  0.92962723495E+02 0.  0.
         13    1    3    3    0    0  0.14215102367E+03  0.13424370008E+03 -0.62514835959E+03  0.65501050071E+03  0.00000000000E+00 0. -1.
        -13    1    3    3    0    0  0.40612157906E+03  0.35986361721E+03 -0.23255038012E+04  0.23879707890E+04  0.00000000000E+00 0.  1.
         22    1    1    2    0    0 -0.54827260273E+03 -0.49410731728E+03  0.43907910060E+02  0.73937324300E+03  0.00000000000E+00 0.  1.
<mgrwt>
<rscale>  0 0.24201330E+04</rscale>
<asrwt>0</asrwt>
<pdfrwt beam="1">  1        2 0.51454605E+00 0.24201330E+04</pdfrwt>
<pdfrwt beam="2">  1       -2 0.67354639E-01 0.24201330E+04</pdfrwt>
<totfact> 0.18894258E+00</totfact>
</mgrwt>
</event>
<event>
 6    1  0.1028026E-006  0.1617065E+04  0.7818608E-02  0.8810132E-01
         -1   -1    0    0    0  501 -0.00000000000E+00  0.00000000000E+00  0.31673115525E+03  0.31673115525E+03  0.00000000000E+00 0.  1.
          1   -1    0    0  501    0  0.00000000000E+00 -0.00000000000E+00 -0.20639736590E+04  0.20639736590E+04  0.00000000000E+00 0. -1.
         23    2    1    2    0    0  0.41090603464E+03  0.11069201385E+03 -0.18840507625E+04  0.19337003502E+04  0.91941707987E+02 0.  0.
         11    1    3    3    0    0  0.19107173039E+03  0.36195391698E+02 -0.10547893053E+04  0.10725665439E+04  0.00000000000E+00 0. -1.
        -11    1    3    3    0    0  0.21983430425E+03  0.74496622147E+02 -0.82926145716E+03  0.86113380631E+03  0.00000000000E+00 0.  1.
         22    1    1    2    0    0 -0.41090603464E+03 -0.11069201385E+03  0.13680825870E+03  0.44700446405E+03  0.00000000000E+00 0.  1.
<mgrwt>
<rscale>  0 0.16170649E+04</rscale>
<asrwt>0</asrwt>
<pdfrwt beam="1">  1        1 0.31753442E+00 0.16170649E+04</pdfrwt>
<pdfrwt beam="2">  1       -1 0.48727868E-01 0.16170649E+04</pdfrwt>
<totfact> 0.10896935E+01</totfact>
</mgrwt>
</event>
<event>
 6    1  0.1028026E-006  0.2855713E+04  0.7818608E-02  0.8286177E-01
         -1   -1    0    0    0  501 -0.00000000000E+00  0.00000000000E+00  0.86689807947E+03  0.86689807947E+03  0.00000000000E+00 0.  1.
          1   -1    0    0  501    0  0.00000000000E+00 -0.00000000000E+00 -0.23518043412E+04  0.23518043412E+04  0.00000000000E+00 0. -1.
         23    2    1    2    0    0  0.66303640430E+03 -0.75631757199E+03  0.39664210664E+03  0.10851940880E+04  0.93207857620E+02 0.  0.
         13    1    3    3    0    0  0.47194047504E+03 -0.47206622366E+03  0.26863249860E+03  0.71953995775E+03  0.00000000000E+00 0. -1.
        -13    1    3    3    0    0  0.19109592926E+03 -0.28425134834E+03  0.12800960804E+03  0.36565413024E+03  0.00000000000E+00 0.  1.
         22    1    1    2    0    0 -0.66303640430E+03  0.75631757199E+03 -0.18815483684E+04  0.21335083327E+04  0.00000000000E+00 0. -1.
<mgrwt>
<rscale>  0 0.28557133E+04</rscale>
<asrwt>0</asrwt>
<pdfrwt beam="1">  1        1 0.36181605E+00 0.28557133E+04</pdfrwt>
<pdfrwt beam="2">  1       -1 0.13336894E+00 0.28557133E+04</pdfrwt>
<totfact> 0.70190575E-01</totfact>
</mgrwt>
</event>
<event>
 6    1  0.1028026E-006  0.2563050E+04  0.7818608E-02  0.8380862E-01
          2   -1    0    0  501    0  0.00000000000E+00  0.00000000000E+00  0.22403733806E+04  0.22403733806E+04  0.00000000000E+00 0. -1.
         -2   -1    0    0    0  501 -0.00000000000E+00 -0.00000000000E+00 -0.73305039143E+03  0.73305039143E+03  0.00000000000E+00 0.  1.
         23    2    1    2    0    0 -0.96955024369E+03 -0.11243109489E+03 -0.20579705304E+03  0.10017623647E+04  0.92233302769E+02 0.  0.
         13    1    3    3    0    0 -0.44567108225E+03 -0.56470730087E+01 -0.89218231789E+02  0.45454867272E+03  0.00000000000E+00 0. -1.
        -13    1    3    3    0    0 -0.52387916144E+03 -0.10678402188E+03 -0.11657882125E+03  0.54721369197E+03  0.00000000000E+00 0.  1.
         22    1    1    2    0    0  0.96955024369E+03  0.11243109489E+03  0.17131200422E+04  0.19716614074E+04  0.00000000000E+00 0. -1.
<mgrwt>
<rscale>  0 0.25630502E+04</rscale>
<asrwt>0</asrwt>
<pdfrwt beam="1">  1        2 0.34467282E+00 0.25630502E+04</pdfrwt>
<pdfrwt beam="2">  1       -2 0.11277698E+00 0.25630502E+04</pdfrwt>
<totfact> 0.26882807E+00</totfact>
</mgrwt>
</event>
<event>
 6    1  0.1028026E-006  0.3354004E+04  0.7818608E-02  0.8149288E-01
         -1   -1    0    0    0  501 -0.00000000000E+00  0.00000000000E+00  0.10648487755E+04  0.10648487755E+04  0.00000000000E+00 0.  1.
          1   -1    0    0  501    0  0.00000000000E+00 -0.00000000000E+00 -0.26410658901E+04  0.26410658901E+04  0.00000000000E+00 0. -1.
         23    2    1    2    0    0 -0.52688015761E+03  0.22240906610E+03 -0.25289820227E+04  0.25946858578E+04  0.97857735587E+02 0.  0.
         11    1    3    3    0    0 -0.25087468376E+03  0.54423552446E+02 -0.10724091001E+04  0.11027063562E+04  0.00000000000E+00 0.  1.
        -11    1    3    3    0    0 -0.27600547385E+03  0.16798551365E+03 -0.14565729226E+04  0.14919795016E+04  0.00000000000E+00 0. -1.
         22    1    1    2    0    0  0.52688015761E+03 -0.22240906610E+03  0.95276490809E+03  0.11112288078E+04  0.00000000000E+00 0.  1.
<mgrwt>
<rscale>  0 0.33540040E+04</rscale>
<asrwt>0</asrwt>
<pdfrwt beam="1">  1        1 0.40631783E+00 0.33540040E+04</pdfrwt>
<pdfrwt beam="2">  1       -1 0.16382289E+00 0.33540040E+04</pdfrwt>
<totfact> 0.24378899E-01</totfact>
</mgrwt>
</event>
<event>
 6    1  0.1028026E-006  0.1747239E+04  0.7818608E-02  0.8734872E-01
          1   -1    0    0  501    0  0.00000000000E+00  0.00000000000E+00  0.11139387918E+04  0.11139387918E+04  0.00000000000E+00 0. -1.
         -1   -1    0    0    0  501 -0.00000000000E+00 -0.00000000000E+00 -0.68514590009E+03  0.68514590009E+03  0.00000000000E+00 0.  1.
         23    2    1    2    0    0 -0.19121809521E+03 -0.50944136834E+03 -0.48558433924E+03  0.73504494253E+03  0.91673602006E+02 0.  0.
         13    1    3    3    0    0  0.98708304182E+01 -0.38330562664E+02 -0.35103342941E+02  0.52904725809E+02  0.00000000000E+00 0. -1.
        -13    1    3    3    0    0 -0.20108892563E+03 -0.47111080568E+03 -0.45048099630E+03  0.68214021672E+03  0.00000000000E+00 0.  1.
         22    1    1    2    0    0  0.19121809521E+03  0.50944136834E+03  0.91437723090E+03  0.10640397493E+04  0.00000000000E+00 0. -1.
<mgrwt>
<rscale>  0 0.17472385E+04</rscale>
<asrwt>0</asrwt>
<pdfrwt beam="1">  1        1 0.17137520E+00 0.17472385E+04</pdfrwt>
<pdfrwt beam="2">  1       -1 0.10540706E+00 0.17472385E+04</pdfrwt>
<totfact> 0.98987636E+00</totfact>
</mgrwt>
</event>
<event>
 6    1  0.1028026E-006  0.7320823E+03  0.7818608E-02  0.9663887E-01
         -2   -1    0    0    0  501 -0.00000000000E+00  0.00000000000E+00  0.12068986560E+03  0.12068986560E+03  0.00000000000E+00 0.  1.
          2   -1    0    0  501    0  0.00000000000E+00 -0.00000000000E+00 -0.11101686694E+04  0.11101686694E+04  0.00000000000E+00 0. -1.
         23    2    1    2    0    0  0.24410120271E+03  0.25192975723E+03 -0.63991918333E+03  0.73563542567E+03  0.92784258142E+02 0.  0.
         11    1    3    3    0    0  0.12265980888E+03  0.12758864681E+03 -0.22863111627E+03  0.28913055673E+03  0.00000000000E+00 0.  1.
        -11    1    3    3    0    0  0.12144139384E+03  0.12434111042E+03 -0.41128806707E+03  0.44650486894E+03  0.00000000000E+00 0. -1.
         22    1    1    2    0    0 -0.24410120271E+03 -0.25192975723E+03 -0.34955962042E+03  0.49522310929E+03  0.00000000000E+00 0.  1.
<mgrwt>
<rscale>  0 0.73208226E+03</rscale>
<asrwt>0</asrwt>
<pdfrwt beam="1">  1        2 0.17079517E+00 0.73208226E+03</pdfrwt>
<pdfrwt beam="2">  1       -2 0.18567673E-01 0.73208226E+03</pdfrwt>
<totfact> 0.52562268E+02</totfact>
</mgrwt>
</event>
<event>
 6    1  0.1028026E-006  0.2748098E+04  0.7818608E-02  0.8319565E-01
          3   -1    0    0  501    0  0.00000000000E+00  0.00000000000E+00  0.11257673628E+04  0.11257673628E+04  0.00000000000E+00 0. -1.
         -3   -1    0    0    0  501 -0.00000000000E+00 -0.00000000000E+00 -0.16770877057E+04  0.16770877057E+04  0.00000000000E+00 0.  1.
         23    2    1    2    0    0 -0.10945791773E+04  0.41218567970E+03 -0.10084818968E+04  0.15470695391E+04  0.91585002657E+02 0.  0.
         11    1    3    3    0    0 -0.18343194387E+03  0.33546978271E+02 -0.15615260610E+03  0.24322071082E+03  0.00000000000E+00 0. -1.
        -11    1    3    3    0    0 -0.91114723340E+03  0.37863870143E+03 -0.85232929067E+03  0.13038488282E+04  0.00000000000E+00 0.  1.
         22    1    1    2    0    0  0.10945791773E+04 -0.41218567970E+03  0.45716155387E+03  0.12557855295E+04  0.00000000000E+00 0. -1.
<mgrwt>
<rscale>  0 0.27480980E+04</rscale>
<asrwt>0</asrwt>
<pdfrwt beam="1">  1        3 0.17319498E+00 0.27480980E+04</pdfrwt>
<pdfrwt beam="2">  1       -3 0.25801349E+00 0.27480980E+04</pdfrwt>
<totfact> 0.32960148E-02</totfact>
</mgrwt>
</event>
<event>
 6    1  0.1028026E-006  0.9736124E+03  0.7818608E-02  0.9337969E-01
         -1   -1    0    0    0  501 -0.00000000000E+00  0.00000000000E+00  0.14075274071E+04  0.14075274071E+04  0.00000000000E+00 0.  1.
          1   -1    0    0  501    0  0.00000000000E+00 -0.00000000000E+00 -0.16836637870E+03  0.16836637870E+03  0.00000000000E+00 0. -1.
         23    2    1    2    0    0 -0.36022229220E+03 -0.32116859619E+03  0.63462780974E+03  0.80235013518E+03  0.90021750374E+02 0.  0.
         11    1    3    3    0    0 -0.20033665415E+03 -0.13300073611E+03  0.26506686209E+03  0.35788882657E+03  0.00000000000E+00 0.  1.
        -11    1    3    3    0    0 -0.15988563805E+03 -0.18816786008E+03  0.36956094765E+03  0.44446130861E+03  0.00000000000E+00 0. -1.
         22    1    1    2    0    0  0.36022229220E+03  0.32116859619E+03  0.60453321866E+03  0.77354365064E+03  0.00000000000E+00 0. -1.
<mgrwt>
<rscale>  0 0.97361243E+03</rscale>
<asrwt>0</asrwt>
<pdfrwt beam="1">  1        1 0.25902521E-01 0.97361243E+03</pdfrwt>
<pdfrwt beam="2">  1       -1 0.21654267E+00 0.97361243E+03</pdfrwt>
<totfact> 0.21810187E+01</totfact>
</mgrwt>
</event>
<event>
 6    1  0.1028026E-006  0.3081468E+04  0.7818608E-02  0.8220842E-01
         -1   -1    0    0    0  501 -0.00000000000E+00  0.00000000000E+00  0.10646005356E+04  0.10646005356E+04  0.00000000000E+00 0.  1.
          1   -1    0    0  501    0  0.00000000000E+00 -0.00000000000E+00 -0.22298141431E+04  0.22298141431E+04  0.00000000000E+00 0. -1.
         23    2    1    2    0    0 -0.14324780788E+04 -0.80383980328E+02  0.13481436416E+02  0.14375956145E+04  0.89690417764E+02 0.  0.
         13    1    3    3    0    0 -0.39531828229E+03  0.52458191507E+01 -0.25524858528E+02  0.39617619986E+03  0.00000000000E+00 0. -1.
        -13    1    3    3    0    0 -0.10371597965E+04 -0.85629799478E+02  0.39006294943E+02  0.10414194146E+04  0.00000000000E+00 0.  1.
         22    1    1    2    0    0  0.14324780788E+04  0.80383980328E+02 -0.11786950439E+04  0.18568190642E+04  0.00000000000E+00 0. -1.
<mgrwt>
<rscale>  0 0.30814680E+04</rscale>
<asrwt>0</asrwt>
<pdfrwt beam="1">  1        1 0.34304833E+00 0.30814680E+04</pdfrwt>
<pdfrwt beam="2">  1       -1 0.16378470E+00 0.30814680E+04</pdfrwt>
<totfact> 0.48072035E-01</totfact>
</mgrwt>
</event>
<event>
 6    1  0.1028026E-006  0.2240526E+04  0.7818608E-02  0.8501747E-01
         -2   -1    0    0    0  501 -0.00000000000E+00  0.00000000000E+00  0.15474730587E+04  0.15474730587E+04  0.00000000000E+00 0.  1.
          2   -1    0    0  501    0  0.00000000000E+00 -0.00000000000E+00 -0.81099246635E+03  0.81099246635E+03  0.00000000000E+00 0. -1.
         23    2    1    2    0    0  0.29317871051E+03 -0.62265925202E+03  0.12967825674E+04  0.14709991293E+04  0.92385664963E+02 0.  0.
         13    1    3    3    0    0  0.81710833388E+02 -0.16362690351E+03  0.26370826281E+03  0.32092440188E+03  0.00000000000E+00 0. -1.
        -13    1    3    3    0    0  0.21146787713E+03 -0.45903234851E+03  0.10330743046E+04  0.11500747275E+04  0.00000000000E+00 0.  1.
         22    1    1    2    0    0 -0.29317871051E+03  0.62265925202E+03 -0.56030197497E+03  0.88746639575E+03  0.00000000000E+00 0. -1.
<mgrwt>
<rscale>  0 0.22405258E+04</rscale>
<asrwt>0</asrwt>
<pdfrwt beam="1">  1        2 0.12476807E+00 0.22405258E+04</pdfrwt>
<pdfrwt beam="2">  1       -2 0.23807278E+00 0.22405258E+04</pdfrwt>
<totfact> 0.23455764E+00</totfact>
</mgrwt>
</event>
<event>
 6    1  0.1028026E-006  0.2058181E+04  0.7818608E-02  0.8579892E-01
         -2   -1    0    0    0  501 -0.00000000000E+00  0.00000000000E+00  0.79811900619E+03  0.79811900619E+03  0.00000000000E+00 0.  1.
          2   -1    0    0  501    0  0.00000000000E+00 -0.00000000000E+00 -0.13269042032E+04  0.13269042032E+04  0.00000000000E+00 0. -1.
         23    2    1    2    0    0  0.69598989246E+03 -0.68464644520E+03  0.64280740920E+02  0.98271419164E+03  0.91937388789E+02 0.  0.
         13    1    3    3    0    0  0.37170269760E+03 -0.32872453035E+03  0.70383453188E+02  0.50117516173E+03  0.00000000000E+00 0. -1.
        -13    1    3    3    0    0  0.32428719486E+03 -0.35592191485E+03 -0.61027122680E+01  0.48153902990E+03  0.00000000000E+00 0.  1.
         22    1    1    2    0    0 -0.69598989246E+03  0.68464644520E+03 -0.59306593795E+03  0.11423090178E+04  0.00000000000E+00 0. -1.
<mgrwt>
<rscale>  0 0.20581812E+04</rscale>
<asrwt>0</asrwt>
<pdfrwt beam="1">  1        2 0.20413911E+00 0.20581812E+04</pdfrwt>
<pdfrwt beam="2">  1       -2 0.12278754E+00 0.20581812E+04</pdfrwt>
<totfact> 0.73949127E+00</totfact>
</mgrwt>
</event>
<event>
 6    1  0.1028026E-006  0.2383978E+04  0.7818608E-02  0.8445526E-01
          2   -1    0    0  501    0  0.00000000000E+00  0.00000000000E+00  0.33920599764E+04  0.33920599764E+04  0.00000000000E+00 0. -1.
         -2   -1    0    0    0  501 -0.00000000000E+00 -0.00000000000E+00 -0.41887160734E+03  0.41887160734E+03  0.00000000000E+00 0.  1.
         23    2    1    2    0    0 -0.62323781317E+01 -0.73643448198E+03 -0.61888717950E+01  0.74188232833E+03  0.89311243257E+02 0.  0.
         11    1    3    3    0    0 -0.30033963987E+02 -0.32829922029E+03 -0.37816642792E+02  0.33183205919E+03  0.00000000000E+00 0. -1.
        -11    1    3    3    0    0  0.23801585855E+02 -0.40813526169E+03  0.31627770997E+02  0.41005026914E+03  0.00000000000E+00 0.  1.
         22    1    1    2    0    0  0.62323781317E+01  0.73643448198E+03  0.29793772409E+04  0.30690492554E+04  0.00000000000E+00 0. -1.
<mgrwt>
<rscale>  0 0.23839779E+04</rscale>
<asrwt>0</asrwt>
<pdfrwt beam="1">  1        2 0.52185536E+00 0.23839779E+04</pdfrwt>
<pdfrwt beam="2">  1       -2 0.64441788E-01 0.23839779E+04</pdfrwt>
<totfact> 0.19363941E+00</totfact>
</mgrwt>
</event>
<event>
 6    1  0.1028026E-006  0.1309113E+04  0.7818608E-02  0.9022369E-01
          1   -1    0    0  501    0  0.00000000000E+00  0.00000000000E+00  0.17038337127E+04  0.17038337127E+04  0.00000000000E+00 0. -1.
         -1   -1    0    0    0  501 -0.00000000000E+00 -0.00000000000E+00 -0.25145901171E+03  0.25145901171E+03  0.00000000000E+00 0.  1.
         23    2    1    2    0    0  0.33035319537E+03 -0.56110399225E+03  0.73197955207E+03  0.98424169876E+03  0.94692835572E+02 0.  0.
         11    1    3    3    0    0  0.25657314142E+03 -0.35709392177E+03  0.46025285161E+03  0.63653635660E+03  0.00000000000E+00 0. -1.
        -11    1    3    3    0    0  0.73780053959E+02 -0.20401007048E+03  0.27172670047E+03  0.34770534216E+03  0.00000000000E+00 0.  1.
         22    1    1    2    0    0 -0.33035319537E+03  0.56110399225E+03  0.72039514888E+03  0.97105102561E+03  0.00000000000E+00 0.  1.
<mgrwt>
<rscale>  0 0.13091132E+04</rscale>
<asrwt>0</asrwt>
<pdfrwt beam="1">  1        1 0.26212826E+00 0.13091132E+04</pdfrwt>
<pdfrwt beam="2">  1       -1 0.38686003E-01 0.13091132E+04</pdfrwt>
<totfact> 0.30121067E+01</totfact>
</mgrwt>
</event>
<event>
 6    1  0.1028026E-006  0.4189953E+04  0.7818608E-02  0.7967286E-01
          1   -1    0    0  501    0  0.00000000000E+00  0.00000000000E+00  0.29139834621E+04  0.29139834621E+04  0.00000000000E+00 0. -1.
         -1   -1    0    0    0  501 -0.00000000000E+00 -0.00000000000E+00 -0.15061600635E+04  0.15061600635E+04  0.00000000000E+00 0.  1.
         23    2    1    2    0    0  0.20820721884E+03  0.17641781606E+04 -0.46512792137E+03  0.18387443943E+04  0.94668559607E+02 0.  0.
         13    1    3    3    0    0  0.13486679975E+03  0.13163753644E+04 -0.30897744768E+03  0.13588598959E+04  0.00000000000E+00 0. -1.
        -13    1    3    3    0    0  0.73340419084E+02  0.44780279620E+03 -0.15615047368E+03  0.47988449838E+03  0.00000000000E+00 0.  1.
         22    1    1    2    0    0 -0.20820721884E+03 -0.17641781606E+04  0.18729513200E+04  0.25813991313E+04  0.00000000000E+00 0. -1.
<mgrwt>
<rscale>  0 0.41899525E+04</rscale>
<asrwt>0</asrwt>
<pdfrwt beam="1">  1        1 0.44830515E+00 0.41899525E+04</pdfrwt>
<pdfrwt beam="2">  1       -1 0.23171693E+00 0.41899525E+04</pdfrwt>
<totfact> 0.48895489E-02</totfact>
</mgrwt>
</event>
<event>
 6    1  0.1028026E-006  0.2925760E+04  0.7818608E-02  0.8265254E-01
         -2   -1    0    0    0  501 -0.00000000000E+00  0.00000000000E+00  0.10565303517E+04  0.10565303517E+04  0.00000000000E+00 0.  1.
          2   -1    0    0  501    0  0.00000000000E+00 -0.00000000000E+00 -0.20255141654E+04  0.20255141654E+04  0.00000000000E+00 0. -1.
         23    2    1    2    0    0 -0.14535941460E+04 -0.14354546490E+03 -0.43120021836E+03  0.15255251832E+04  0.88046660282E+02 0.  0.
         11    1    3    3    0    0 -0.28524016183E+03  0.64544183613E+01 -0.89524355086E+02  0.29902879391E+03  0.00000000000E+00 0.  1.
        -11    1    3    3    0    0 -0.11683539842E+04 -0.14999988326E+03 -0.34167586327E+03  0.12264963892E+04  0.00000000000E+00 0. -1.
         22    1    1    2    0    0  0.14535941460E+04  0.14354546490E+03 -0.53778359534E+03  0.15565193340E+04  0.00000000000E+00 0. -1.
<mgrwt>
<rscale>  0 0.29257595E+04</rscale>
<asrwt>0</asrwt>
<pdfrwt beam="1">  1        2 0.31161756E+00 0.29257595E+04</pdfrwt>
<pdfrwt beam="2">  1       -2 0.16254313E+00 0.29257595E+04</pdfrwt>
<totfact> 0.13436825E+00</totfact>
</mgrwt>
</event>
<event>
 6    1  0.1028026E-006  0.2819217E+04  0.7818608E-02  0.8297327E-01
          2   -1    0    0  501    0  0.00000000000E+00  0.00000000000E+00  0.21819173117E+04  0.21819173117E+04  0.00000000000E+00 0. -1.
         -2   -1    0    0    0  501 -0.00000000000E+00 -0.00000000000E+00 -0.91066540120E+03  0.91066540120E+03  0.00000000000E+00 0.  1.
         23    2    1    2    0    0  0.66533537821E+03  0.11207852687E+04  0.12210333610E+04  0.17882236033E+04  0.89389051408E+02 0.  0.
         13    1    3    3    0    0  0.23810164882E+03  0.40275377280E+03  0.49780474395E+03  0.68316364056E+03  0.00000000000E+00 0.  1.
        -13    1    3    3    0    0  0.42723372940E+03  0.71803149592E+03  0.72322861706E+03  0.11050599627E+04  0.00000000000E+00 0. -1.
         22    1    1    2    0    0 -0.66533537821E+03 -0.11207852687E+04  0.50218549441E+02  0.13043591096E+04  0.00000000000E+00 0.  1.
<mgrwt>
<rscale>  0 0.28192173E+04</rscale>
<asrwt>0</asrwt>
<pdfrwt beam="1">  1        2 0.33567958E+00 0.28192173E+04</pdfrwt>
<pdfrwt beam="2">  1       -2 0.14010237E+00 0.28192173E+04</pdfrwt>
<totfact> 0.16462943E+00</totfact>
</mgrwt>
</event>
<event>
 6    1  0.1028026E-006  0.2246969E+04  0.7818608E-02  0.8499129E-01
          2   -1    0    0  501    0  0.00000000000E+00  0.00000000000E+00  0.99172195699E+03  0.99172195699E+03  0.00000000000E+00 0. -1.
         -2   -1    0    0    0  501 -0.00000000000E+00 -0.00000000000E+00 -0.12727535689E+04  0.12727535689E+04  0.00000000000E+00 0.  1.
         23    2    1    2    0    0 -0.13909587859E+03  0.72869767565E+03  0.70684694217E+03  0.10290598050E+04  0.94781414741E+02 0.  0.
         13    1    3    3    0    0 -0.20953982889E+02  0.34915382579E+03  0.35139501697E+03  0.49580835150E+03  0.00000000000E+00 0. -1.
        -13    1    3    3    0    0 -0.11814189570E+03  0.37954384986E+03  0.35545192520E+03  0.53325145345E+03  0.00000000000E+00 0.  1.
         22    1    1    2    0    0  0.13909587859E+03 -0.72869767565E+03 -0.98787855405E+03  0.12354157209E+04  0.00000000000E+00 0.  1.
<mgrwt>
<rscale>  0 0.22469692E+04</rscale>
<asrwt>0</asrwt>
<pdfrwt beam="1">  1        2 0.15257261E+00 0.22469692E+04</pdfrwt>
<pdfrwt beam="2">  1       -2 0.19580824E+00 0.22469692E+04</pdfrwt>
<totfact> 0.32905784E+00</totfact>
</mgrwt>
</event>
<event>
 6    1  0.1028026E-006  0.2768131E+04  0.7818608E-02  0.8313231E-01
         -4   -1    0    0    0  501 -0.00000000000E+00  0.00000000000E+00  0.16502270392E+04  0.16502270392E+04  0.00000000000E+00 0.  1.
          4   -1    0    0  501    0  0.00000000000E+00 -0.00000000000E+00 -0.11608326290E+04  0.11608326290E+04  0.00000000000E+00 0. -1.
         23    2    1    2    0    0 -0.42700908721E+03  0.50523567818E+03 -0.98781947476E+03  0.11924921803E+04  0.93007710764E+02 0.  0.
         13    1    3    3    0    0 -0.21519862656E+03  0.21297419639E+03 -0.38382639994E+03  0.48886722379E+03  0.00000000000E+00 0. -1.
        -13    1    3    3    0    0 -0.21181046065E+03  0.29226148179E+03 -0.60399307482E+03  0.70362495650E+03  0.00000000000E+00 0.  1.
         22    1    1    2    0    0  0.42700908721E+03 -0.50523567818E+03  0.14772138850E+04  0.16185674880E+04  0.00000000000E+00 0.  1.
<mgrwt>
<rscale>  0 0.27681311E+04</rscale>
<asrwt>0</asrwt>
<pdfrwt beam="1">  1        4 0.17858963E+00 0.27681311E+04</pdfrwt>
<pdfrwt beam="2">  1       -4 0.25388108E+00 0.27681311E+04</pdfrwt>
<totfact> 0.19066454E-02</totfact>
</mgrwt>
</event>
<event>
 6    1  0.1028026E-006  0.1891195E+04  0.7818608E-02  0.8659252E-01
          1   -1    0    0  501    0  0.00000000000E+00  0.00000000000E+00  0.27513792164E+04  0.27513792164E+04  0.00000000000E+00 0. -1.
         -1   -1    0    0    0  501 -0.00000000000E+00 -0.00000000000E+00 -0.32498409676E+03  0.32498409676E+03  0.00000000000E+00 0.  1.
         23    2    1    2    0    0  0.21136184169E+03 -0.80009757144E+03  0.47858372837E+03  0.96004595324E+03  0.88407552461E+02 0.  0.
         11    1    3    3    0    0  0.11695490235E+03 -0.33683780550E+03  0.24569128295E+03  0.43301543035E+03  0.00000000000E+00 0. -1.
        -11    1    3    3    0    0  0.94406939339E+02 -0.46325976594E+03  0.23289244542E+03  0.52703052290E+03  0.00000000000E+00 0.  1.
         22    1    1    2    0    0 -0.21136184169E+03  0.80009757144E+03  0.19478113913E+04  0.21163173600E+04  0.00000000000E+00 0. -1.
<mgrwt>
<rscale>  0 0.18911948E+04</rscale>
<asrwt>0</asrwt>
<pdfrwt beam="1">  1        1 0.42328909E+00 0.18911948E+04</pdfrwt>
<pdfrwt beam="2">  1       -1 0.49997555E-01 0.18911948E+04</pdfrwt>
<totfact> 0.33973642E+00</totfact>
</mgrwt>
</event>
<event>
 6    1  0.1028026E-006  0.1797196E+04  0.7818608E-02  0.8707792E-01
          2   -1    0    0  501    0  0.00000000000E+00  0.00000000000E+00  0.14470775551E+04  0.14470775551E+04  0.00000000000E+00 0. -1.
         -2   -1    0    0    0  501 -0.00000000000E+00 -0.00000000000E+00 -0.55800597435E+03  0.55800597435E+03  0.00000000000E+00 0.  1.
         23    2    1    2    0    0  0.19686720207E+03  0.68915649996E+03 -0.15485206570E+03  0.73880158758E+03  0.90306405541E+02 0.  0.
         13    1    3    3    0    0  0.97257325459E+02  0.19395913584E+03 -0.56272767008E+02  0.22415565582E+03  0.00000000000E+00 0. -1.
        -13    1    3    3    0    0  0.99609876616E+02  0.49519736412E+03 -0.98579298691E+02  0.51464593176E+03  0.00000000000E+00 0.  1.
         22    1    1    2    0    0 -0.19686720207E+03 -0.68915649996E+03  0.10439236464E+04  0.12662819418E+04  0.00000000000E+00 0. -1.
<mgrwt>
<rscale>  0 0.17971955E+04</rscale>
<asrwt>0</asrwt>
<pdfrwt beam="1">  1        2 0.22262731E+00 0.17971955E+04</pdfrwt>
<pdfrwt beam="2">  1       -2 0.85847073E-01 0.17971955E+04</pdfrwt>
<totfact> 0.15130437E+01</totfact>
</mgrwt>
</event>
<event>
 6    1  0.1028026E-006  0.3518471E+04  0.7818608E-02  0.8109426E-01
         -1   -1    0    0    0  501 -0.00000000000E+00  0.00000000000E+00  0.12934739832E+04  0.12934739832E+04  0.00000000000E+00 0.  1.
          1   -1    0    0  501    0  0.00000000000E+00 -0.00000000000E+00 -0.23927113440E+04  0.23927113440E+04  0.00000000000E+00 0. -1.
         23    2    1    2    0    0  0.49291539840E+03  0.69262559537E+03 -0.21623453511E+04  0.23249746879E+04  0.84107527980E+02 0.  0.
         11    1    3    3    0    0  0.32192394922E+03  0.44666115159E+03 -0.15063681085E+04  0.16038348081E+04  0.00000000000E+00 0. -1.
        -11    1    3    3    0    0  0.17099144918E+03  0.24596444378E+03 -0.65597724261E+03  0.72113987971E+03  0.00000000000E+00 0.  1.
         22    1    1    2    0    0 -0.49291539840E+03 -0.69262559537E+03  0.10631079903E+04  0.13612106393E+04  0.00000000000E+00 0.  1.
<mgrwt>
<rscale>  0 0.35184712E+04</rscale>
<asrwt>0</asrwt>
<pdfrwt beam="1">  1        1 0.36810943E+00 0.35184712E+04</pdfrwt>
<pdfrwt beam="2">  1       -1 0.19899600E+00 0.35184712E+04</pdfrwt>
<totfact> 0.20019736E-01</totfact>
</mgrwt>
</event>
<event>
 6    1  0.1028026E-006  0.3236985E+04  0.7818608E-02  0.8179117E-01
          1   -1    0    0  501    0  0.00000000000E+00  0.00000000000E+00  0.32242031359E+04  0.32242031359E+04  0.00000000000E+00 0. -1.
         -1   -1    0    0    0  501 -0.00000000000E+00 -0.00000000000E+00 -0.81245432933E+03  0.81245432933E+03  0.00000000000E+00 0.  1.
         23    2    1    2    0    0  0.13462659051E+04 -0.14390334833E+03  0.10311115241E+03  0.13602890528E+04  0.81328570337E+02 0.  0.
         13    1    3    3    0    0  0.55047008875E+03 -0.97870603424E+02  0.32666634432E+02  0.56005632095E+03  0.00000000000E+00 0. -1.
        -13    1    3    3    0    0  0.79579581638E+03 -0.46032744910E+02  0.70444517979E+02  0.80023273182E+03  0.00000000000E+00 0.  1.
         22    1    1    2    0    0 -0.13462659051E+04  0.14390334833E+03  0.23086376542E+04  0.26763684125E+04  0.00000000000E+00 0. -1.
<mgrwt>
<rscale>  0 0.32369849E+04</rscale>
<asrwt>0</asrwt>
<pdfrwt beam="1">  1        1 0.49603125E+00 0.32369849E+04</pdfrwt>
<pdfrwt beam="2">  1       -1 0.12499298E+00 0.32369849E+04</pdfrwt>
<totfact> 0.19007888E-01</totfact>
</mgrwt>
</event>
<event>
 6    1  0.1028026E-006  0.2202952E+04  0.7818608E-02  0.8517201E-01
          2   -1    0    0  501    0  0.00000000000E+00  0.00000000000E+00  0.11138628472E+04  0.11138628472E+04  0.00000000000E+00 0. -1.
         -2   -1    0    0    0  501 -0.00000000000E+00 -0.00000000000E+00 -0.10892266206E+04  0.10892266206E+04  0.00000000000E+00 0.  1.
         23    2    1    2    0    0  0.69429363342E+03  0.62112166294E+03 -0.57185978648E+03  0.10969053678E+04  0.91334554508E+02 0.  0.
         11    1    3    3    0    0  0.21318063890E+03  0.18445527364E+03 -0.22300665726E+03  0.35944638259E+03  0.00000000000E+00 0. -1.
        -11    1    3    3    0    0  0.48111299452E+03  0.43666638930E+03 -0.34885312922E+03  0.73745898517E+03  0.00000000000E+00 0.  1.
         22    1    1    2    0    0 -0.69429363342E+03 -0.62112166294E+03  0.59649601313E+03  0.11061841001E+04  0.00000000000E+00 0. -1.
<mgrwt>
<rscale>  0 0.22029517E+04</rscale>
<asrwt>0</asrwt>
<pdfrwt beam="1">  1        2 0.17136351E+00 0.22029517E+04</pdfrwt>
<pdfrwt beam="2">  1       -2 0.16757333E+00 0.22029517E+04</pdfrwt>
<totfact> 0.43299699E+00</totfact>
</mgrwt>
</event>
<event>
 6    1  0.1028026E-006  0.1864087E+04  0.7818608E-02  0.8672942E-01
          2   -1    0    0  501    0  0.00000000000E+00  0.00000000000E+00  0.16181059619E+04  0.16181059619E+04  0.00000000000E+00 0. -1.
         -2   -1    0    0    0  501 -0.00000000000E+00 -0.00000000000E+00 -0.53686529992E+03  0.53686529992E+03  0.00000000000E+00 0.  1.
         23    2    1    2    0    0  0.70426201342E+03  0.59810897120E+03  0.65920932853E+03  0.11391810416E+04  0.97248042791E+02 0.  0.
         13    1    3    3    0    0  0.29014942772E+03  0.22862935216E+03  0.20809673769E+03  0.42398387152E+03  0.00000000000E+00 0. -1.
        -13    1    3    3    0    0  0.41411258570E+03  0.36947961904E+03  0.45111259085E+03  0.71519717011E+03  0.00000000000E+00 0.  1.
         22    1    1    2    0    0 -0.70426201342E+03 -0.59810897120E+03  0.42203133340E+03  0.10157902201E+04  0.00000000000E+00 0. -1.
<mgrwt>
<rscale>  0 0.18640868E+04</rscale>
<asrwt>0</asrwt>
<pdfrwt beam="1">  1        2 0.24893938E+00 0.18640868E+04</pdfrwt>
<pdfrwt beam="2">  1       -2 0.82594662E-01 0.18640868E+04</pdfrwt>
<totfact> 0.13160475E+01</totfact>
</mgrwt>
</event>
<event>
 6    1  0.1028026E-006  0.3986571E+04  0.7818608E-02  0.8007261E-01
          1   -1    0    0  501    0  0.00000000000E+00  0.00000000000E+00  0.18378986035E+04  0.18378986035E+04  0.00000000000E+00 0. -1.
         -1   -1    0    0    0  501 -0.00000000000E+00 -0.00000000000E+00 -0.21618092386E+04  0.21618092386E+04  0.00000000000E+00 0.  1.
         23    2    1    2    0    0 -0.10036698061E+04  0.94721687770E+03 -0.16036379039E+04  0.21176146521E+04  0.89801976028E+02 0.  0.
         11    1    3    3    0    0 -0.25318510953E+03  0.28613334783E+03 -0.41177104771E+03  0.56172091661E+03  0.00000000000E+00 0. -1.
        -11    1    3    3    0    0 -0.75048469654E+03  0.66108352986E+03 -0.11918668562E+04  0.15558937355E+04  0.00000000000E+00 0.  1.
         22    1    1    2    0    0  0.10036698061E+04 -0.94721687770E+03  0.12797272689E+04  0.18820931900E+04  0.00000000000E+00 0. -1.
<mgrwt>
<rscale>  0 0.39865705E+04</rscale>
<asrwt>0</asrwt>
<pdfrwt beam="1">  1        1 0.28275363E+00 0.39865705E+04</pdfrwt>
<pdfrwt beam="2">  1       -1 0.33258604E+00 0.39865705E+04</pdfrwt>
<totfact> 0.60885671E-02</totfact>
</mgrwt>
</event>
<event>
 6    1  0.1028026E-006  0.1180811E+04  0.7818608E-02  0.9129821E-01
          2   -1    0    0  501    0  0.00000000000E+00  0.00000000000E+00  0.13418518747E+04  0.13418518747E+04  0.00000000000E+00 0. -1.
         -2   -1    0    0    0  501 -0.00000000000E+00 -0.00000000000E+00 -0.25977419613E+03  0.25977419613E+03  0.00000000000E+00 0.  1.
         23    2    1    2    0    0  0.15508687953E+03  0.56601834582E+03  0.52582952376E+03  0.79302189218E+03  0.89209446843E+02 0.  0.
         13    1    3    3    0    0  0.12958515565E+03  0.30578955916E+03  0.29833882843E+03  0.44643658408E+03  0.00000000000E+00 0. -1.
        -13    1    3    3    0    0  0.25501723887E+02  0.26022878666E+03  0.22749069533E+03  0.34658530810E+03  0.00000000000E+00 0.  1.
         22    1    1    2    0    0 -0.15508687953E+03 -0.56601834582E+03  0.55624815484E+03  0.80860417867E+03  0.00000000000E+00 0. -1.
<mgrwt>
<rscale>  0 0.11808107E+04</rscale>
<asrwt>0</asrwt>
<pdfrwt beam="1">  1        2 0.20643875E+00 0.11808107E+04</pdfrwt>
<pdfrwt beam="2">  1       -2 0.39965262E-01 0.11808107E+04</pdfrwt>
<totfact> 0.91426532E+01</totfact>
</mgrwt>
</event>
<event>
 6    1  0.1028026E-006  0.2613592E+04  0.7818608E-02  0.8363599E-01
          1   -1    0    0  501    0  0.00000000000E+00  0.00000000000E+00  0.12999594693E+04  0.12999594693E+04  0.00000000000E+00 0. -1.
         -1   -1    0    0    0  501 -0.00000000000E+00 -0.00000000000E+00 -0.13136684781E+04  0.13136684781E+04  0.00000000000E+00 0.  1.
         23    2    1    2    0    0  0.10051988506E+04 -0.81679249569E+03  0.15407331489E+03  0.13075936375E+04  0.92129388062E+02 0.  0.
         11    1    3    3    0    0  0.65003629604E+03 -0.54922671560E+03  0.14196758103E+03  0.86275834702E+03  0.00000000000E+00 0. -1.
        -11    1    3    3    0    0  0.35516255461E+03 -0.26756578008E+03  0.12105733859E+02  0.44483529049E+03  0.00000000000E+00 0.  1.
         22    1    1    2    0    0 -0.10051988506E+04  0.81679249569E+03 -0.16778232364E+03  0.13060343098E+04  0.00000000000E+00 0. -1.
<mgrwt>
<rscale>  0 0.26135920E+04</rscale>
<asrwt>0</asrwt>
<pdfrwt beam="1">  1        1 0.19999376E+00 0.26135920E+04</pdfrwt>
<pdfrwt beam="2">  1       -1 0.20210284E+00 0.26135920E+04</pdfrwt>
<totfact> 0.11584476E+00</totfact>
</mgrwt>
</event>
<event>
 6    1  0.1028026E-006  0.3168175E+04  0.7818608E-02  0.8197273E-01
         -2   -1    0    0    0  501 -0.00000000000E+00  0.00000000000E+00  0.88993099115E+03  0.88993099115E+03  0.00000000000E+00 0.  1.
          2   -1    0    0  501    0  0.00000000000E+00 -0.00000000000E+00 -0.28196942695E+04  0.28196942695E+04  0.00000000000E+00 0. -1.
         23    2    1    2    0    0 -0.14386583165E+04  0.58425964482E+03 -0.13245449401E+04  0.20430760351E+04  0.92969365268E+02 0.  0.
         13    1    3    3    0    0 -0.11235412962E+04  0.45458541134E+03 -0.10830852783E+04  0.16254435273E+04  0.00000000000E+00 0. -1.
        -13    1    3    3    0    0 -0.31511702031E+03  0.12967423348E+03 -0.24145966175E+03  0.41763250780E+03  0.00000000000E+00 0.  1.
         22    1    1    2    0    0  0.14386583165E+04 -0.58425964482E+03 -0.60521833824E+03  0.16665492255E+04  0.00000000000E+00 0.  1.
<mgrwt>
<rscale>  0 0.31681751E+04</rscale>
<asrwt>0</asrwt>
<pdfrwt beam="1">  1        2 0.43379912E+00 0.31681751E+04</pdfrwt>
<pdfrwt beam="2">  1       -2 0.13691246E+00 0.31681751E+04</pdfrwt>
<totfact> 0.72240793E-01</totfact>
</mgrwt>
</event>
<event>
 6    1  0.1028026E-006  0.1103163E+04  0.7818608E-02  0.9202114E-01
         -1   -1    0    0    0  501 -0.00000000000E+00  0.00000000000E+00  0.16880607123E+03  0.16880607123E+03  0.00000000000E+00 0.  1.
          1   -1    0    0  501    0  0.00000000000E+00 -0.00000000000E+00 -0.18023187155E+04  0.18023187155E+04  0.00000000000E+00 0. -1.
         23    2    1    2    0    0  0.29735189405E+03 -0.44641026008E+03 -0.10181449849E+04  0.11548052259E+04  0.96206186085E+02 0.  0.
         11    1    3    3    0    0  0.16990375517E+03 -0.16904165936E+03 -0.45236519219E+03  0.51193421035E+03  0.00000000000E+00 0. -1.
        -11    1    3    3    0    0  0.12744813888E+03 -0.27736860073E+03 -0.56577979274E+03  0.64287101556E+03  0.00000000000E+00 0.  1.
         22    1    1    2    0    0 -0.29735189405E+03  0.44641026008E+03 -0.61536765932E+03  0.81631956080E+03  0.00000000000E+00 0.  1.
<mgrwt>
<rscale>  0 0.11031633E+04</rscale>
<asrwt>0</asrwt>
<pdfrwt beam="1">  1        1 0.27727982E+00 0.11031633E+04</pdfrwt>
<pdfrwt beam="2">  1       -1 0.25970163E-01 0.11031633E+04</pdfrwt>
<totfact> 0.53121572E+01</totfact>
</mgrwt>
</event>
<event>
 6    1  0.1028026E-006  0.1385686E+04  0.7818608E-02  0.8964246E-01
         -2   -1    0    0    0  501 -0.00000000000E+00  0.00000000000E+00  0.17739520826E+03  0.17739520826E+03  0.00000000000E+00 0.  1.
          2   -1    0    0  501    0  0.00000000000E+00 -0.00000000000E+00 -0.27059985956E+04  0.27059985956E+04  0.00000000000E+00 0. -1.
         23    2    1    2    0    0 -0.56712187570E+03 -0.38503246227E+03 -0.11072391396E+04  0.13053717686E+04  0.90220414423E+02 0.  0.
         13    1    3    3    0    0 -0.37216302528E+03 -0.19960573935E+03 -0.68087816084E+03  0.80121335390E+03  0.00000000000E+00 0. -1.
        -13    1    3    3    0    0 -0.19495885042E+03 -0.18542672292E+03 -0.42636097874E+03  0.50415841472E+03  0.00000000000E+00 0.  1.
         22    1    1    2    0    0  0.56712187570E+03  0.38503246227E+03 -0.14213642477E+04  0.15780220352E+04  0.00000000000E+00 0.  1.
<mgrwt>
<rscale>  0 0.13856857E+04</rscale>
<asrwt>0</asrwt>
<pdfrwt beam="1">  1        2 0.41630748E+00 0.13856857E+04</pdfrwt>
<pdfrwt beam="2">  1       -2 0.27291570E-01 0.13856857E+04</pdfrwt>
<totfact> 0.31544009E+01</totfact>
</mgrwt>
</event>
<event>
 6    1  0.1028026E-006  0.2225917E+04  0.7818608E-02  0.8507718E-01
         -2   -1    0    0    0  501 -0.00000000000E+00  0.00000000000E+00  0.47527844236E+03  0.47527844236E+03  0.00000000000E+00 0.  1.
          2   -1    0    0  501    0  0.00000000000E+00 -0.00000000000E+00 -0.26062129827E+04  0.26062129827E+04  0.00000000000E+00 0. -1.
         23    2    1    2    0    0  0.58071594484E+03 -0.30950947438E+02  0.24379055832E+03  0.63659709934E+03  0.87367389974E+02 0.  0.
         11    1    3    3    0    0  0.53663316618E+03 -0.42984885244E+02  0.20303182811E+03  0.57536490910E+03  0.00000000000E+00 0. -1.
        -11    1    3    3    0    0  0.44082778662E+02  0.12033937807E+02  0.40758730206E+02  0.61232190241E+02  0.00000000000E+00 0.  1.
         22    1    1    2    0    0 -0.58071594484E+03  0.30950947438E+02 -0.23747250986E+04  0.24448943257E+04  0.00000000000E+00 0. -1.
<mgrwt>
<rscale>  0 0.22259172E+04</rscale>
<asrwt>0</asrwt>
<pdfrwt beam="1">  1        2 0.40095584E+00 0.22259172E+04</pdfrwt>
<pdfrwt beam="2">  1       -2 0.73119762E-01 0.22259172E+04</pdfrwt>
<totfact> 0.46501580E+00</totfact>
</mgrwt>
</event>
<event>
 6    1  0.1028026E-006  0.3122320E+04  0.7818608E-02  0.8209639E-01
         -1   -1    0    0    0  501 -0.00000000000E+00  0.00000000000E+00  0.91469772369E+03  0.91469772369E+03  0.00000000000E+00 0.  1.
          1   -1    0    0  501    0  0.00000000000E+00 -0.00000000000E+00 -0.26645087065E+04  0.26645087065E+04  0.00000000000E+00 0. -1.
         23    2    1    2    0    0 -0.15387840743E+02  0.10655737275E+04  0.42981071368E+03  0.11530088096E+04  0.94910015518E+02 0.  0.
         11    1    3    3    0    0 -0.52217703183E+02  0.42442732697E+03  0.16525456067E+03  0.45844772246E+03  0.00000000000E+00 0.  1.
        -11    1    3    3    0    0  0.36829862440E+02  0.64114640053E+03  0.26455615300E+03  0.69456108714E+03  0.00000000000E+00 0. -1.
         22    1    1    2    0    0  0.15387840743E+02 -0.10655737275E+04 -0.21796216965E+04  0.24261976206E+04  0.00000000000E+00 0. -1.
<mgrwt>
<rscale>  0 0.31223197E+04</rscale>
<asrwt>0</asrwt>
<pdfrwt beam="1">  1        1 0.40992442E+00 0.31223197E+04</pdfrwt>
<pdfrwt beam="2">  1       -1 0.14072273E+00 0.31223197E+04</pdfrwt>
<totfact> 0.36189721E-01</totfact>
</mgrwt>
</event>
<event>
 6    1  0.1028026E-006  0.1688966E+04  0.7818608E-02  0.8767683E-01
         -2   -1    0    0    0  501 -0.00000000000E+00  0.00000000000E+00  0.86068120040E+03  0.86068120040E+03  0.00000000000E+00 0.  1.
          2   -1    0    0  501    0  0.00000000000E+00 -0.00000000000E+00 -0.82858944327E+03  0.82858944327E+03  0.00000000000E+00 0. -1.
         23    2    1    2    0    0  0.14312058110E+03  0.64591734115E+03 -0.50488003969E+03  0.83719586825E+03  0.91106284137E+02 0.  0.
         13    1    3    3    0    0  0.12725657280E+03  0.54569666915E+03 -0.46507528447E+03  0.72819922430E+03  0.00000000000E+00 0. -1.
        -13    1    3    3    0    0  0.15864008295E+02  0.10022067200E+03 -0.39804755218E+02  0.10899664395E+03  0.00000000000E+00 0.  1.
         22    1    1    2    0    0 -0.14312058110E+03 -0.64591734115E+03  0.53697179682E+03  0.85207477542E+03  0.00000000000E+00 0.  1.
<mgrwt>
<rscale>  0 0.16889658E+04</rscale>
<asrwt>0</asrwt>
<pdfrwt beam="1">  1        2 0.12747530E+00 0.16889658E+04</pdfrwt>
<pdfrwt beam="2">  1       -2 0.13241249E+00 0.16889658E+04</pdfrwt>
<totfact> 0.12968648E+01</totfact>
</mgrwt>
</event>
<event>
 6    1  0.1028026E-006  0.3706597E+04  0.7818608E-02  0.8066501E-01
         -2   -1    0    0    0  501 -0.00000000000E+00  0.00000000000E+00  0.11822651613E+04  0.11822651613E+04  0.00000000000E+00 0.  1.
          2   -1    0    0  501    0  0.00000000000E+00 -0.00000000000E+00 -0.29051994350E+04  0.29051994350E+04  0.00000000000E+00 0. -1.
         23    2    1    2    0    0 -0.40605943542E+03  0.72057129991E+03 -0.26895641164E+04  0.28152694397E+04  0.88767215936E+02 0.  0.
         13    1    3    3    0    0 -0.20949561515E+03  0.43511158731E+03 -0.14602726232E+04  0.15380528731E+04  0.00000000000E+00 0.  1.
        -13    1    3    3    0    0 -0.19656382026E+03  0.28545971261E+03 -0.12292914932E+04  0.12772165667E+04  0.00000000000E+00 0. -1.
         22    1    1    2    0    0  0.40605943542E+03 -0.72057129991E+03  0.96662984280E+03  0.12721951566E+04  0.00000000000E+00 0.  1.
<mgrwt>
<rscale>  0 0.37065974E+04</rscale>
<asrwt>0</asrwt>
<pdfrwt beam="1">  1        2 0.44695375E+00 0.37065974E+04</pdfrwt>
<pdfrwt beam="2">  1       -2 0.18188695E+00 0.37065974E+04</pdfrwt>
<totfact> 0.28340710E-01</totfact>
</mgrwt>
</event>
<event>
 6    1  0.1028026E-006  0.5880236E+03  0.7818608E-02  0.9930569E-01
          1   -1    0    0  501    0  0.00000000000E+00  0.00000000000E+00  0.10685000124E+04  0.10685000124E+04  0.00000000000E+00 0. -1.
         -1   -1    0    0    0  501 -0.00000000000E+00 -0.00000000000E+00 -0.80901218518E+02  0.80901218518E+02  0.00000000000E+00 0.  1.
         23    2    1    2    0    0 -0.63442132900E+00  0.61203717587E+02  0.10535474224E+04  0.10594261281E+04  0.93141032559E+02 0.  0.
         11    1    3    3    0    0 -0.24533455173E+02  0.36105440595E+02  0.18095162646E+03  0.18614237664E+03  0.00000000000E+00 0. -1.
        -11    1    3    3    0    0  0.23899033844E+02  0.25098276993E+02  0.87259579598E+03  0.87328375142E+03  0.00000000000E+00 0.  1.
         22    1    1    2    0    0  0.63442132900E+00 -0.61203717587E+02 -0.65948628523E+02  0.89975102895E+02  0.00000000000E+00 0.  1.
<mgrwt>
<rscale>  0 0.58802365E+03</rscale>
<asrwt>0</asrwt>
<pdfrwt beam="1">  1        1 0.16438461E+00 0.58802365E+03</pdfrwt>
<pdfrwt beam="2">  1       -1 0.12446342E-01 0.58802365E+03</pdfrwt>
<totfact> 0.60570132E+02</totfact>
</mgrwt>
</event>
<event>
 6    1  0.1028026E-006  0.1152508E+04  0.7818608E-02  0.9155473E-01
          2   -1    0    0  501    0  0.00000000000E+00  0.00000000000E+00  0.13656891292E+04  0.13656891292E+04  0.00000000000E+00 0. -1.
         -2   -1    0    0    0  501 -0.00000000000E+00 -0.00000000000E+00 -0.24315083688E+03  0.24315083688E+03  0.00000000000E+00 0.  1.
         23    2    1    2    0    0 -0.26619231355E+02  0.48457371014E+03  0.98915792900E+03  0.11055402687E+04  0.90915418155E+02 0.  0.
         11    1    3    3    0    0  0.24130017437E+02  0.26372506129E+03  0.58599759994E+03  0.64306014713E+03  0.00000000000E+00 0.  1.
        -11    1    3    3    0    0 -0.50749248792E+02  0.22084864885E+03  0.40316032906E+03  0.46248012160E+03  0.00000000000E+00 0. -1.
         22    1    1    2    0    0  0.26619231355E+02 -0.48457371014E+03  0.13338036333E+03  0.50329969736E+03  0.00000000000E+00 0. -1.
<mgrwt>
<rscale>  0 0.11525076E+04</rscale>
<asrwt>0</asrwt>
<pdfrwt beam="1">  1        2 0.21010601E+00 0.11525076E+04</pdfrwt>
<pdfrwt beam="2">  1       -2 0.37407822E-01 0.11525076E+04</pdfrwt>
<totfact> 0.10092450E+02</totfact>
</mgrwt>
</event>
<event>
 6    1  0.1028026E-006  0.3422119E+04  0.7818608E-02  0.8132499E-01
          2   -1    0    0  501    0  0.00000000000E+00  0.00000000000E+00  0.21123121762E+04  0.21123121762E+04  0.00000000000E+00 0. -1.
         -2   -1    0    0    0  501 -0.00000000000E+00 -0.00000000000E+00 -0.13860283910E+04  0.13860283910E+04  0.00000000000E+00 0.  1.
         23    2    1    2    0    0 -0.15233545588E+04  0.79706686707E+02  0.11520307450E+04  0.19146036126E+04  0.10756341474E+03 0.  0.
         11    1    3    3    0    0 -0.90360719965E+03 -0.51055193304E+01  0.69043053381E+03  0.11372011078E+04  0.00000000000E+00 0.  1.
        -11    1    3    3    0    0 -0.61974735913E+03  0.84812206037E+02  0.46160021118E+03  0.77740250476E+03  0.00000000000E+00 0. -1.
         22    1    1    2    0    0  0.15233545588E+04 -0.79706686707E+02 -0.42574695976E+03  0.15837369546E+04  0.00000000000E+00 0. -1.
<mgrwt>
<rscale>  0 0.34221190E+04</rscale>
<asrwt>0</asrwt>
<pdfrwt beam="1">  1        2 0.32497110E+00 0.34221190E+04</pdfrwt>
<pdfrwt beam="2">  1       -2 0.21323514E+00 0.34221190E+04</pdfrwt>
<totfact> 0.52206333E-01</totfact>
</mgrwt>
</event>
<event>
 6    1  0.1028026E-006  0.2573041E+04  0.7818608E-02  0.8377416E-01
          2   -1    0    0  501    0  0.00000000000E+00  0.00000000000E+00  0.19575232025E+04  0.19575232025E+04  0.00000000000E+00 0. -1.
         -2   -1    0    0    0  501 -0.00000000000E+00 -0.00000000000E+00 -0.84552539197E+03  0.84552539197E+03  0.00000000000E+00 0.  1.
         23    2    1    2    0    0  0.10057634893E+04  0.23837617728E+03  0.13882439508E+04  0.17331442397E+04  0.90467067047E+02 0.  0.
         13    1    3    3    0    0  0.85484330969E+03  0.22745101567E+03  0.11490255724E+04  0.14500864852E+04  0.00000000000E+00 0. -1.
        -13    1    3    3    0    0  0.15092017963E+03  0.10925161614E+02  0.23921837846E+03  0.28305775447E+03  0.00000000000E+00 0.  1.
         22    1    1    2    0    0 -0.10057634893E+04 -0.23837617728E+03 -0.27624614028E+03  0.10699043548E+04  0.00000000000E+00 0.  1.
<mgrwt>
<rscale>  0 0.25730414E+04</rscale>
<asrwt>0</asrwt>
<pdfrwt beam="1">  1        2 0.30115741E+00 0.25730414E+04</pdfrwt>
<pdfrwt beam="2">  1       -2 0.13008083E+00 0.25730414E+04</pdfrwt>
<totfact> 0.27120899E+00</totfact>
</mgrwt>
</event>
<event>
 6    1  0.1028026E-006  0.5249612E+04  0.7818608E-02  0.7791115E-01
         -2   -1    0    0    0  501 -0.00000000000E+00  0.00000000000E+00  0.22092242027E+04  0.22092242027E+04  0.00000000000E+00 0.  1.
          2   -1    0    0  501    0  0.00000000000E+00 -0.00000000000E+00 -0.31185639522E+04  0.31185639522E+04  0.00000000000E+00 0. -1.
         23    2    1    2    0    0 -0.18135077554E+04  0.18053975441E+04 -0.10440742622E+04  0.27652846797E+04  0.91856537753E+02 0.  0.
         11    1    3    3    0    0 -0.22737886414E+03  0.23587665081E+03 -0.16650441760E+03  0.36750872552E+03  0.00000000000E+00 0.  1.
        -11    1    3    3    0    0 -0.15861288913E+04  0.15695208933E+04 -0.87756984455E+03  0.23977759542E+04  0.00000000000E+00 0. -1.
         22    1    1    2    0    0  0.18135077554E+04 -0.18053975441E+04  0.13473451270E+03  0.25625034752E+04  0.00000000000E+00 0. -1.
<mgrwt>
<rscale>  0 0.52496122E+04</rscale>
<asrwt>0</asrwt>
<pdfrwt beam="1">  1        2 0.47977906E+00 0.52496122E+04</pdfrwt>
<pdfrwt beam="2">  1       -2 0.33988065E+00 0.52496122E+04</pdfrwt>
<totfact> 0.18811537E-02</totfact>
</mgrwt>
</event>
<event>
 6    1  0.1028026E-006  0.1366855E+04  0.7818608E-02  0.8978167E-01
         -2   -1    0    0    0  501 -0.00000000000E+00  0.00000000000E+00  0.23989559737E+03  0.23989559737E+03  0.00000000000E+00 0.  1.
          2   -1    0    0  501    0  0.00000000000E+00 -0.00000000000E+00 -0.19469838689E+04  0.19469838689E+04  0.00000000000E+00 0. -1.
         23    2    1    2    0    0  0.64636536112E+03  0.20039363463E+03 -0.97029868907E+03  0.11864772083E+04  0.91119871729E+02 0.  0.
         11    1    3    3    0    0  0.35799654482E+03  0.83721451917E+02 -0.58972693309E+03  0.69494507928E+03  0.00000000000E+00 0.  1.
        -11    1    3    3    0    0  0.28836881630E+03  0.11667218271E+03 -0.38057175598E+03  0.49153212905E+03  0.00000000000E+00 0. -1.
         22    1    1    2    0    0 -0.64636536112E+03 -0.20039363463E+03 -0.73678958244E+03  0.10004022579E+04  0.00000000000E+00 0.  1.
<mgrwt>
<rscale>  0 0.13668546E+04</rscale>
<asrwt>0</asrwt>
<pdfrwt beam="1">  1        2 0.29953598E+00 0.13668546E+04</pdfrwt>
<pdfrwt beam="2">  1       -2 0.36907015E-01 0.13668546E+04</pdfrwt>
<totfact> 0.48280095E+01</totfact>
</mgrwt>
</event>
<event>
 6    1  0.1028026E-006  0.3205716E+04  0.7818608E-02  0.8187309E-01
          1   -1    0    0  501    0  0.00000000000E+00  0.00000000000E+00  0.36795165859E+04  0.36795165859E+04  0.00000000000E+00 0. -1.
         -1   -1    0    0    0  501 -0.00000000000E+00 -0.00000000000E+00 -0.69823154955E+03  0.69823154955E+03  0.00000000000E+00 0.  1.
         23    2    1    2    0    0  0.39530496959E+03 -0.80592275703E+03 -0.31936476290E+03  0.95721212386E+03  0.92106943195E+02 0.  0.
         13    1    3    3    0    0  0.12185480870E+03 -0.19881164558E+03 -0.47358904140E+02  0.23794438557E+03  0.00000000000E+00 0. -1.
        -13    1    3    3    0    0  0.27345016089E+03 -0.60711111145E+03 -0.27200585877E+03  0.71926773828E+03  0.00000000000E+00 0.  1.
         22    1    1    2    0    0 -0.39530496959E+03  0.80592275703E+03  0.33006497992E+04  0.34205360116E+04  0.00000000000E+00 0. -1.
<mgrwt>
<rscale>  0 0.32057165E+04</rscale>
<asrwt>0</asrwt>
<pdfrwt beam="1">  1        1 0.56607946E+00 0.32057165E+04</pdfrwt>
<pdfrwt beam="2">  1       -1 0.10742024E+00 0.32057165E+04</pdfrwt>
<totfact> 0.12086296E-01</totfact>
</mgrwt>
</event>
<event>
 6    1  0.1028026E-006  0.2929670E+04  0.7818608E-02  0.8264104E-01
          1   -1    0    0  501    0  0.00000000000E+00  0.00000000000E+00  0.30080307159E+04  0.30080307159E+04  0.00000000000E+00 0. -1.
         -1   -1    0    0    0  501 -0.00000000000E+00 -0.00000000000E+00 -0.71333766570E+03  0.71333766570E+03  0.00000000000E+00 0.  1.
         23    2    1    2    0    0 -0.46513069885E+03  0.13167053434E+04  0.17041653891E+04  0.22051947613E+04  0.92977057977E+02 0.  0.
         11    1    3    3    0    0 -0.20702180263E+03  0.72430616145E+03  0.90902395052E+03  0.11805939119E+04  0.00000000000E+00 0.  1.
        -11    1    3    3    0    0 -0.25810889622E+03  0.59239918200E+03  0.79514143857E+03  0.10246008493E+04  0.00000000000E+00 0. -1.
         22    1    1    2    0    0  0.46513069885E+03 -0.13167053434E+04  0.59052766113E+03  0.15161736203E+04  0.00000000000E+00 0. -1.
<mgrwt>
<rscale>  0 0.29296700E+04</rscale>
<asrwt>0</asrwt>
<pdfrwt beam="1">  1        1 0.46277395E+00 0.29296700E+04</pdfrwt>
<pdfrwt beam="2">  1       -1 0.10974426E+00 0.29296700E+04</pdfrwt>
<totfact> 0.38718856E-01</totfact>
</mgrwt>
</event>
<event>
 6    1  0.1028026E-006  0.1478720E+04  0.7818608E-02  0.8898728E-01
          2   -1    0    0  501    0  0.00000000000E+00  0.00000000000E+00  0.13399380056E+04  0.13399380056E+04  0.00000000000E+00 0. -1.
         -2   -1    0    0    0  501 -0.00000000000E+00 -0.00000000000E+00 -0.40796925122E+03  0.40796925122E+03  0.00000000000E+00 0.  1.
         23    2    1    2    0    0 -0.11506476119E+03 -0.23668763478E+03 -0.34563437721E+03  0.44347991213E+03  0.89164869906E+02 0.  0.
         11    1    3    3    0    0 -0.26082100816E+02 -0.97120751246E+02 -0.72003144011E+02  0.12368172481E+03  0.00000000000E+00 0.  1.
        -11    1    3    3    0    0 -0.88982660375E+02 -0.13956688354E+03 -0.27363123320E+03  0.31979818732E+03  0.00000000000E+00 0. -1.
         22    1    1    2    0    0  0.11506476119E+03  0.23668763478E+03  0.12776031316E+04  0.13044273447E+04  0.00000000000E+00 0. -1.
<mgrwt>
<rscale>  0 0.14787204E+04</rscale>
<asrwt>0</asrwt>
<pdfrwt beam="1">  1        2 0.20614431E+00 0.14787204E+04</pdfrwt>
<pdfrwt beam="2">  1       -2 0.62764501E-01 0.14787204E+04</pdfrwt>
<totfact> 0.35685694E+01</totfact>
</mgrwt>
</event>
<event>
 6    1  0.1028026E-006  0.1253109E+04  0.7818608E-02  0.9067600E-01
          1   -1    0    0  501    0  0.00000000000E+00  0.00000000000E+00  0.19773631163E+04  0.19773631163E+04  0.00000000000E+00 0. -1.
         -1   -1    0    0    0  501 -0.00000000000E+00 -0.00000000000E+00 -0.19853219608E+03  0.19853219608E+03  0.00000000000E+00 0.  1.
         23    2    1    2    0    0 -0.56952251097E+00  0.25500172038E+03  0.18814830731E+04  0.19010068509E+04  0.93927051153E+02 0.  0.
         13    1    3    3    0    0 -0.31517175857E+02  0.18025224005E+03  0.10735667548E+04  0.10890499435E+04  0.00000000000E+00 0. -1.
        -13    1    3    3    0    0  0.30947653346E+02  0.74749480339E+02  0.80791631827E+03  0.81195690735E+03  0.00000000000E+00 0.  1.
         22    1    1    2    0    0  0.56952251097E+00 -0.25500172038E+03 -0.10265215291E+03  0.27488846148E+03  0.00000000000E+00 0.  1.
<mgrwt>
<rscale>  0 0.12531085E+04</rscale>
<asrwt>0</asrwt>
<pdfrwt beam="1">  1        1 0.30420970E+00 0.12531085E+04</pdfrwt>
<pdfrwt beam="2">  1       -1 0.30543416E-01 0.12531085E+04</pdfrwt>
<totfact> 0.30135632E+01</totfact>
</mgrwt>
</event>
<event>
 6    1  0.1028026E-006  0.8992407E+03  0.7818608E-02  0.9426531E-01
          1   -1    0    0  501    0  0.00000000000E+00  0.00000000000E+00  0.49920202758E+03  0.49920202758E+03  0.00000000000E+00 0. -1.
         -1   -1    0    0    0  501 -0.00000000000E+00 -0.00000000000E+00 -0.40496322669E+03  0.40496322669E+03  0.00000000000E+00 0.  1.
         23    2    1    2    0    0  0.33642567983E+03 -0.39243074811E+02  0.33791193547E+03  0.48691370726E+03  0.90433540312E+02 0.  0.
         11    1    3    3    0    0  0.23525399221E+03 -0.40501736431E+02  0.28806848183E+03  0.37412335095E+03  0.00000000000E+00 0.  1.
        -11    1    3    3    0    0  0.10117168762E+03  0.12586616208E+01  0.49843453642E+02  0.11279035631E+03  0.00000000000E+00 0. -1.
         22    1    1    2    0    0 -0.33642567983E+03  0.39243074811E+02 -0.24367313458E+03  0.41725154701E+03  0.00000000000E+00 0.  1.
<mgrwt>
<rscale>  0 0.89924071E+03</rscale>
<asrwt>0</asrwt>
<pdfrwt beam="1">  1        1 0.76800312E-01 0.89924071E+03</pdfrwt>
<pdfrwt beam="2">  1       -1 0.62302035E-01 0.89924071E+03</pdfrwt>
<totfact> 0.11702703E+02</totfact>
</mgrwt>
</event>
<event>
 6    1  0.1028026E-006  0.1299645E+04  0.7818608E-02  0.9029846E-01
         -2   -1    0    0    0  501 -0.00000000000E+00  0.00000000000E+00  0.13064630562E+03  0.13064630562E+03  0.00000000000E+00 0.  1.
          2   -1    0    0  501    0  0.00000000000E+00 -0.00000000000E+00 -0.32321580775E+04  0.32321580775E+04  0.00000000000E+00 0. -1.
         23    2    1    2    0    0 -0.13606156978E+03 -0.51781049859E+03 -0.24967242999E+04  0.25550863943E+04  0.90519552057E+02 0.  0.
         11    1    3    3    0    0 -0.11627453740E+03 -0.28274710443E+03 -0.14984384167E+04  0.15293081383E+04  0.00000000000E+00 0.  1.
        -11    1    3    3    0    0 -0.19787032374E+02 -0.23506339416E+03 -0.99828588323E+03  0.10257782560E+04  0.00000000000E+00 0. -1.
         22    1    1    2    0    0  0.13606156978E+03  0.51781049859E+03 -0.60478747192E+03  0.80771798879E+03  0.00000000000E+00 0.  1.
<mgrwt>
<rscale>  0 0.12996454E+04</rscale>
<asrwt>0</asrwt>
<pdfrwt beam="1">  1        2 0.49725507E+00 0.12996454E+04</pdfrwt>
<pdfrwt beam="2">  1       -2 0.20099433E-01 0.12996454E+04</pdfrwt>
<totfact> 0.26057674E+01</totfact>
</mgrwt>
</event>
<event>
 6    1  0.1028026E-006  0.4191246E+04  0.7818608E-02  0.7967039E-01
         -1   -1    0    0    0  501 -0.00000000000E+00  0.00000000000E+00  0.11572975896E+04  0.11572975896E+04  0.00000000000E+00 0.  1.
          1   -1    0    0  501    0  0.00000000000E+00 -0.00000000000E+00 -0.37947335305E+04  0.37947335305E+04  0.00000000000E+00 0. -1.
         23    2    1    2    0    0  0.27134453857E+03  0.17840391869E+04 -0.25756551033E+04  0.31464174984E+04  0.97571432373E+02 0.  0.
         11    1    3    3    0    0  0.13422899368E+03  0.76040370584E+03 -0.10246079724E+04  0.12829858595E+04  0.00000000000E+00 0. -1.
        -11    1    3    3    0    0  0.13711554488E+03  0.10236354810E+04 -0.15510471309E+04  0.18634316389E+04  0.00000000000E+00 0.  1.
         22    1    1    2    0    0 -0.27134453857E+03 -0.17840391869E+04 -0.61780837680E+02  0.18056136217E+04  0.00000000000E+00 0.  1.
<mgrwt>
<rscale>  0 0.41912461E+04</rscale>
<asrwt>0</asrwt>
<pdfrwt beam="1">  1        1 0.58380515E+00 0.41912461E+04</pdfrwt>
<pdfrwt beam="2">  1       -1 0.17804578E+00 0.41912461E+04</pdfrwt>
<totfact> 0.23789801E-02</totfact>
</mgrwt>
</event>
<event>
 6    1  0.1028026E-006  0.6001734E+04  0.7818608E-02  0.7690187E-01
         -2   -1    0    0    0  501 -0.00000000000E+00  0.00000000000E+00  0.22304185397E+04  0.22304185397E+04  0.00000000000E+00 0.  1.
          2   -1    0    0  501    0  0.00000000000E+00 -0.00000000000E+00 -0.40374503308E+04  0.40374503308E+04  0.00000000000E+00 0. -1.
         23    2    1    2    0    0  0.12677115224E+04  0.12922670366E+04 -0.34022857478E+04  0.38550112734E+04  0.92287649093E+02 0.  0.
         13    1    3    3    0    0  0.98287888008E+03  0.99108604266E+03 -0.27018482199E+04  0.30410995117E+04  0.00000000000E+00 0.  1.
        -13    1    3    3    0    0  0.28483264228E+03  0.30118099393E+03 -0.70043752796E+03  0.81391176167E+03  0.00000000000E+00 0. -1.
         22    1    1    2    0    0 -0.12677115224E+04 -0.12922670366E+04  0.15952539567E+04  0.24128575972E+04  0.00000000000E+00 0.  1.
<mgrwt>
<rscale>  0 0.60017344E+04</rscale>
<asrwt>0</asrwt>
<pdfrwt beam="1">  1        2 0.62114620E+00 0.60017344E+04</pdfrwt>
<pdfrwt beam="2">  1       -2 0.34314132E+00 0.60017344E+04</pdfrwt>
<totfact> 0.36669881E-03</totfact>
</mgrwt>
</event>
<event>
 6    1  0.1028026E-006  0.1763193E+04  0.7818608E-02  0.8726122E-01
          2   -1    0    0  501    0  0.00000000000E+00  0.00000000000E+00  0.76102220533E+03  0.76102220533E+03  0.00000000000E+00 0. -1.
         -2   -1    0    0    0  501 -0.00000000000E+00 -0.00000000000E+00 -0.10212743950E+04  0.10212743950E+04  0.00000000000E+00 0.  1.
         23    2    1    2    0    0 -0.75089274408E+03 -0.38772589086E+03 -0.37575948885E+03  0.92935274771E+03  0.91269144059E+02 0.  0.
         13    1    3    3    0    0 -0.28392141645E+03 -0.18642855424E+03 -0.18053201408E+03  0.38465411042E+03  0.00000000000E+00 0.  1.
        -13    1    3    3    0    0 -0.46697132763E+03 -0.20129733662E+03 -0.19522747477E+03  0.54469863729E+03  0.00000000000E+00 0. -1.
         22    1    1    2    0    0  0.75089274408E+03  0.38772589086E+03  0.11550729918E+03  0.85294385262E+03  0.00000000000E+00 0. -1.
<mgrwt>
<rscale>  0 0.17631931E+04</rscale>
<asrwt>0</asrwt>
<pdfrwt beam="1">  1        2 0.11708034E+00 0.17631931E+04</pdfrwt>
<pdfrwt beam="2">  1       -2 0.15711914E+00 0.17631931E+04</pdfrwt>
<totfact> 0.92146293E+00</totfact>
</mgrwt>
</event>
<event>
 6    1  0.1715312E-006  0.3195340E+04  0.7818608E-02  0.8190049E-01
          2   -1    0    0  501    0  0.00000000000E+00  0.00000000000E+00  0.23090836409E+04  0.23090836409E+04  0.00000000000E+00 0. -1.
         -2   -1    0    0    0  501 -0.00000000000E+00 -0.00000000000E+00 -0.11054382820E+04  0.11054382820E+04  0.00000000000E+00 0.  1.
         23    2    1    2    0    0  0.51264668315E+03 -0.43378898265E+03 -0.94517623801E+03  0.11632081378E+04  0.93357098017E+02 0.  0.
         13    1    3    3    0    0  0.38778264235E+03 -0.30763015969E+03 -0.75751903252E+03  0.90490152917E+03  0.00000000000E+00 0. -1.
        -13    1    3    3    0    0  0.12486404080E+03 -0.12615882295E+03 -0.18765720549E+03  0.25830660864E+03  0.00000000000E+00 0.  1.
         22    1    1    2    0    0 -0.51264668315E+03  0.43378898265E+03  0.21488215969E+04  0.22513137850E+04  0.00000000000E+00 0. -1.
<mgrwt>
<rscale>  0 0.31953400E+04</rscale>
<asrwt>0</asrwt>
<pdfrwt beam="1">  1        2 0.35524364E+00 0.31953400E+04</pdfrwt>
<pdfrwt beam="2">  1       -2 0.17006743E+00 0.31953400E+04</pdfrwt>
<totfact> 0.80341653E-01</totfact>
</mgrwt>
</event>
<event>
 6    1  0.1028026E-006  0.2264857E+04  0.7818608E-02  0.8491908E-01
          1   -1    0    0  501    0  0.00000000000E+00  0.00000000000E+00  0.13727099531E+04  0.13727099531E+04  0.00000000000E+00 0. -1.
         -1   -1    0    0    0  501 -0.00000000000E+00 -0.00000000000E+00 -0.93420629818E+03  0.93420629818E+03  0.00000000000E+00 0.  1.
         23    2    1    2    0    0  0.28549730982E+03  0.10907372807E+04  0.13388018672E+03  0.11390070139E+04  0.90534767282E+02 0.  0.
         13    1    3    3    0    0  0.16102908953E+03  0.73588517410E+03  0.11921646346E+03  0.76267288026E+03  0.00000000000E+00 0. -1.
        -13    1    3    3    0    0  0.12446822030E+03  0.35485210656E+03  0.14663723265E+02  0.37633413368E+03  0.00000000000E+00 0.  1.
         22    1    1    2    0    0 -0.28549730982E+03 -0.10907372807E+04  0.30462346825E+03  0.11679092374E+04  0.00000000000E+00 0.  1.
<mgrwt>
<rscale>  0 0.22648570E+04</rscale>
<asrwt>0</asrwt>
<pdfrwt beam="1">  1        1 0.21118615E+00 0.22648570E+04</pdfrwt>
<pdfrwt beam="2">  1       -1 0.14372405E+00 0.22648570E+04</pdfrwt>
<totfact> 0.28480899E+00</totfact>
</mgrwt>
</event>
<event>
 6    1  0.1028026E-006  0.4397620E+03  0.7818608E-02  0.1030820E+00
          1   -1    0    0  501    0  0.00000000000E+00  0.00000000000E+00  0.90623468135E+02  0.90623468135E+02  0.00000000000E+00 0. -1.
         -1   -1    0    0    0  501 -0.00000000000E+00 -0.00000000000E+00 -0.53350037753E+03  0.53350037753E+03  0.00000000000E+00 0.  1.
         23    2    1    2    0    0 -0.22752128459E+02  0.16433656258E+03 -0.41468773472E+03  0.45584195502E+03  0.91114244125E+02 0.  0.
         11    1    3    3    0    0 -0.12318742246E+02  0.52125370051E+02 -0.25393155305E+03  0.25951886106E+03  0.00000000000E+00 0.  1.
        -11    1    3    3    0    0 -0.10433386213E+02  0.11221119253E+03 -0.16075618167E+03  0.19632309396E+03  0.00000000000E+00 0. -1.
         22    1    1    2    0    0  0.22752128459E+02 -0.16433656258E+03 -0.28189174684E+02  0.16828189065E+03  0.00000000000E+00 0. -1.
<mgrwt>
<rscale>  0 0.43976200E+03</rscale>
<asrwt>0</asrwt>
<pdfrwt beam="1">  1        1 0.13942072E-01 0.43976200E+03</pdfrwt>
<pdfrwt beam="2">  1       -1 0.82076982E-01 0.43976200E+03</pdfrwt>
<totfact> 0.63566937E+02</totfact>
</mgrwt>
</event>
<event>
 6    1  0.1028026E-006  0.9366854E+03  0.7818608E-02  0.9380850E-01
         -1   -1    0    0    0  501 -0.00000000000E+00  0.00000000000E+00  0.22614101944E+03  0.22614101944E+03  0.00000000000E+00 0.  1.
          1   -1    0    0  501    0  0.00000000000E+00 -0.00000000000E+00 -0.96994729893E+03  0.96994729893E+03  0.00000000000E+00 0. -1.
         23    2    1    2    0    0 -0.28264947740E+03  0.15017027594E+03 -0.80451072698E+03  0.87031712751E+03  0.88162088012E+02 0.  0.
         11    1    3    3    0    0 -0.12693408391E+03  0.11688504561E+03 -0.43346982369E+03  0.46655167301E+03  0.00000000000E+00 0. -1.
        -11    1    3    3    0    0 -0.15571539349E+03  0.33285230325E+02 -0.37104090330E+03  0.40376545450E+03  0.00000000000E+00 0.  1.
         22    1    1    2    0    0  0.28264947740E+03 -0.15017027594E+03  0.60704447496E+02  0.32577119086E+03  0.00000000000E+00 0.  1.
<mgrwt>
<rscale>  0 0.93668537E+03</rscale>
<asrwt>0</asrwt>
<pdfrwt beam="1">  1        1 0.14922266E+00 0.93668537E+03</pdfrwt>
<pdfrwt beam="2">  1       -1 0.34790925E-01 0.93668537E+03</pdfrwt>
<totfact> 0.12592196E+02</totfact>
</mgrwt>
</event>
<event>
 6    1  0.1028026E-006  0.4033175E+04  0.7818608E-02  0.7997887E-01
         -2   -1    0    0    0  501 -0.00000000000E+00  0.00000000000E+00  0.21469976151E+04  0.21469976151E+04  0.00000000000E+00 0.  1.
          2   -1    0    0  501    0  0.00000000000E+00 -0.00000000000E+00 -0.18940984785E+04  0.18940984785E+04  0.00000000000E+00 0. -1.
         23    2    1    2    0    0 -0.61237789425E+03 -0.63492657035E+03 -0.16893107018E+04  0.19079487729E+04  0.91429960244E+02 0.  0.
         11    1    3    3    0    0 -0.94809714680E+02 -0.10491178485E+03 -0.34856022603E+03  0.37615102787E+03  0.00000000000E+00 0.  1.
        -11    1    3    3    0    0 -0.51756817957E+03 -0.53001478549E+03 -0.13407504758E+04  0.15317977450E+04  0.00000000000E+00 0. -1.
         22    1    1    2    0    0  0.61237789425E+03  0.63492657035E+03  0.19422098385E+04  0.21331473207E+04  0.00000000000E+00 0.  1.
<mgrwt>
<rscale>  0 0.40331749E+04</rscale>
<asrwt>0</asrwt>
<pdfrwt beam="1">  1        2 0.29139977E+00 0.40331749E+04</pdfrwt>
<pdfrwt beam="2">  1       -2 0.33030732E+00 0.40331749E+04</pdfrwt>
<totfact> 0.12439545E-01</totfact>
</mgrwt>
</event>
<event>
 6    1  0.1028026E-006  0.2251561E+04  0.7818608E-02  0.8497269E-01
         -2   -1    0    0    0  501 -0.00000000000E+00  0.00000000000E+00  0.11560822114E+04  0.11560822114E+04  0.00000000000E+00 0.  1.
          2   -1    0    0  501    0  0.00000000000E+00 -0.00000000000E+00 -0.10962727321E+04  0.10962727321E+04  0.00000000000E+00 0. -1.
         23    2    1    2    0    0 -0.19286616010E+03 -0.75908811580E+03  0.83635346612E+03  0.11494348708E+04  0.91111353345E+02 0.  0.
         13    1    3    3    0    0 -0.13356025352E+03 -0.34429995385E+03  0.37943316509E+03  0.52948118598E+03  0.00000000000E+00 0.  1.
        -13    1    3    3    0    0 -0.59305906583E+02 -0.41478816195E+03  0.45692030103E+03  0.61995368484E+03  0.00000000000E+00 0. -1.
         22    1    1    2    0    0  0.19286616010E+03  0.75908811580E+03 -0.77654398677E+03  0.11029200726E+04  0.00000000000E+00 0. -1.
<mgrwt>
<rscale>  0 0.22515607E+04</rscale>
<asrwt>0</asrwt>
<pdfrwt beam="1">  1        2 0.16865734E+00 0.22515607E+04</pdfrwt>
<pdfrwt beam="2">  1       -2 0.17785880E+00 0.22515607E+04</pdfrwt>
<totfact> 0.37402916E+00</totfact>
</mgrwt>
</event>
<event>
 6    1  0.1028026E-006  0.3901071E+04  0.7818608E-02  0.8024806E-01
         -2   -1    0    0    0  501 -0.00000000000E+00  0.00000000000E+00  0.18977654577E+04  0.18977654577E+04  0.00000000000E+00 0.  1.
          2   -1    0    0  501    0  0.00000000000E+00 -0.00000000000E+00 -0.20047733374E+04  0.20047733374E+04  0.00000000000E+00 0. -1.
         23    2    1    2    0    0 -0.92591575056E+03 -0.13088500804E+04 -0.11630172732E+04  0.19827564248E+04  0.91133705055E+02 0.  0.
         11    1    3    3    0    0 -0.40545089227E+03 -0.50852430410E+03 -0.44089176257E+03  0.78573083191E+03  0.00000000000E+00 0.  1.
        -11    1    3    3    0    0 -0.52046485828E+03 -0.80032577632E+03 -0.72212551065E+03  0.11970255929E+04  0.00000000000E+00 0. -1.
         22    1    1    2    0    0  0.92591575056E+03  0.13088500804E+04  0.10560093935E+04  0.19197823703E+04  0.00000000000E+00 0.  1.
<mgrwt>
<rscale>  0 0.39010714E+04</rscale>
<asrwt>0</asrwt>
<pdfrwt beam="1">  1        2 0.30842667E+00 0.39010714E+04</pdfrwt>
<pdfrwt beam="2">  1       -2 0.29196392E+00 0.39010714E+04</pdfrwt>
<totfact> 0.18795432E-01</totfact>
</mgrwt>
</event>
<event>
 6    1  0.1028026E-006  0.3353681E+04  0.7818608E-02  0.8149369E-01
          1   -1    0    0  501    0  0.00000000000E+00  0.00000000000E+00  0.37973720068E+04  0.37973720068E+04  0.00000000000E+00 0. -1.
         -1   -1    0    0    0  501 -0.00000000000E+00 -0.00000000000E+00 -0.74045802195E+03  0.74045802195E+03  0.00000000000E+00 0.  1.
         23    2    1    2    0    0 -0.15146588826E+04 -0.86231550464E+02  0.56729427648E+03  0.16223826011E+04  0.93140203541E+02 0.  0.
         13    1    3    3    0    0 -0.67599419176E+03 -0.81201115977E+02  0.27349178790E+03  0.73372987303E+03  0.00000000000E+00 0.  1.
        -13    1    3    3    0    0 -0.83866469081E+03 -0.50304344871E+01  0.29380248858E+03  0.88865272811E+03  0.00000000000E+00 0. -1.
         22    1    1    2    0    0  0.15146588826E+04  0.86231550464E+02  0.24896197084E+04  0.29154474276E+04  0.00000000000E+00 0. -1.
<mgrwt>
<rscale>  0 0.33536813E+04</rscale>
<asrwt>0</asrwt>
<pdfrwt beam="1">  1        1 0.58421107E+00 0.33536813E+04</pdfrwt>
<pdfrwt beam="2">  1       -1 0.11391662E+00 0.33536813E+04</pdfrwt>
<totfact> 0.82920354E-02</totfact>
</mgrwt>
</event>
<event>
 6    1  0.1028026E-006  0.7774477E+03  0.7818608E-02  0.9593247E-01
         -2   -1    0    0    0  501 -0.00000000000E+00  0.00000000000E+00  0.25480271420E+03  0.25480271420E+03  0.00000000000E+00 0.  1.
          2   -1    0    0  501    0  0.00000000000E+00 -0.00000000000E+00 -0.59303231687E+03  0.59303231687E+03  0.00000000000E+00 0. -1.
         23    2    1    2    0    0 -0.19336717294E+03  0.33040198295E+03 -0.17249912869E+03  0.43067448175E+03  0.95750853374E+02 0.  0.
         13    1    3    3    0    0 -0.65451287736E+02  0.94717609086E+02 -0.65462356155E+01  0.11531760376E+03  0.00000000000E+00 0. -1.
        -13    1    3    3    0    0 -0.12791588520E+03  0.23568437386E+03 -0.16595289308E+03  0.31535687798E+03  0.00000000000E+00 0.  1.
         22    1    1    2    0    0  0.19336717294E+03 -0.33040198295E+03 -0.16573047397E+03  0.41716054932E+03  0.00000000000E+00 0. -1.
<mgrwt>
<rscale>  0 0.77744773E+03</rscale>
<asrwt>0</asrwt>
<pdfrwt beam="1">  1        2 0.91235741E-01 0.77744773E+03</pdfrwt>
<pdfrwt beam="2">  1       -2 0.39200418E-01 0.77744773E+03</pdfrwt>
<totfact> 0.31148201E+02</totfact>
</mgrwt>
</event>
<event>
 6    1  0.1028026E-006  0.4980571E+04  0.7818608E-02  0.7831511E-01
         -2   -1    0    0    0  501 -0.00000000000E+00  0.00000000000E+00  0.21179081533E+04  0.21179081533E+04  0.00000000000E+00 0.  1.
          2   -1    0    0  501    0  0.00000000000E+00 -0.00000000000E+00 -0.29281354224E+04  0.29281354224E+04  0.00000000000E+00 0. -1.
         23    2    1    2    0    0 -0.24051826257E+04 -0.26695292297E+03 -0.99707895797E+03  0.26188886817E+04  0.90797315008E+02 0.  0.
         11    1    3    3    0    0 -0.10749837977E+04 -0.12704167243E+03 -0.49417558088E+03  0.11899324588E+04  0.00000000000E+00 0.  1.
        -11    1    3    3    0    0 -0.13301988280E+04 -0.13991125054E+03 -0.50290337709E+03  0.14289562228E+04  0.00000000000E+00 0. -1.
         22    1    1    2    0    0  0.24051826257E+04  0.26695292297E+03  0.18685168896E+03  0.24271548941E+04  0.00000000000E+00 0. -1.
<mgrwt>
<rscale>  0 0.49805710E+04</rscale>
<asrwt>0</asrwt>
<pdfrwt beam="1">  1        2 0.45048237E+00 0.49805710E+04</pdfrwt>
<pdfrwt beam="2">  1       -2 0.32583202E+00 0.49805710E+04</pdfrwt>
<totfact> 0.31000382E-02</totfact>
</mgrwt>
</event>
<event>
 6    1  0.1028026E-006  0.2357697E+04  0.7818608E-02  0.8455513E-01
          2   -1    0    0  501    0  0.00000000000E+00  0.00000000000E+00  0.16570580928E+04  0.16570580928E+04  0.00000000000E+00 0. -1.
         -2   -1    0    0    0  501 -0.00000000000E+00 -0.00000000000E+00 -0.83864509698E+03  0.83864509698E+03  0.00000000000E+00 0.  1.
         23    2    1    2    0    0 -0.75693944718E+03  0.50038576222E+03 -0.38370879815E+03  0.98956905058E+03  0.93119419906E+02 0.  0.
         11    1    3    3    0    0 -0.28905862319E+03  0.16783129533E+03 -0.18558847703E+03  0.38231572573E+03  0.00000000000E+00 0. -1.
        -11    1    3    3    0    0 -0.46788082399E+03  0.33255446689E+03 -0.19812032112E+03  0.60725332485E+03  0.00000000000E+00 0.  1.
         22    1    1    2    0    0  0.75693944718E+03 -0.50038576222E+03  0.12021217940E+04  0.15061341392E+04  0.00000000000E+00 0. -1.
<mgrwt>
<rscale>  0 0.23576969E+04</rscale>
<asrwt>0</asrwt>
<pdfrwt beam="1">  1        2 0.25493201E+00 0.23576969E+04</pdfrwt>
<pdfrwt beam="2">  1       -2 0.12902232E+00 0.23576969E+04</pdfrwt>
<totfact> 0.41399416E+00</totfact>
</mgrwt>
</event>
<event>
 6    1  0.1028026E-006  0.2572129E+04  0.7818608E-02  0.8377730E-01
         -2   -1    0    0    0  501 -0.00000000000E+00  0.00000000000E+00  0.16591499435E+04  0.16591499435E+04  0.00000000000E+00 0.  1.
          2   -1    0    0  501    0  0.00000000000E+00 -0.00000000000E+00 -0.99687291590E+03  0.99687291590E+03  0.00000000000E+00 0. -1.
         23    2    1    2    0    0 -0.28163036750E+02  0.63074580682E+03 -0.82341508096E+03  0.10417383520E+04  0.92590328712E+02 0.  0.
         13    1    3    3    0    0  0.43318258436E+01  0.17888757196E+03 -0.17136977873E+03  0.24776426130E+03  0.00000000000E+00 0. -1.
        -13    1    3    3    0    0 -0.32494862593E+02  0.45185823486E+03 -0.65204530223E+03  0.79397409068E+03  0.00000000000E+00 0.  1.
         22    1    1    2    0    0  0.28163036750E+02 -0.63074580682E+03  0.14856921085E+04  0.16142845074E+04  0.00000000000E+00 0.  1.
<mgrwt>
<rscale>  0 0.25721288E+04</rscale>
<asrwt>0</asrwt>
<pdfrwt beam="1">  1        2 0.15336506E+00 0.25721288E+04</pdfrwt>
<pdfrwt beam="2">  1       -2 0.25525384E+00 0.25721288E+04</pdfrwt>
<totfact> 0.13383446E+00</totfact>
</mgrwt>
</event>
<event>
 6    1  0.1028026E-006  0.1135233E+04  0.7818608E-02  0.9171516E-01
          1   -1    0    0  501    0  0.00000000000E+00  0.00000000000E+00  0.10148652711E+04  0.10148652711E+04  0.00000000000E+00 0. -1.
         -1   -1    0    0    0  501 -0.00000000000E+00 -0.00000000000E+00 -0.31746923159E+03  0.31746923159E+03  0.00000000000E+00 0.  1.
         23    2    1    2    0    0  0.19966891890E+02  0.26257421676E+03 -0.23425585554E+03  0.36418206137E+03  0.91699901269E+02 0.  0.
         11    1    3    3    0    0 -0.81210158025E+01  0.84321540846E+02 -0.13179091610E+03  0.15666818029E+03  0.00000000000E+00 0.  1.
        -11    1    3    3    0    0  0.28087907692E+02  0.17825267591E+03 -0.10246493944E+03  0.20751388109E+03  0.00000000000E+00 0. -1.
         22    1    1    2    0    0 -0.19966891890E+02 -0.26257421676E+03  0.93165189509E+03  0.96815244136E+03  0.00000000000E+00 0. -1.
<mgrwt>
<rscale>  0 0.11352330E+04</rscale>
<asrwt>0</asrwt>
<pdfrwt beam="1">  1        1 0.15613312E+00 0.11352330E+04</pdfrwt>
<pdfrwt beam="2">  1       -1 0.48841421E-01 0.11352330E+04</pdfrwt>
<totfact> 0.61446325E+01</totfact>
</mgrwt>
</event>
<event>
 6    1  0.1028026E-006  0.4289741E+04  0.7818608E-02  0.7948518E-01
          1   -1    0    0  501    0  0.00000000000E+00  0.00000000000E+00  0.81532037930E+03  0.81532037930E+03  0.00000000000E+00 0. -1.
         -1   -1    0    0    0  501 -0.00000000000E+00 -0.00000000000E+00 -0.56425305151E+04  0.56425305151E+04  0.00000000000E+00 0.  1.
         23    2    1    2    0    0  0.18704445449E+03  0.12105968124E+04 -0.50634999613E+04  0.52103080487E+04  0.88021778955E+02 0.  0.
         11    1    3    3    0    0  0.14051573599E+03  0.75526429952E+03 -0.30202289262E+04  0.31164004237E+04  0.00000000000E+00 0. -1.
        -11    1    3    3    0    0  0.46528718499E+02  0.45533251289E+03 -0.20432710351E+04  0.20939076250E+04  0.00000000000E+00 0.  1.
         22    1    1    2    0    0 -0.18704445449E+03 -0.12105968124E+04  0.23628982557E+03  0.12475428457E+04  0.00000000000E+00 0. -1.
<mgrwt>
<rscale>  0 0.42897413E+04</rscale>
<asrwt>0</asrwt>
<pdfrwt beam="1">  1        1 0.12543391E+00 0.42897413E+04</pdfrwt>
<pdfrwt beam="2">  1       -1 0.86808161E+00 0.42897413E+04</pdfrwt>
<totfact> 0.32219606E-04</totfact>
</mgrwt>
</event>
<event>
 6    1  0.1028026E-006  0.2301368E+04  0.7818608E-02  0.8477382E-01
          2   -1    0    0  501    0  0.00000000000E+00  0.00000000000E+00  0.11914581503E+04  0.11914581503E+04  0.00000000000E+00 0. -1.
         -2   -1    0    0    0  501 -0.00000000000E+00 -0.00000000000E+00 -0.11113050898E+04  0.11113050898E+04  0.00000000000E+00 0.  1.
         23    2    1    2    0    0  0.11257660757E+04  0.22956833254E+03  0.43221373745E+02  0.11532351517E+04  0.89623387062E+02 0.  0.
         13    1    3    3    0    0  0.83634039099E+03  0.20489796026E+03  0.12776067235E+02  0.86116877069E+03  0.00000000000E+00 0. -1.
        -13    1    3    3    0    0  0.28942568471E+03  0.24670372287E+02  0.30445306510E+02  0.29206638103E+03  0.00000000000E+00 0.  1.
         22    1    1    2    0    0 -0.11257660757E+04 -0.22956833254E+03  0.36931686701E+02  0.11495280884E+04  0.00000000000E+00 0.  1.
<mgrwt>
<rscale>  0 0.23013679E+04</rscale>
<asrwt>0</asrwt>
<pdfrwt beam="1">  1        2 0.18330125E+00 0.23013679E+04</pdfrwt>
<pdfrwt beam="2">  1       -2 0.17097001E+00 0.23013679E+04</pdfrwt>
<totfact> 0.36446431E+00</totfact>
</mgrwt>
</event>
<event>
 6    1  0.1028026E-006  0.1609429E+04  0.7818608E-02  0.8814776E-01
         -2   -1    0    0    0  501 -0.00000000000E+00  0.00000000000E+00  0.63222155334E+03  0.63222155334E+03  0.00000000000E+00 0.  1.
          2   -1    0    0  501    0  0.00000000000E+00 -0.00000000000E+00 -0.10242696176E+04  0.10242696176E+04  0.00000000000E+00 0. -1.
         23    2    1    2    0    0 -0.37572629476E+03 -0.59388893412E+03 -0.59460386719E+03  0.92512042508E+03  0.91759072540E+02 0.  0.
         13    1    3    3    0    0 -0.16686126933E+03 -0.28731151985E+03 -0.22369585766E+03  0.40053767535E+03  0.00000000000E+00 0. -1.
        -13    1    3    3    0    0 -0.20886502543E+03 -0.30657741427E+03 -0.37090800953E+03  0.52458274973E+03  0.00000000000E+00 0.  1.
         22    1    1    2    0    0  0.37572629476E+03  0.59388893412E+03  0.20255580290E+03  0.73137074588E+03  0.00000000000E+00 0.  1.
<mgrwt>
<rscale>  0 0.16094289E+04</rscale>
<asrwt>0</asrwt>
<pdfrwt beam="1">  1        2 0.15757994E+00 0.16094289E+04</pdfrwt>
<pdfrwt beam="2">  1       -2 0.97264854E-01 0.16094289E+04</pdfrwt>
<totfact> 0.20542075E+01</totfact>
</mgrwt>
</event>
<event>
 6    1  0.1028026E-006  0.5121272E+04  0.7818608E-02  0.7810067E-01
          2   -1    0    0  501    0  0.00000000000E+00  0.00000000000E+00  0.31320081005E+04  0.31320081005E+04  0.00000000000E+00 0. -1.
         -2   -1    0    0    0  501 -0.00000000000E+00 -0.00000000000E+00 -0.20934993204E+04  0.20934993204E+04  0.00000000000E+00 0.  1.
         23    2    1    2    0    0  0.13108985287E+04  0.14803650426E+04 -0.11393521948E+04  0.22839068299E+04  0.90395642072E+02 0.  0.
         13    1    3    3    0    0  0.81311978035E+03  0.87908162429E+03 -0.73082701248E+03  0.14028743356E+04  0.00000000000E+00 0. -1.
        -13    1    3    3    0    0  0.49777874830E+03  0.60128341831E+03 -0.40852518228E+03  0.88103249426E+03  0.00000000000E+00 0.  1.
         22    1    1    2    0    0 -0.13108985287E+04 -0.14803650426E+04  0.21778609748E+04  0.29416005911E+04  0.00000000000E+00 0. -1.
<mgrwt>
<rscale>  0 0.51212720E+04</rscale>
<asrwt>0</asrwt>
<pdfrwt beam="1">  1        2 0.48184740E+00 0.51212720E+04</pdfrwt>
<pdfrwt beam="2">  1       -2 0.32207682E+00 0.51212720E+04</pdfrwt>
<totfact> 0.24040739E-02</totfact>
</mgrwt>
</event>
<event>
 6    1  0.1028026E-006  0.4070253E+04  0.7818608E-02  0.7990522E-01
         -2   -1    0    0    0  501 -0.00000000000E+00  0.00000000000E+00  0.14378136579E+04  0.14378136579E+04  0.00000000000E+00 0.  1.
          2   -1    0    0  501    0  0.00000000000E+00 -0.00000000000E+00 -0.28805824570E+04  0.28805824570E+04  0.00000000000E+00 0. -1.
         23    2    1    2    0    0  0.19948596117E+04  0.39758812908E+03 -0.72546863084E+03  0.21615324840E+04  0.91524612103E+02 0.  0.
         13    1    3    3    0    0  0.57432098310E+03  0.99578459896E+02 -0.16702518884E+03  0.60634798179E+03  0.00000000000E+00 0.  1.
        -13    1    3    3    0    0  0.14205386286E+04  0.29800966918E+03 -0.55844344200E+03  0.15551845023E+04  0.00000000000E+00 0. -1.
         22    1    1    2    0    0 -0.19948596117E+04 -0.39758812908E+03 -0.71730016829E+03  0.21568636308E+04  0.00000000000E+00 0.  1.
<mgrwt>
<rscale>  0 0.40702535E+04</rscale>
<asrwt>0</asrwt>
<pdfrwt beam="1">  1        2 0.44316653E+00 0.40702535E+04</pdfrwt>
<pdfrwt beam="2">  1       -2 0.22120210E+00 0.40702535E+04</pdfrwt>
<totfact> 0.15725987E-01</totfact>
</mgrwt>
</event>
<event>
 6    1  0.1028026E-006  0.9720116E+03  0.7818608E-02  0.9339786E-01
         -1   -1    0    0    0  501 -0.00000000000E+00  0.00000000000E+00  0.37273442440E+03  0.37273442440E+03  0.00000000000E+00 0.  1.
          1   -1    0    0  501    0  0.00000000000E+00 -0.00000000000E+00 -0.63369952403E+03  0.63369952403E+03  0.00000000000E+00 0. -1.
         23    2    1    2    0    0  0.53594560519E+02 -0.47340758790E+03 -0.20621133740E+03  0.52686633518E+03  0.89877128764E+02 0.  0.
         13    1    3    3    0    0  0.93107458293E+00 -0.32662090582E+03 -0.16303702496E+03  0.36505226273E+03  0.00000000000E+00 0.  1.
        -13    1    3    3    0    0  0.52663485936E+02 -0.14678668208E+03 -0.43174312436E+02  0.16181407245E+03  0.00000000000E+00 0. -1.
         22    1    1    2    0    0 -0.53594560519E+02  0.47340758790E+03 -0.54753762229E+02  0.47956761325E+03  0.00000000000E+00 0.  1.
<mgrwt>
<rscale>  0 0.97201158E+03</rscale>
<asrwt>0</asrwt>
<pdfrwt beam="1">  1        1 0.97492234E-01 0.97201158E+03</pdfrwt>
<pdfrwt beam="2">  1       -1 0.57343758E-01 0.97201158E+03</pdfrwt>
<totfact> 0.97798472E+01</totfact>
</mgrwt>
</event>
<event>
 6    1  0.1028026E-006  0.3553440E+04  0.7818608E-02  0.8101241E-01
         -2   -1    0    0    0  501 -0.00000000000E+00  0.00000000000E+00  0.11355788009E+04  0.11355788009E+04  0.00000000000E+00 0.  1.
          2   -1    0    0  501    0  0.00000000000E+00 -0.00000000000E+00 -0.27798451085E+04  0.27798451085E+04  0.00000000000E+00 0. -1.
         23    2    1    2    0    0  0.12359148137E+04 -0.74185896710E+03  0.31972690518E+03  0.14792158942E+04  0.89522141845E+02 0.  0.
         11    1    3    3    0    0  0.95669841485E+03 -0.61043521700E+03  0.27133948189E+03  0.11668453735E+04  0.00000000000E+00 0. -1.
        -11    1    3    3    0    0  0.27921639884E+03 -0.13142375010E+03  0.48387423289E+02  0.31237052071E+03  0.00000000000E+00 0.  1.
         22    1    1    2    0    0 -0.12359148137E+04  0.74185896710E+03 -0.19639932128E+04  0.24362080153E+04  0.00000000000E+00 0. -1.
<mgrwt>
<rscale>  0 0.35534396E+04</rscale>
<asrwt>0</asrwt>
<pdfrwt beam="1">  1        2 0.42766847E+00 0.35534396E+04</pdfrwt>
<pdfrwt beam="2">  1       -2 0.17470443E+00 0.35534396E+04</pdfrwt>
<totfact> 0.38397657E-01</totfact>
</mgrwt>
</event>
<event>
 6    1  0.1028026E-006  0.2630595E+04  0.7818608E-02  0.8357882E-01
          2   -1    0    0  501    0  0.00000000000E+00  0.00000000000E+00  0.24252009671E+04  0.24252009671E+04  0.00000000000E+00 0. -1.
         -2   -1    0    0    0  501 -0.00000000000E+00 -0.00000000000E+00 -0.71334614021E+03  0.71334614021E+03  0.00000000000E+00 0.  1.
         23    2    1    2    0    0 -0.90864590796E+03  0.60231758094E+03 -0.13763857869E+02  0.10974239607E+04  0.12540355427E+03 0.  0.
         13    1    3    3    0    0 -0.84448337744E+03  0.54994450878E+03 -0.45341012178E+02  0.10087848853E+04  0.00000000000E+00 0. -1.
        -13    1    3    3    0    0 -0.64162530521E+02  0.52373072159E+02  0.31577154309E+02  0.88639075382E+02  0.00000000000E+00 0.  1.
         22    1    1    2    0    0  0.90864590796E+03 -0.60231758094E+03  0.17256186848E+04  0.20411231466E+04  0.00000000000E+00 0. -1.
<mgrwt>
<rscale>  0 0.26305952E+04</rscale>
<asrwt>0</asrwt>
<pdfrwt beam="1">  1        2 0.37310784E+00 0.26305952E+04</pdfrwt>
<pdfrwt beam="2">  1       -2 0.10974556E+00 0.26305952E+04</pdfrwt>
<totfact> 0.22411704E+00</totfact>
</mgrwt>
</event>
<event>
 6    1  0.1028026E-006  0.2375067E+04  0.7818608E-02  0.8448898E-01
         -1   -1    0    0    0  501 -0.00000000000E+00  0.00000000000E+00  0.10242195858E+04  0.10242195858E+04  0.00000000000E+00 0.  1.
          1   -1    0    0  501    0  0.00000000000E+00 -0.00000000000E+00 -0.13768877972E+04  0.13768877972E+04  0.00000000000E+00 0. -1.
         23    2    1    2    0    0  0.53321785366E+03 -0.46439099813E+03  0.78570763864E+03  0.10610029637E+04  0.91708871122E+02 0.  0.
         13    1    3    3    0    0  0.42850271615E+03 -0.36417499393E+03  0.67536735606E+03  0.87883961539E+03  0.00000000000E+00 0. -1.
        -13    1    3    3    0    0  0.10471513751E+03 -0.10021600419E+03  0.11034028258E+03  0.18216334835E+03  0.00000000000E+00 0.  1.
         22    1    1    2    0    0 -0.53321785366E+03  0.46439099813E+03 -0.11383758501E+04  0.13401044193E+04  0.00000000000E+00 0. -1.
<mgrwt>
<rscale>  0 0.23750667E+04</rscale>
<asrwt>0</asrwt>
<pdfrwt beam="1">  1        1 0.21182889E+00 0.23750667E+04</pdfrwt>
<pdfrwt beam="2">  1       -1 0.15757224E+00 0.23750667E+04</pdfrwt>
<totfact> 0.21845307E+00</totfact>
</mgrwt>
</event>
<event>
 6    1  0.1028026E-006  0.2422979E+04  0.7818608E-02  0.8430950E-01
         -1   -1    0    0    0  501 -0.00000000000E+00  0.00000000000E+00  0.12918409018E+04  0.12918409018E+04  0.00000000000E+00 0.  1.
          1   -1    0    0  501    0  0.00000000000E+00 -0.00000000000E+00 -0.11361356119E+04  0.11361356119E+04  0.00000000000E+00 0. -1.
         23    2    1    2    0    0 -0.11602851444E+04  0.13463164715E+03  0.39342380252E+03  0.12359625087E+04  0.91835384229E+02 0.  0.
         11    1    3    3    0    0 -0.35349502330E+03  0.49775053699E+02  0.16436572293E+03  0.39300429812E+03  0.00000000000E+00 0. -1.
        -11    1    3    3    0    0 -0.80679012110E+03  0.84856593454E+02  0.22905807959E+03  0.84295821058E+03  0.00000000000E+00 0.  1.
         22    1    1    2    0    0  0.11602851444E+04 -0.13463164715E+03 -0.23771851265E+03  0.11920140049E+04  0.00000000000E+00 0. -1.
<mgrwt>
<rscale>  0 0.24229787E+04</rscale>
<asrwt>0</asrwt>
<pdfrwt beam="1">  1        1 0.17479009E+00 0.24229787E+04</pdfrwt>
<pdfrwt beam="2">  1       -1 0.19874476E+00 0.24229787E+04</pdfrwt>
<totfact> 0.16357511E+00</totfact>
</mgrwt>
</event>
<event>
 6    1  0.1028026E-006  0.1167782E+04  0.7818608E-02  0.9141533E-01
          1   -1    0    0  501    0  0.00000000000E+00  0.00000000000E+00  0.44057162023E+03  0.44057162023E+03  0.00000000000E+00 0. -1.
         -1   -1    0    0    0  501 -0.00000000000E+00 -0.00000000000E+00 -0.77383320674E+03  0.77383320674E+03  0.00000000000E+00 0.  1.
         23    2    1    2    0    0 -0.19916772818E+03  0.92436500613E+02  0.39079324362E+03  0.45778888237E+03  0.92946280012E+02 0.  0.
         11    1    3    3    0    0 -0.17387134101E+03  0.41294668734E+02  0.26458808960E+03  0.31928568720E+03  0.00000000000E+00 0. -1.
        -11    1    3    3    0    0 -0.25296387169E+02  0.51141831879E+02  0.12620515402E+03  0.13850319517E+03  0.00000000000E+00 0.  1.
         22    1    1    2    0    0  0.19916772818E+03 -0.92436500613E+02 -0.72405483013E+03  0.75661594460E+03  0.00000000000E+00 0.  1.
<mgrwt>
<rscale>  0 0.11677824E+04</rscale>
<asrwt>0</asrwt>
<pdfrwt beam="1">  1        1 0.67780249E-01 0.11677824E+04</pdfrwt>
<pdfrwt beam="2">  1       -1 0.11905126E+00 0.11677824E+04</pdfrwt>
<totfact> 0.33008248E+01</totfact>
</mgrwt>
</event>
<event>
 6    1  0.1028026E-006  0.2291078E+04  0.7818608E-02  0.8481447E-01
          1   -1    0    0  501    0  0.00000000000E+00  0.00000000000E+00  0.78838258267E+03  0.78838258267E+03  0.00000000000E+00 0. -1.
         -1   -1    0    0    0  501 -0.00000000000E+00 -0.00000000000E+00 -0.16644961852E+04  0.16644961852E+04  0.00000000000E+00 0.  1.
         23    2    1    2    0    0 -0.10323167234E+04 -0.21115641583E+03 -0.91498880311E+03  0.13984708152E+04  0.90836457096E+02 0.  0.
         13    1    3    3    0    0 -0.63065600100E+03 -0.16608740584E+03 -0.59778614679E+03  0.88468090025E+03  0.00000000000E+00 0.  1.
        -13    1    3    3    0    0 -0.40166072239E+03 -0.45069009992E+02 -0.31720265633E+03  0.51378991500E+03  0.00000000000E+00 0. -1.
         22    1    1    2    0    0  0.10323167234E+04  0.21115641583E+03  0.38875200580E+02  0.10544079526E+04  0.00000000000E+00 0. -1.
<mgrwt>
<rscale>  0 0.22910782E+04</rscale>
<asrwt>0</asrwt>
<pdfrwt beam="1">  1        1 0.12128963E+00 0.22910782E+04</pdfrwt>
<pdfrwt beam="2">  1       -1 0.25607634E+00 0.22910782E+04</pdfrwt>
<totfact> 0.13028704E+00</totfact>
</mgrwt>
</event>
<event>
 6    1  0.1028026E-006  0.1292099E+04  0.7818608E-02  0.9035854E-01
         -2   -1    0    0    0  501 -0.00000000000E+00  0.00000000000E+00  0.19517631120E+03  0.19517631120E+03  0.00000000000E+00 0.  1.
          2   -1    0    0  501    0  0.00000000000E+00 -0.00000000000E+00 -0.21384778117E+04  0.21384778117E+04  0.00000000000E+00 0. -1.
         23    2    1    2    0    0  0.18335896599E+03  0.21933311478E+03 -0.20164517858E+04  0.20385634760E+04  0.89082634126E+02 0.  0.
         11    1    3    3    0    0  0.18459059187E+03  0.17277863395E+03 -0.16919878299E+04  0.17107743743E+04  0.00000000000E+00 0.  1.
        -11    1    3    3    0    0 -0.12316258840E+01  0.46554480835E+02 -0.32446395583E+03  0.32778910174E+03  0.00000000000E+00 0. -1.
         22    1    1    2    0    0 -0.18335896599E+03 -0.21933311478E+03  0.73150285277E+02  0.29509064689E+03  0.00000000000E+00 0.  1.
<mgrwt>
<rscale>  0 0.12920994E+04</rscale>
<asrwt>0</asrwt>
<pdfrwt beam="1">  1        2 0.32899658E+00 0.12920994E+04</pdfrwt>
<pdfrwt beam="2">  1       -2 0.30027125E-01 0.12920994E+04</pdfrwt>
<totfact> 0.56234292E+01</totfact>
</mgrwt>
</event>
<event>
 6    1  0.1028026E-006  0.4626150E+04  0.7818608E-02  0.7888916E-01
          2   -1    0    0  501    0  0.00000000000E+00  0.00000000000E+00  0.17442622733E+04  0.17442622733E+04  0.00000000000E+00 0. -1.
         -2   -1    0    0    0  501 -0.00000000000E+00 -0.00000000000E+00 -0.30673806230E+04  0.30673806230E+04  0.00000000000E+00 0.  1.
         23    2    1    2    0    0 -0.15510584951E+04 -0.26915543133E+03  0.10995688730E+04  0.19224145424E+04  0.91645323084E+02 0.  0.
         11    1    3    3    0    0 -0.18187955752E+03 -0.99874955863E+01  0.15237453845E+03  0.23748246983E+03  0.00000000000E+00 0.  1.
        -11    1    3    3    0    0 -0.13691789375E+04 -0.25916793574E+03  0.94719433454E+03  0.16849320726E+04  0.00000000000E+00 0. -1.
         22    1    1    2    0    0  0.15510584951E+04  0.26915543133E+03 -0.24226872227E+04  0.28892283538E+04  0.00000000000E+00 0.  1.
<mgrwt>
<rscale>  0 0.46261501E+04</rscale>
<asrwt>0</asrwt>
<pdfrwt beam="1">  1        2 0.26834804E+00 0.46261501E+04</pdfrwt>
<pdfrwt beam="2">  1       -2 0.47190471E+00 0.46261501E+04</pdfrwt>
<totfact> 0.17367287E-02</totfact>
</mgrwt>
</event>
<event>
 6    1  0.1028026E-006  0.1759371E+04  0.7818608E-02  0.8728209E-01
          2   -1    0    0  501    0  0.00000000000E+00  0.00000000000E+00  0.68771115694E+03  0.68771115694E+03  0.00000000000E+00 0. -1.
         -2   -1    0    0    0  501 -0.00000000000E+00 -0.00000000000E+00 -0.11252496761E+04  0.11252496761E+04  0.00000000000E+00 0.  1.
         23    2    1    2    0    0  0.59391166492E+02  0.19569953497E+03 -0.10985312220E+04  0.11210526225E+04  0.90346653998E+02 0.  0.
         11    1    3    3    0    0  0.82932271273E+02  0.13941391080E+03 -0.82561967624E+03  0.84140468856E+03  0.00000000000E+00 0. -1.
        -11    1    3    3    0    0 -0.23541104782E+02  0.56285624176E+02 -0.27291154579E+03  0.27964793389E+03  0.00000000000E+00 0.  1.
         22    1    1    2    0    0 -0.59391166492E+02 -0.19569953497E+03  0.66099270286E+03  0.69190821059E+03  0.00000000000E+00 0. -1.
<mgrwt>
<rscale>  0 0.17593712E+04</rscale>
<asrwt>0</asrwt>
<pdfrwt beam="1">  1        2 0.10580172E+00 0.17593712E+04</pdfrwt>
<pdfrwt beam="2">  1       -2 0.17311533E+00 0.17593712E+04</pdfrwt>
<totfact> 0.80334626E+00</totfact>
</mgrwt>
</event>
<event>
 6    1  0.1028026E-006  0.2069339E+04  0.7818608E-02  0.8574871E-01
         -1   -1    0    0    0  501 -0.00000000000E+00  0.00000000000E+00  0.37196123195E+03  0.37196123195E+03  0.00000000000E+00 0.  1.
          1   -1    0    0  501    0  0.00000000000E+00 -0.00000000000E+00 -0.28780983696E+04  0.28780983696E+04  0.00000000000E+00 0. -1.
         23    2    1    2    0    0 -0.10282468371E+04 -0.55144663079E+02 -0.13746091730E+04  0.17201288754E+04  0.94659800776E+02 0.  0.
         11    1    3    3    0    0 -0.45589584409E+03 -0.63906505353E+01 -0.68106635045E+03  0.81959333501E+03  0.00000000000E+00 0. -1.
        -11    1    3    3    0    0 -0.57235099300E+03 -0.48754012544E+02 -0.69354282252E+03  0.90053554044E+03  0.00000000000E+00 0.  1.
         22    1    1    2    0    0  0.10282468371E+04  0.55144663079E+02 -0.11315279647E+04  0.15299307261E+04  0.00000000000E+00 0.  1.
<mgrwt>
<rscale>  0 0.20693390E+04</rscale>
<asrwt>0</asrwt>
<pdfrwt beam="1">  1        1 0.44278438E+00 0.20693390E+04</pdfrwt>
<pdfrwt beam="2">  1       -1 0.57224803E-01 0.20693390E+04</pdfrwt>
<totfact> 0.20914584E+00</totfact>
</mgrwt>
</event>
<event>
 6    1  0.1028026E-006  0.1032112E+04  0.7818608E-02  0.9274009E-01
          1   -1    0    0  501    0  0.00000000000E+00  0.00000000000E+00  0.21768919696E+03  0.21768919696E+03  0.00000000000E+00 0. -1.
         -1   -1    0    0    0  501 -0.00000000000E+00 -0.00000000000E+00 -0.12233676493E+04  0.12233676493E+04  0.00000000000E+00 0.  1.
         23    2    1    2    0    0  0.39340059521E+03 -0.29847422619E+03 -0.69591517415E+03  0.85812959475E+03  0.90761113681E+02 0.  0.
         11    1    3    3    0    0  0.94188248936E+02 -0.71773541051E+02 -0.23943100034E+03  0.26711434135E+03  0.00000000000E+00 0. -1.
        -11    1    3    3    0    0  0.29921234628E+03 -0.22670068514E+03 -0.45648417382E+03  0.59101525340E+03  0.00000000000E+00 0.  1.
         22    1    1    2    0    0 -0.39340059521E+03  0.29847422619E+03 -0.30976327815E+03  0.58292725147E+03  0.00000000000E+00 0.  1.
<mgrwt>
<rscale>  0 0.10321122E+04</rscale>
<asrwt>0</asrwt>
<pdfrwt beam="1">  1        1 0.33490645E-01 0.10321122E+04</pdfrwt>
<pdfrwt beam="2">  1       -1 0.18821041E+00 0.10321122E+04</pdfrwt>
<totfact> 0.24269779E+01</totfact>
</mgrwt>
</event>
<event>
 6    1  0.1028026E-006  0.3705219E+04  0.7818608E-02  0.8066806E-01
         -3   -1    0    0    0  501 -0.00000000000E+00  0.00000000000E+00  0.18661414461E+04  0.18661414461E+04  0.00000000000E+00 0.  1.
          3   -1    0    0  501    0  0.00000000000E+00 -0.00000000000E+00 -0.18391754239E+04  0.18391754239E+04  0.00000000000E+00 0. -1.
         23    2    1    2    0    0  0.78145422419E+03  0.16297129531E+04  0.41472287313E+03  0.18568065537E+04  0.95396552313E+02 0.  0.
         11    1    3    3    0    0  0.46782779406E+03  0.10073972820E+04  0.20920762195E+03  0.11302565893E+04  0.00000000000E+00 0.  1.
        -11    1    3    3    0    0  0.31362643012E+03  0.62231567113E+03  0.20551525118E+03  0.72654996434E+03  0.00000000000E+00 0. -1.
         22    1    1    2    0    0 -0.78145422419E+03 -0.16297129531E+04 -0.38775685093E+03  0.18485103163E+04  0.00000000000E+00 0. -1.
<mgrwt>
<rscale>  0 0.37052187E+04</rscale>
<asrwt>0</asrwt>
<pdfrwt beam="1">  1        3 0.28295007E+00 0.37052187E+04</pdfrwt>
<pdfrwt beam="2">  1       -3 0.28709868E+00 0.37052187E+04</pdfrwt>
<totfact> 0.44992482E-03</totfact>
</mgrwt>
</event>
<event>
 6    1  0.1028026E-006  0.2314673E+04  0.7818608E-02  0.8472158E-01
         -1   -1    0    0    0  501 -0.00000000000E+00  0.00000000000E+00  0.78692637215E+03  0.78692637215E+03  0.00000000000E+00 0.  1.
          1   -1    0    0  501    0  0.00000000000E+00 -0.00000000000E+00 -0.17021002674E+04  0.17021002674E+04  0.00000000000E+00 0. -1.
         23    2    1    2    0    0 -0.68801675097E+03 -0.20838638183E+03  0.51457290704E+03  0.88872421427E+03  0.90848877904E+02 0.  0.
         11    1    3    3    0    0 -0.33463506785E+02 -0.21291623595E+02  0.53141580288E+02  0.66311138409E+02  0.00000000000E+00 0. -1.
        -11    1    3    3    0    0 -0.65455324419E+03 -0.18709475823E+03  0.46143132675E+03  0.82241307586E+03  0.00000000000E+00 0.  1.
         22    1    1    2    0    0  0.68801675097E+03  0.20838638183E+03 -0.14297468023E+04  0.16003024253E+04  0.00000000000E+00 0. -1.
<mgrwt>
<rscale>  0 0.23146728E+04</rscale>
<asrwt>0</asrwt>
<pdfrwt beam="1">  1        1 0.26186158E+00 0.23146728E+04</pdfrwt>
<pdfrwt beam="2">  1       -1 0.12106560E+00 0.23146728E+04</pdfrwt>
<totfact> 0.25975517E+00</totfact>
</mgrwt>
</event>
<event>
 6    1  0.1028026E-006  0.1531742E+04  0.7818608E-02  0.8863615E-01
          3   -1    0    0  501    0  0.00000000000E+00  0.00000000000E+00  0.62996806465E+03  0.62996806465E+03  0.00000000000E+00 0. -1.
         -3   -1    0    0    0  501 -0.00000000000E+00 -0.00000000000E+00 -0.93109250533E+03  0.93109250533E+03  0.00000000000E+00 0.  1.
         23    2    1    2    0    0  0.38341409961E+03 -0.42528169696E+02  0.52000375250E+03  0.65383043013E+03  0.90968740497E+02 0.  0.
         11    1    3    3    0    0  0.27765809157E+03  0.27061601937E+01  0.40608727567E+03  0.49194330423E+03  0.00000000000E+00 0. -1.
        -11    1    3    3    0    0  0.10575600804E+03 -0.45234329890E+02  0.11391647683E+03  0.16188712590E+03  0.00000000000E+00 0.  1.
         22    1    1    2    0    0 -0.38341409961E+03  0.42528169696E+02 -0.82112819319E+03  0.90723013985E+03  0.00000000000E+00 0.  1.
<mgrwt>
<rscale>  0 0.15317422E+04</rscale>
<asrwt>0</asrwt>
<pdfrwt beam="1">  1        3 0.96918163E-01 0.15317422E+04</pdfrwt>
<pdfrwt beam="2">  1       -3 0.14324500E+00 0.15317422E+04</pdfrwt>
<totfact> 0.86284012E-01</totfact>
</mgrwt>
</event>
<event>
 6    1  0.1312423E-006  0.3143031E+04  0.7818608E-02  0.8204027E-01
         -1   -1    0    0    0  501 -0.00000000000E+00  0.00000000000E+00  0.17122040523E+04  0.17122040523E+04  0.00000000000E+00 0.  1.
          1   -1    0    0  501    0  0.00000000000E+00 -0.00000000000E+00 -0.14423868490E+04  0.14423868490E+04  0.00000000000E+00 0. -1.
         23    2    1    2    0    0 -0.11173852394E+04  0.75693413069E+03 -0.67045113734E+03  0.15097189903E+04  0.90816576598E+02 0.  0.
         13    1    3    3    0    0 -0.59317107302E+03  0.40250806031E+03 -0.30543192856E+03  0.77920043857E+03  0.00000000000E+00 0.  1.
        -13    1    3    3    0    0 -0.52421416638E+03  0.35442607037E+03 -0.36501920878E+03  0.73051855170E+03  0.00000000000E+00 0. -1.
         22    1    1    2    0    0  0.11173852394E+04 -0.75693413069E+03  0.94026834058E+03  0.16448719110E+04  0.00000000000E+00 0.  1.
<mgrwt>
<rscale>  0 0.31430308E+04</rscale>
<asrwt>0</asrwt>
<pdfrwt beam="1">  1        1 0.22190567E+00 0.31430308E+04</pdfrwt>
<pdfrwt beam="2">  1       -1 0.26341601E+00 0.31430308E+04</pdfrwt>
<totfact> 0.34388870E-01</totfact>
</mgrwt>
</event>
<event>
 6    1  0.1028026E-006  0.1141660E+04  0.7818608E-02  0.9165513E-01
          2   -1    0    0  501    0  0.00000000000E+00  0.00000000000E+00  0.55692169301E+03  0.55692169301E+03  0.00000000000E+00 0. -1.
         -2   -1    0    0    0  501 -0.00000000000E+00 -0.00000000000E+00 -0.58508522038E+03  0.58508522038E+03  0.00000000000E+00 0.  1.
         23    2    1    2    0    0  0.20529587083E+03  0.51626198853E+03  0.10014175262E+03  0.57180073992E+03  0.90856371116E+02 0.  0.
         13    1    3    3    0    0  0.13703676414E+03  0.22231247380E+03  0.43164462356E+02  0.26469809509E+03  0.00000000000E+00 0. -1.
        -13    1    3    3    0    0  0.68259106695E+02  0.29394951473E+03  0.56977290261E+02  0.30710264483E+03  0.00000000000E+00 0.  1.
         22    1    1    2    0    0 -0.20529587083E+03 -0.51626198853E+03 -0.12830527998E+03  0.57020617347E+03  0.00000000000E+00 0.  1.
<mgrwt>
<rscale>  0 0.11416596E+04</rscale>
<asrwt>0</asrwt>
<pdfrwt beam="1">  1        2 0.85680260E-01 0.11416596E+04</pdfrwt>
<pdfrwt beam="2">  1       -2 0.90013111E-01 0.11416596E+04</pdfrwt>
<totfact> 0.56776147E+01</totfact>
</mgrwt>
</event>
<event>
 6    1  0.1028026E-006  0.3734984E+04  0.7818608E-02  0.8060253E-01
         -2   -1    0    0    0  501 -0.00000000000E+00  0.00000000000E+00  0.94576892336E+03  0.94576892336E+03  0.00000000000E+00 0.  1.
          2   -1    0    0  501    0  0.00000000000E+00 -0.00000000000E+00 -0.36875041540E+04  0.36875041540E+04  0.00000000000E+00 0. -1.
         23    2    1    2    0    0 -0.58884292990E+03  0.17632823618E+04 -0.11661674965E+04  0.21964073920E+04  0.91422746120E+02 0.  0.
         13    1    3    3    0    0 -0.28559756198E+03  0.88414385149E+03 -0.63566810076E+03  0.11257665175E+04  0.00000000000E+00 0. -1.
        -13    1    3    3    0    0 -0.30324536792E+03  0.87913851028E+03 -0.53049939573E+03  0.10706408746E+04  0.00000000000E+00 0.  1.
         22    1    1    2    0    0  0.58884292990E+03 -0.17632823618E+04 -0.15755677342E+04  0.24368656854E+04  0.00000000000E+00 0. -1.
<mgrwt>
<rscale>  0 0.37349842E+04</rscale>
<asrwt>0</asrwt>
<pdfrwt beam="1">  1        2 0.56730833E+00 0.37349842E+04</pdfrwt>
<pdfrwt beam="2">  1       -2 0.14550291E+00 0.37349842E+04</pdfrwt>
<totfact> 0.15570730E-01</totfact>
</mgrwt>
</event>
<event>
 6    1  0.1028026E-006  0.1642464E+04  0.7818608E-02  0.8794877E-01
         -1   -1    0    0    0  501 -0.00000000000E+00  0.00000000000E+00  0.57086085429E+03  0.57086085429E+03  0.00000000000E+00 0.  1.
          1   -1    0    0  501    0  0.00000000000E+00 -0.00000000000E+00 -0.11814129429E+04  0.11814129429E+04  0.00000000000E+00 0. -1.
         23    2    1    2    0    0  0.73487418688E+03 -0.29433706062E+03 -0.52894458823E+03  0.95645085212E+03  0.91331699359E+02 0.  0.
         13    1    3    3    0    0  0.77812272584E+02 -0.62355813994E+02 -0.56964747510E+02  0.11483892965E+03  0.00000000000E+00 0. -1.
        -13    1    3    3    0    0  0.65706191430E+03 -0.23198124663E+03 -0.47197984072E+03  0.84161192248E+03  0.00000000000E+00 0.  1.
         22    1    1    2    0    0 -0.73487418688E+03  0.29433706062E+03 -0.81607500403E+02  0.79582294508E+03  0.00000000000E+00 0.  1.
<mgrwt>
<rscale>  0 0.16424645E+04</rscale>
<asrwt>0</asrwt>
<pdfrwt beam="1">  1        1 0.18175584E+00 0.16424645E+04</pdfrwt>
<pdfrwt beam="2">  1       -1 0.87824748E-01 0.16424645E+04</pdfrwt>
<totfact> 0.13442514E+01</totfact>
</mgrwt>
</event>
<event>
 6    1  0.1028026E-006  0.1432408E+04  0.7818608E-02  0.8930689E-01
         -1   -1    0    0    0  501 -0.00000000000E+00  0.00000000000E+00  0.41468442952E+03  0.41468442952E+03  0.00000000000E+00 0.  1.
          1   -1    0    0  501    0  0.00000000000E+00 -0.00000000000E+00 -0.12369597747E+04  0.12369597747E+04  0.00000000000E+00 0. -1.
         23    2    1    2    0    0 -0.22854348690E+03 -0.59576458467E+03 -0.45251124487E+02  0.64619196503E+03  0.91371908450E+02 0.  0.
         11    1    3    3    0    0 -0.63652407191E+02 -0.82456123114E+02 -0.22505442178E+02  0.10656986491E+03  0.00000000000E+00 0.  1.
        -11    1    3    3    0    0 -0.16489107971E+03 -0.51330846156E+03 -0.22745682309E+02  0.53962210012E+03  0.00000000000E+00 0. -1.
         22    1    1    2    0    0  0.22854348690E+03  0.59576458467E+03 -0.77702422074E+03  0.10054522392E+04  0.00000000000E+00 0. -1.
<mgrwt>
<rscale>  0 0.14324077E+04</rscale>
<asrwt>0</asrwt>
<pdfrwt beam="1">  1        1 0.19030150E+00 0.14324077E+04</pdfrwt>
<pdfrwt beam="2">  1       -1 0.63797605E-01 0.14324077E+04</pdfrwt>
<totfact> 0.24337874E+01</totfact>
</mgrwt>
</event>
<event>
 6    1  0.1028026E-006  0.7354400E+03  0.7818608E-02  0.9658474E-01
         -2   -1    0    0    0  501 -0.00000000000E+00  0.00000000000E+00  0.12789315219E+03  0.12789315219E+03  0.00000000000E+00 0.  1.
          2   -1    0    0  501    0  0.00000000000E+00 -0.00000000000E+00 -0.10572732661E+04  0.10572732661E+04  0.00000000000E+00 0. -1.
         23    2    1    2    0    0  0.34996762385E+03  0.57209731053E+02 -0.35019847516E+03  0.50604812099E+03  0.87723643810E+02 0.  0.
         13    1    3    3    0    0  0.23368607172E+02  0.24967589610E+02 -0.54253167683E+02  0.64131727996E+02  0.00000000000E+00 0. -1.
        -13    1    3    3    0    0  0.32659901667E+03  0.32242141442E+02 -0.29594530748E+03  0.44191639299E+03  0.00000000000E+00 0.  1.
         22    1    1    2    0    0 -0.34996762385E+03 -0.57209731053E+02 -0.57918163872E+03  0.67911829728E+03  0.00000000000E+00 0.  1.
<mgrwt>
<rscale>  0 0.73544003E+03</rscale>
<asrwt>0</asrwt>
<pdfrwt beam="1">  1        2 0.16265743E+00 0.73544003E+03</pdfrwt>
<pdfrwt beam="2">  1       -2 0.19675869E-01 0.73544003E+03</pdfrwt>
<totfact> 0.51211141E+02</totfact>
</mgrwt>
</event>
<event>
 6    1  0.1028026E-006  0.2620797E+04  0.7818608E-02  0.8361171E-01
          1   -1    0    0  501    0  0.00000000000E+00  0.00000000000E+00  0.22709272761E+04  0.22709272761E+04  0.00000000000E+00 0. -1.
         -1   -1    0    0    0  501 -0.00000000000E+00 -0.00000000000E+00 -0.75614213445E+03  0.75614213445E+03  0.00000000000E+00 0.  1.
         23    2    1    2    0    0 -0.36222868778E+03 -0.48727975131E+03 -0.58086348820E+03  0.84523661263E+03  0.91495142557E+02 0.  0.
         11    1    3    3    0    0 -0.19591363067E+03 -0.30766025837E+03 -0.29674427814E+03  0.47020649918E+03  0.00000000000E+00 0.  1.
        -11    1    3    3    0    0 -0.16631505712E+03 -0.17961949294E+03 -0.28411921007E+03  0.37503011345E+03  0.00000000000E+00 0. -1.
         22    1    1    2    0    0  0.36222868778E+03  0.48727975131E+03  0.20956486298E+04  0.21818327979E+04  0.00000000000E+00 0. -1.
<mgrwt>
<rscale>  0 0.26207967E+04</rscale>
<asrwt>0</asrwt>
<pdfrwt beam="1">  1        1 0.34937342E+00 0.26207967E+04</pdfrwt>
<pdfrwt beam="2">  1       -1 0.11632956E+00 0.26207967E+04</pdfrwt>
<totfact> 0.11433734E+00</totfact>
</mgrwt>
</event>
<event>
 6    1  0.1028026E-006  0.3302356E+04  0.7818608E-02  0.8162296E-01
          2   -1    0    0  501    0  0.00000000000E+00  0.00000000000E+00  0.28511518429E+04  0.28511518429E+04  0.00000000000E+00 0. -1.
         -2   -1    0    0    0  501 -0.00000000000E+00 -0.00000000000E+00 -0.95624121333E+03  0.95624121333E+03  0.00000000000E+00 0.  1.
         23    2    1    2    0    0  0.26890750079E+03  0.78990897021E+03 -0.69285482643E+03  0.10884231262E+04  0.91376506369E+02 0.  0.
         13    1    3    3    0    0  0.78708136153E+02  0.27472440018E+03 -0.18507742800E+03  0.34047337797E+03  0.00000000000E+00 0. -1.
        -13    1    3    3    0    0  0.19019936463E+03  0.51518457003E+03 -0.50777739843E+03  0.74794974822E+03  0.00000000000E+00 0.  1.
         22    1    1    2    0    0 -0.26890750079E+03 -0.78990897021E+03  0.25877654560E+04  0.27189699301E+04  0.00000000000E+00 0. -1.
<mgrwt>
<rscale>  0 0.33023561E+04</rscale>
<asrwt>0</asrwt>
<pdfrwt beam="1">  1        2 0.43863874E+00 0.33023561E+04</pdfrwt>
<pdfrwt beam="2">  1       -2 0.14711403E+00 0.33023561E+04</pdfrwt>
<totfact> 0.56666709E-01</totfact>
</mgrwt>
</event>
<event>
 6    1  0.1028026E-006  0.2748566E+04  0.7818608E-02  0.8319417E-01
          1   -1    0    0  501    0  0.00000000000E+00  0.00000000000E+00  0.14355923700E+04  0.14355923700E+04  0.00000000000E+00 0. -1.
         -1   -1    0    0    0  501 -0.00000000000E+00 -0.00000000000E+00 -0.13155921643E+04  0.13155921643E+04  0.00000000000E+00 0.  1.
         23    2    1    2    0    0  0.90588730299E+03  0.52023915059E+02 -0.97095138576E+03  0.13322012122E+04  0.93140661574E+02 0.  0.
         11    1    3    3    0    0  0.63233504829E+03  0.57366548696E+02 -0.62265431491E+03  0.88929012705E+03  0.00000000000E+00 0. -1.
        -11    1    3    3    0    0  0.27355225470E+03 -0.53426336370E+01 -0.34829707085E+03  0.44291108515E+03  0.00000000000E+00 0.  1.
         22    1    1    2    0    0 -0.90588730299E+03 -0.52023915059E+02  0.10909515915E+04  0.14189833221E+04  0.00000000000E+00 0. -1.
<mgrwt>
<rscale>  0 0.27485662E+04</rscale>
<asrwt>0</asrwt>
<pdfrwt beam="1">  1        1 0.22086036E+00 0.27485662E+04</pdfrwt>
<pdfrwt beam="2">  1       -1 0.20239880E+00 0.27485662E+04</pdfrwt>
<totfact> 0.91388160E-01</totfact>
</mgrwt>
</event>
<event>
 6    1  0.1028026E-006  0.3777611E+04  0.7818608E-02  0.8050977E-01
         -2   -1    0    0    0  501 -0.00000000000E+00  0.00000000000E+00  0.48470214147E+04  0.48470214147E+04  0.00000000000E+00 0.  1.
          2   -1    0    0  501    0  0.00000000000E+00 -0.00000000000E+00 -0.73603666466E+03  0.73603666466E+03  0.00000000000E+00 0. -1.
         23    2    1    2    0    0 -0.15361842755E+04 -0.97125766301E+03  0.28100157294E+04  0.33479464560E+04  0.96713474793E+02 0.  0.
         11    1    3    3    0    0 -0.83383026384E+03 -0.47894845337E+03  0.14376271816E+04  0.17295769550E+04  0.00000000000E+00 0.  1.
        -11    1    3    3    0    0 -0.70235401170E+03 -0.49230920964E+03  0.13723885478E+04  0.16183695010E+04  0.00000000000E+00 0. -1.
         22    1    1    2    0    0  0.15361842755E+04  0.97125766301E+03  0.13009690207E+04  0.22351116234E+04  0.00000000000E+00 0. -1.
<mgrwt>
<rscale>  0 0.37776106E+04</rscale>
<asrwt>0</asrwt>
<pdfrwt beam="1">  1        2 0.11323641E+00 0.37776106E+04</pdfrwt>
<pdfrwt beam="2">  1       -2 0.74569558E+00 0.37776106E+04</pdfrwt>
<totfact> 0.46220113E-03</totfact>
</mgrwt>
</event>
<event>
 6    1  0.1028026E-006  0.2383561E+04  0.7818608E-02  0.8445684E-01
          1   -1    0    0  501    0  0.00000000000E+00  0.00000000000E+00  0.21248461470E+04  0.21248461470E+04  0.00000000000E+00 0. -1.
         -1   -1    0    0    0  501 -0.00000000000E+00 -0.00000000000E+00 -0.66844428980E+03  0.66844428980E+03  0.00000000000E+00 0.  1.
         23    2    1    2    0    0  0.29121121818E+03 -0.87515643094E+03 -0.15218845038E+03  0.93903437848E+03  0.89002737778E+02 0.  0.
         11    1    3    3    0    0  0.69531378097E+02 -0.31033534721E+03 -0.24445820973E+02  0.31896745669E+03  0.00000000000E+00 0. -1.
        -11    1    3    3    0    0  0.22167984008E+03 -0.56482108373E+03 -0.12774262941E+03  0.62006692178E+03  0.00000000000E+00 0.  1.
         22    1    1    2    0    0 -0.29121121818E+03  0.87515643094E+03  0.16085903076E+04  0.18542560583E+04  0.00000000000E+00 0. -1.
<mgrwt>
<rscale>  0 0.23835614E+04</rscale>
<asrwt>0</asrwt>
<pdfrwt beam="1">  1        1 0.32689940E+00 0.23835614E+04</pdfrwt>
<pdfrwt beam="2">  1       -1 0.10283758E+00 0.23835614E+04</pdfrwt>
<totfact> 0.19650942E+00</totfact>
</mgrwt>
</event>
<event>
 6    1  0.1028026E-006  0.3632464E+04  0.7818608E-02  0.8083096E-01
          2   -1    0    0  501    0  0.00000000000E+00  0.00000000000E+00  0.17866502795E+04  0.17866502795E+04  0.00000000000E+00 0. -1.
         -2   -1    0    0    0  501 -0.00000000000E+00 -0.00000000000E+00 -0.18463034987E+04  0.18463034987E+04  0.00000000000E+00 0.  1.
         23    2    1    2    0    0 -0.73804284718E+03  0.15071608028E+04 -0.72151965441E+03  0.18289836821E+04  0.91377064327E+02 0.  0.
         13    1    3    3    0    0 -0.37300676204E+03  0.76582280900E+03 -0.31654801045E+03  0.90874708376E+03  0.00000000000E+00 0.  1.
        -13    1    3    3    0    0 -0.36503608514E+03  0.74133799376E+03 -0.40497164396E+03  0.92023659830E+03  0.00000000000E+00 0. -1.
         22    1    1    2    0    0  0.73804284718E+03 -0.15071608028E+04  0.66186643521E+03  0.18039700961E+04  0.00000000000E+00 0. -1.
<mgrwt>
<rscale>  0 0.36324640E+04</rscale>
<asrwt>0</asrwt>
<pdfrwt beam="1">  1        2 0.27486927E+00 0.36324640E+04</pdfrwt>
<pdfrwt beam="2">  1       -2 0.28404669E+00 0.36324640E+04</pdfrwt>
<totfact> 0.28386379E-01</totfact>
</mgrwt>
</event>
<event>
 6    1  0.1028026E-006  0.1446136E+04  0.7818608E-02  0.8921084E-01
          1   -1    0    0  501    0  0.00000000000E+00  0.00000000000E+00  0.18567377918E+04  0.18567377918E+04  0.00000000000E+00 0. -1.
         -1   -1    0    0    0  501 -0.00000000000E+00 -0.00000000000E+00 -0.28158377858E+03  0.28158377858E+03  0.00000000000E+00 0.  1.
         23    2    1    2    0    0 -0.18653112655E+01  0.42885160435E+03 -0.64828206456E+02  0.44319359326E+03  0.91108105111E+02 0.  0.
         13    1    3    3    0    0 -0.24949516821E+02  0.15655968829E+03  0.12973951800E+02  0.15906519987E+03  0.00000000000E+00 0. -1.
        -13    1    3    3    0    0  0.23084205556E+02  0.27229191607E+03 -0.77802158256E+02  0.28412839339E+03  0.00000000000E+00 0.  1.
         22    1    1    2    0    0  0.18653112655E+01 -0.42885160435E+03  0.16399822197E+04  0.16951279771E+04  0.00000000000E+00 0. -1.
<mgrwt>
<rscale>  0 0.14461359E+04</rscale>
<asrwt>0</asrwt>
<pdfrwt beam="1">  1        1 0.28565196E+00 0.14461359E+04</pdfrwt>
<pdfrwt beam="2">  1       -1 0.43320583E-01 0.14461359E+04</pdfrwt>
<totfact> 0.19048141E+01</totfact>
</mgrwt>
</event>
<event>
 6    1  0.1028026E-006  0.2813796E+04  0.7818608E-02  0.8298998E-01
         -2   -1    0    0    0  501 -0.00000000000E+00  0.00000000000E+00  0.10931207313E+04  0.10931207313E+04  0.00000000000E+00 0.  1.
          2   -1    0    0  501    0  0.00000000000E+00 -0.00000000000E+00 -0.18107439671E+04  0.18107439671E+04  0.00000000000E+00 0. -1.
         23    2    1    2    0    0  0.13555425694E+04  0.25624353092E+03 -0.81903725180E+02  0.13848861928E+04  0.89694717047E+02 0.  0.
         11    1    3    3    0    0  0.41114625497E+03  0.47568703776E+02 -0.53100556198E+02  0.41728131234E+03  0.00000000000E+00 0. -1.
        -11    1    3    3    0    0  0.94439631439E+03  0.20867482715E+03 -0.28803168982E+02  0.96760488044E+03  0.00000000000E+00 0.  1.
         22    1    1    2    0    0 -0.13555425694E+04 -0.25624353092E+03 -0.63571951053E+03  0.15189785056E+04  0.00000000000E+00 0.  1.
<mgrwt>
<rscale>  0 0.28137958E+04</rscale>
<asrwt>0</asrwt>
<pdfrwt beam="1">  1        2 0.27857599E+00 0.28137958E+04</pdfrwt>
<pdfrwt beam="2">  1       -2 0.16817242E+00 0.28137958E+04</pdfrwt>
<totfact> 0.16250308E+00</totfact>
</mgrwt>
</event>
<event>
 6    1  0.1028026E-006  0.2055405E+04  0.7818608E-02  0.8581146E-01
         -2   -1    0    0    0  501 -0.00000000000E+00  0.00000000000E+00  0.41247290512E+03  0.41247290512E+03  0.00000000000E+00 0.  1.
          2   -1    0    0  501    0  0.00000000000E+00 -0.00000000000E+00 -0.25605855656E+04  0.25605855656E+04  0.00000000000E+00 0. -1.
         23    2    1    2    0    0  0.95904411870E+03  0.13678648571E+03 -0.58872312398E+03  0.11372556788E+04  0.90991197376E+02 0.  0.
         11    1    3    3    0    0  0.66744929817E+03  0.12313324794E+03 -0.37456498083E+03  0.77520918934E+03  0.00000000000E+00 0.  1.
        -11    1    3    3    0    0  0.29159482053E+03  0.13653237769E+02 -0.21415814315E+03  0.36204648947E+03  0.00000000000E+00 0. -1.
         22    1    1    2    0    0 -0.95904411870E+03 -0.13678648571E+03 -0.15593895365E+04  0.18358027920E+04  0.00000000000E+00 0. -1.
<mgrwt>
<rscale>  0 0.20554047E+04</rscale>
<asrwt>0</asrwt>
<pdfrwt beam="1">  1        2 0.39393624E+00 0.20554047E+04</pdfrwt>
<pdfrwt beam="2">  1       -2 0.63457370E-01 0.20554047E+04</pdfrwt>
<totfact> 0.68273057E+00</totfact>
</mgrwt>
</event>
<event>
 6    1  0.1028026E-006  0.3235555E+04  0.7818608E-02  0.8179490E-01
          1   -1    0    0  501    0  0.00000000000E+00  0.00000000000E+00  0.24274691258E+04  0.24274691258E+04  0.00000000000E+00 0. -1.
         -1   -1    0    0    0  501 -0.00000000000E+00 -0.00000000000E+00 -0.10781619460E+04  0.10781619460E+04  0.00000000000E+00 0.  1.
         23    2    1    2    0    0  0.15105209025E+04  0.12128669414E+03  0.65064541980E+02  0.15192617678E+04  0.86827792273E+02 0.  0.
         13    1    3    3    0    0  0.78125004306E+03  0.10624638072E+03  0.33181761890E+02  0.78913937458E+03  0.00000000000E+00 0.  1.
        -13    1    3    3    0    0  0.72927085941E+03  0.15040313414E+02  0.31882780090E+02  0.73012239322E+03  0.00000000000E+00 0. -1.
         22    1    1    2    0    0 -0.15105209025E+04 -0.12128669414E+03  0.12842426378E+04  0.19863693040E+04  0.00000000000E+00 0. -1.
<mgrwt>
<rscale>  0 0.32355555E+04</rscale>
<asrwt>0</asrwt>
<pdfrwt beam="1">  1        1 0.37345679E+00 0.32355555E+04</pdfrwt>
<pdfrwt beam="2">  1       -1 0.16587107E+00 0.32355555E+04</pdfrwt>
<totfact> 0.33482911E-01</totfact>
</mgrwt>
</event>
<event>
 6    1  0.1028026E-006  0.2248752E+04  0.7818608E-02  0.8498406E-01
          1   -1    0    0  501    0  0.00000000000E+00  0.00000000000E+00  0.10747457425E+04  0.10747457425E+04  0.00000000000E+00 0. -1.
         -1   -1    0    0    0  501 -0.00000000000E+00 -0.00000000000E+00 -0.11762977211E+04  0.11762977211E+04  0.00000000000E+00 0.  1.
         23    2    1    2    0    0  0.24394563733E+03  0.25090095355E+03 -0.11185514906E+04  0.11755209069E+04  0.90725977831E+02 0.  0.
         13    1    3    3    0    0  0.20133114314E+03  0.19540611705E+03 -0.99201871887E+03  0.10309310929E+04  0.00000000000E+00 0.  1.
        -13    1    3    3    0    0  0.42614494191E+02  0.55494836494E+02 -0.12653277174E+03  0.14458981401E+03  0.00000000000E+00 0. -1.
         22    1    1    2    0    0 -0.24394563733E+03 -0.25090095355E+03  0.10169995120E+04  0.10755225566E+04  0.00000000000E+00 0. -1.
<mgrwt>
<rscale>  0 0.22487516E+04</rscale>
<asrwt>0</asrwt>
<pdfrwt beam="1">  1        1 0.16534550E+00 0.22487516E+04</pdfrwt>
<pdfrwt beam="2">  1       -1 0.18096888E+00 0.22487516E+04</pdfrwt>
<totfact> 0.24636638E+00</totfact>
</mgrwt>
</event>
<event>
 6    1  0.1028026E-006  0.6756257E+03  0.7818608E-02  0.9759848E-01
          1   -1    0    0  501    0  0.00000000000E+00  0.00000000000E+00  0.78298075016E+03  0.78298075016E+03  0.00000000000E+00 0. -1.
         -1   -1    0    0    0  501 -0.00000000000E+00 -0.00000000000E+00 -0.14574753123E+03  0.14574753123E+03  0.00000000000E+00 0.  1.
         23    2    1    2    0    0 -0.27860635638E+03  0.16016707552E+03  0.21126275212E+03  0.39513121198E+03  0.90673757782E+02 0.  0.
         11    1    3    3    0    0 -0.21282391839E+03  0.85401181585E+02  0.17746221020E+03  0.28996589128E+03  0.00000000000E+00 0. -1.
        -11    1    3    3    0    0 -0.65782437985E+02  0.74765893936E+02  0.33800541917E+02  0.10516532070E+03  0.00000000000E+00 0.  1.
         22    1    1    2    0    0  0.27860635638E+03 -0.16016707552E+03  0.42597046681E+03  0.53359706941E+03  0.00000000000E+00 0. -1.
<mgrwt>
<rscale>  0 0.67562567E+03</rscale>
<asrwt>0</asrwt>
<pdfrwt beam="1">  1        1 0.12045857E+00 0.67562567E+03</pdfrwt>
<pdfrwt beam="2">  1       -1 0.22422698E-01 0.67562567E+03</pdfrwt>
<totfact> 0.39027595E+02</totfact>
</mgrwt>
</event>
<event>
 6    1  0.1028026E-006  0.6336390E+04  0.7818608E-02  0.7650037E-01
          2   -1    0    0  501    0  0.00000000000E+00  0.00000000000E+00  0.33624763423E+04  0.33624763423E+04  0.00000000000E+00 0. -1.
         -2   -1    0    0    0  501 -0.00000000000E+00 -0.00000000000E+00 -0.29851387079E+04  0.29851387079E+04  0.00000000000E+00 0.  1.
         23    2    1    2    0    0  0.20787970147E+04  0.23899098443E+04  0.20195937523E+03  0.31752620394E+04  0.91844092183E+02 0.  0.
         11    1    3    3    0    0  0.61399518271E+03  0.74522929994E+03  0.95122386555E+02  0.97026030647E+03  0.00000000000E+00 0. -1.
        -11    1    3    3    0    0  0.14648018320E+04  0.16446805443E+04  0.10683698868E+03  0.22050017329E+04  0.00000000000E+00 0.  1.
         22    1    1    2    0    0 -0.20787970147E+04 -0.23899098443E+04  0.17537825914E+03  0.31723530109E+04  0.00000000000E+00 0. -1.
<mgrwt>
<rscale>  0 0.63363896E+04</rscale>
<asrwt>0</asrwt>
<pdfrwt beam="1">  1        2 0.51730405E+00 0.63363896E+04</pdfrwt>
<pdfrwt beam="2">  1       -2 0.45925211E+00 0.63363896E+04</pdfrwt>
<totfact> 0.20098704E-03</totfact>
</mgrwt>
</event>
<event>
 6    1  0.1028026E-006  0.2095806E+04  0.7818608E-02  0.8563093E-01
          2   -1    0    0  501    0  0.00000000000E+00  0.00000000000E+00  0.31450118834E+04  0.31450118834E+04  0.00000000000E+00 0. -1.
         -2   -1    0    0    0  501 -0.00000000000E+00 -0.00000000000E+00 -0.34915620170E+03  0.34915620170E+03  0.00000000000E+00 0.  1.
         23    2    1    2    0    0 -0.88712289077E+03 -0.29467122011E+03  0.21826097591E+04  0.23761838666E+04  0.92985246359E+02 0.  0.
         11    1    3    3    0    0 -0.36524796054E+03 -0.12626705089E+03  0.10193520215E+04  0.10901504412E+04  0.00000000000E+00 0. -1.
        -11    1    3    3    0    0 -0.52187493023E+03 -0.16840416922E+03  0.11632577376E+04  0.12860334253E+04  0.00000000000E+00 0.  1.
         22    1    1    2    0    0  0.88712289077E+03  0.29467122011E+03  0.61324592262E+03  0.11179842185E+04  0.00000000000E+00 0.  1.
<mgrwt>
<rscale>  0 0.20958057E+04</rscale>
<asrwt>0</asrwt>
<pdfrwt beam="1">  1        2 0.48384796E+00 0.20958057E+04</pdfrwt>
<pdfrwt beam="2">  1       -2 0.53716341E-01 0.20958057E+04</pdfrwt>
<totfact> 0.42484106E+00</totfact>
</mgrwt>
</event>
<event>
 6    1  0.1028026E-006  0.3210350E+04  0.7818608E-02  0.8186089E-01
         -2   -1    0    0    0  501 -0.00000000000E+00  0.00000000000E+00  0.18994746573E+04  0.18994746573E+04  0.00000000000E+00 0.  1.
          2   -1    0    0  501    0  0.00000000000E+00 -0.00000000000E+00 -0.13564732481E+04  0.13564732481E+04  0.00000000000E+00 0. -1.
         23    2    1    2    0    0  0.50733368809E+03 -0.10991740781E+04  0.13386335281E+04  0.18072928073E+04  0.93789358258E+02 0.  0.
         11    1    3    3    0    0  0.26224042753E+03 -0.45924950369E+03  0.59635492072E+03  0.79706921903E+03  0.00000000000E+00 0. -1.
        -11    1    3    3    0    0  0.24509326057E+03 -0.63992457439E+03  0.74227860734E+03  0.10102235882E+04  0.00000000000E+00 0.  1.
         22    1    1    2    0    0 -0.50733368809E+03  0.10991740781E+04 -0.79563211887E+03  0.14486550982E+04  0.00000000000E+00 0. -1.
<mgrwt>
<rscale>  0 0.32103499E+04</rscale>
<asrwt>0</asrwt>
<pdfrwt beam="1">  1        2 0.20868819E+00 0.32103499E+04</pdfrwt>
<pdfrwt beam="2">  1       -2 0.29222687E+00 0.32103499E+04</pdfrwt>
<totfact> 0.45731120E-01</totfact>
</mgrwt>
</event>
<event>
 6    1  0.1028026E-006  0.9415197E+04  0.7818608E-02  0.7369411E-01
          2   -1    0    0  501    0  0.00000000000E+00  0.00000000000E+00  0.49066081338E+04  0.49066081338E+04  0.00000000000E+00 0. -1.
         -2   -1    0    0    0  501 -0.00000000000E+00 -0.00000000000E+00 -0.45166605194E+04  0.45166605194E+04  0.00000000000E+00 0.  1.
         23    2    1    2    0    0  0.11918577351E+04 -0.33094266392E+04 -0.29356820727E+04  0.45825411916E+04  0.92870875973E+02 0.  0.
         13    1    3    3    0    0  0.58554796726E+03 -0.15926302436E+04 -0.14748200924E+04  0.22482063562E+04  0.00000000000E+00 0.  1.
        -13    1    3    3    0    0  0.60630976789E+03 -0.17167963956E+04 -0.14608619803E+04  0.23343348354E+04  0.00000000000E+00 0. -1.
         22    1    1    2    0    0 -0.11918577351E+04  0.33094266392E+04  0.33256296872E+04  0.48407274616E+04  0.00000000000E+00 0. -1.
<mgrwt>
<rscale>  0 0.94151969E+04</rscale>
<asrwt>0</asrwt>
<pdfrwt beam="1">  1        2 0.75486279E+00 0.94151969E+04</pdfrwt>
<pdfrwt beam="2">  1       -2 0.69487085E+00 0.94151969E+04</pdfrwt>
<totfact> 0.56229756E-06</totfact>
</mgrwt>
</event>
<event>
 6    1  0.1299166E-006  0.2085919E+04  0.7818608E-02  0.8567472E-01
          1   -1    0    0  501    0  0.00000000000E+00  0.00000000000E+00  0.19537544330E+04  0.19537544330E+04  0.00000000000E+00 0. -1.
         -1   -1    0    0    0  501 -0.00000000000E+00 -0.00000000000E+00 -0.55675575942E+03  0.55675575942E+03  0.00000000000E+00 0.  1.
         23    2    1    2    0    0  0.68822111789E+03  0.28035348306E+03  0.15777843737E+04  0.17457031239E+04  0.76351059226E+02 0.  0.
         13    1    3    3    0    0  0.47976406397E+03  0.21322566582E+03  0.10390596311E+04  0.11641665081E+04  0.00000000000E+00 0. -1.
        -13    1    3    3    0    0  0.20845705392E+03  0.67127817234E+02  0.53872474265E+03  0.58153661581E+03  0.00000000000E+00 0.  1.
         22    1    1    2    0    0 -0.68822111789E+03 -0.28035348306E+03 -0.18078570020E+03  0.76480706846E+03  0.00000000000E+00 0.  1.
<mgrwt>
<rscale>  0 0.20859185E+04</rscale>
<asrwt>0</asrwt>
<pdfrwt beam="1">  1        1 0.30057760E+00 0.20859185E+04</pdfrwt>
<pdfrwt beam="2">  1       -1 0.85654733E-01 0.20859185E+04</pdfrwt>
<totfact> 0.39710191E+00</totfact>
</mgrwt>
</event>
<event>
 6    1  0.1028026E-006  0.2218918E+04  0.7818608E-02  0.8510595E-01
         -2   -1    0    0    0  501 -0.00000000000E+00  0.00000000000E+00  0.74344971299E+03  0.74344971299E+03  0.00000000000E+00 0.  1.
          2   -1    0    0  501    0  0.00000000000E+00 -0.00000000000E+00 -0.16556593247E+04  0.16556593247E+04  0.00000000000E+00 0. -1.
         23    2    1    2    0    0 -0.25720183563E+03 -0.41276007656E+03 -0.15328798618E+04  0.16105944694E+04  0.88148789919E+02 0.  0.
         11    1    3    3    0    0 -0.95812694126E+02 -0.94583889860E+02 -0.34669022684E+03  0.37191436913E+03  0.00000000000E+00 0. -1.
        -11    1    3    3    0    0 -0.16138914151E+03 -0.31817618670E+03 -0.11861896349E+04  0.12386801003E+04  0.00000000000E+00 0.  1.
         22    1    1    2    0    0  0.25720183563E+03  0.41276007656E+03  0.62067025008E+03  0.78851456828E+03  0.00000000000E+00 0.  1.
<mgrwt>
<rscale>  0 0.22189182E+04</rscale>
<asrwt>0</asrwt>
<pdfrwt beam="1">  1        2 0.25471682E+00 0.22189182E+04</pdfrwt>
<pdfrwt beam="2">  1       -2 0.11437688E+00 0.22189182E+04</pdfrwt>
<totfact> 0.56615925E+00</totfact>
</mgrwt>
</event>
<event>
 6    1  0.1028026E-006  0.8128999E+03  0.7818608E-02  0.9541530E-01
         -2   -1    0    0    0  501 -0.00000000000E+00  0.00000000000E+00  0.10605256483E+03  0.10605256483E+03  0.00000000000E+00 0.  1.
          2   -1    0    0  501    0  0.00000000000E+00 -0.00000000000E+00 -0.15577328382E+04  0.15577328382E+04  0.00000000000E+00 0. -1.
         23    2    1    2    0    0 -0.10889742358E+03  0.53314750719E+02 -0.15179927043E+04  0.15255882612E+04  0.91741925421E+02 0.  0.
         11    1    3    3    0    0 -0.82092452949E+02  0.69295272813E+02 -0.83492184123E+03  0.84180489820E+03  0.00000000000E+00 0. -1.
        -11    1    3    3    0    0 -0.26804970631E+02 -0.15980522094E+02 -0.68307086312E+03  0.68378336304E+03  0.00000000000E+00 0.  1.
         22    1    1    2    0    0  0.10889742358E+03 -0.53314750719E+02  0.66312430948E+02  0.13819714181E+03  0.00000000000E+00 0.  1.
<mgrwt>
<rscale>  0 0.81289990E+03</rscale>
<asrwt>0</asrwt>
<pdfrwt beam="1">  1        2 0.23965119E+00 0.81289990E+03</pdfrwt>
<pdfrwt beam="2">  1       -2 0.16315780E-01 0.81289990E+03</pdfrwt>
<totfact> 0.36117618E+02</totfact>
</mgrwt>
</event>
<event>
 6    1  0.1028026E-006  0.1925867E+04  0.7818608E-02  0.8642087E-01
          1   -1    0    0  501    0  0.00000000000E+00  0.00000000000E+00  0.13425039633E+04  0.13425039633E+04  0.00000000000E+00 0. -1.
         -1   -1    0    0    0  501 -0.00000000000E+00 -0.00000000000E+00 -0.69067990578E+03  0.69067990578E+03  0.00000000000E+00 0.  1.
         23    2    1    2    0    0 -0.17936246693E+03  0.13900098096E+03  0.13121833658E+04  0.13349241872E+04  0.93301837205E+02 0.  0.
         11    1    3    3    0    0 -0.17172937493E+03  0.13570569721E+03  0.10481172642E+04  0.10707272360E+04  0.00000000000E+00 0.  1.
        -11    1    3    3    0    0 -0.76330919959E+01  0.32952837498E+01  0.26406610164E+03  0.26419695120E+03  0.00000000000E+00 0. -1.
         22    1    1    2    0    0  0.17936246693E+03 -0.13900098096E+03 -0.66035930830E+03  0.69825968186E+03  0.00000000000E+00 0.  1.
<mgrwt>
<rscale>  0 0.19258666E+04</rscale>
<asrwt>0</asrwt>
<pdfrwt beam="1">  1        1 0.20653907E+00 0.19258666E+04</pdfrwt>
<pdfrwt beam="2">  1       -1 0.10625845E+00 0.19258666E+04</pdfrwt>
<totfact> 0.65210692E+00</totfact>
</mgrwt>
</event>
<event>
 6    1  0.1028026E-006  0.2883221E+04  0.7818608E-02  0.8277887E-01
         -2   -1    0    0    0  501 -0.00000000000E+00  0.00000000000E+00  0.72545465559E+03  0.72545465559E+03  0.00000000000E+00 0.  1.
          2   -1    0    0  501    0  0.00000000000E+00 -0.00000000000E+00 -0.28647432030E+04  0.28647432030E+04  0.00000000000E+00 0. -1.
         23    2    1    2    0    0  0.11793909909E+04 -0.18290807493E+03 -0.66682088301E+02  0.11985214575E+04  0.87113200838E+02 0.  0.
         13    1    3    3    0    0  0.33920499806E+03 -0.87768986260E+02 -0.45472484017E+00  0.35037641535E+03  0.00000000000E+00 0. -1.
        -13    1    3    3    0    0  0.84018599286E+03 -0.95139088667E+02 -0.66227363461E+02  0.84814504211E+03  0.00000000000E+00 0.  1.
         22    1    1    2    0    0 -0.11793909909E+04  0.18290807493E+03 -0.20726064591E+04  0.23916764011E+04  0.00000000000E+00 0. -1.
<mgrwt>
<rscale>  0 0.28832213E+04</rscale>
<asrwt>0</asrwt>
<pdfrwt beam="1">  1        2 0.44072973E+00 0.28832213E+04</pdfrwt>
<pdfrwt beam="2">  1       -2 0.11160841E+00 0.28832213E+04</pdfrwt>
<totfact> 0.11570852E+00</totfact>
</mgrwt>
</event>
<event>
 6    1  0.1028026E-006  0.2225298E+04  0.7818608E-02  0.8507972E-01
         -1   -1    0    0    0  501 -0.00000000000E+00  0.00000000000E+00  0.35199752905E+03  0.35199752905E+03  0.00000000000E+00 0.  1.
          1   -1    0    0  501    0  0.00000000000E+00 -0.00000000000E+00 -0.35170352530E+04  0.35170352530E+04  0.00000000000E+00 0. -1.
         23    2    1    2    0    0 -0.12582641433E+03  0.77950523425E+03 -0.29435813478E+04  0.30489695995E+04  0.89909793342E+02 0.  0.
         13    1    3    3    0    0 -0.11407463128E+03  0.74659556844E+03 -0.27299053325E+04  0.28324549579E+04  0.00000000000E+00 0. -1.
        -13    1    3    3    0    0 -0.11751783054E+02  0.32909665817E+02 -0.21367601528E+03  0.21651464157E+03  0.00000000000E+00 0.  1.
         22    1    1    2    0    0  0.12582641433E+03 -0.77950523425E+03 -0.22145637614E+03  0.82006318251E+03  0.00000000000E+00 0.  1.
<mgrwt>
<rscale>  0 0.22252979E+04</rscale>
<asrwt>0</asrwt>
<pdfrwt beam="1">  1        1 0.54108235E+00 0.22252979E+04</pdfrwt>
<pdfrwt beam="2">  1       -1 0.54153466E-01 0.22252979E+04</pdfrwt>
<totfact> 0.76083034E-01</totfact>
</mgrwt>
</event>
<event>
 6    1  0.1028026E-006  0.3542401E+04  0.7818608E-02  0.8103814E-01
         -2   -1    0    0    0  501 -0.00000000000E+00  0.00000000000E+00  0.53667254902E+04  0.53667254902E+04  0.00000000000E+00 0.  1.
          2   -1    0    0  501    0  0.00000000000E+00 -0.00000000000E+00 -0.58455585131E+03  0.58455585131E+03  0.00000000000E+00 0. -1.
         23    2    1    2    0    0  0.10418948527E+04 -0.13902349955E+03  0.47852220476E+04  0.49001477939E+04  0.90696970843E+02 0.  0.
         11    1    3    3    0    0  0.82576843773E+03 -0.14648654647E+03  0.37742570329E+04  0.38663119341E+04  0.00000000000E+00 0.  1.
        -11    1    3    3    0    0  0.21612641500E+03  0.74630469189E+01  0.10109650147E+04  0.10338358599E+04  0.00000000000E+00 0. -1.
         22    1    1    2    0    0 -0.10418948527E+04  0.13902349955E+03 -0.30524086835E+01  0.10511335475E+04  0.00000000000E+00 0. -1.
<mgrwt>
<rscale>  0 0.35424008E+04</rscale>
<asrwt>0</asrwt>
<pdfrwt beam="1">  1        2 0.89931673E-01 0.35424008E+04</pdfrwt>
<pdfrwt beam="2">  1       -2 0.82565004E+00 0.35424008E+04</pdfrwt>
<totfact> 0.21841221E-03</totfact>
</mgrwt>
</event>
<event>
 6    1  0.1028026E-006  0.3064210E+04  0.7818608E-02  0.8225629E-01
         -1   -1    0    0    0  501 -0.00000000000E+00  0.00000000000E+00  0.82634443588E+03  0.82634443588E+03  0.00000000000E+00 0.  1.
          1   -1    0    0  501    0  0.00000000000E+00 -0.00000000000E+00 -0.28406388710E+04  0.28406388710E+04  0.00000000000E+00 0. -1.
         23    2    1    2    0    0 -0.16338483433E+03 -0.15180310318E+04 -0.87638702898E+03  0.17627915932E+04  0.90923918284E+02 0.  0.
         13    1    3    3    0    0 -0.25141323406E+02 -0.34290111923E+03 -0.15642143013E+03  0.37773129009E+03  0.00000000000E+00 0. -1.
        -13    1    3    3    0    0 -0.13824351092E+03 -0.11751299126E+04 -0.71996559886E+03  0.13850603031E+04  0.00000000000E+00 0.  1.
         22    1    1    2    0    0  0.16338483433E+03  0.15180310318E+04 -0.11379074061E+04  0.19041917137E+04  0.00000000000E+00 0. -1.
<mgrwt>
<rscale>  0 0.30642103E+04</rscale>
<asrwt>0</asrwt>
<pdfrwt beam="1">  1        1 0.43702135E+00 0.30642103E+04</pdfrwt>
<pdfrwt beam="2">  1       -1 0.12712992E+00 0.30642103E+04</pdfrwt>
<totfact> 0.35369452E-01</totfact>
</mgrwt>
</event>
<event>
 6    1  0.1028026E-006  0.3014552E+04  0.7818608E-02  0.8239588E-01
          2   -1    0    0  501    0  0.00000000000E+00  0.00000000000E+00  0.12036290163E+04  0.12036290163E+04  0.00000000000E+00 0. -1.
         -2   -1    0    0    0  501 -0.00000000000E+00 -0.00000000000E+00 -0.18875263264E+04  0.18875263264E+04  0.00000000000E+00 0.  1.
         23    2    1    2    0    0 -0.24196230067E+03 -0.63882448175E+03  0.10338822218E+04  0.12425318024E+04  0.91270794794E+02 0.  0.
         11    1    3    3    0    0 -0.65480450002E+02 -0.29673204312E+03  0.43571027713E+03  0.53120715389E+03  0.00000000000E+00 0.  1.
        -11    1    3    3    0    0 -0.17648185066E+03 -0.34209243863E+03  0.59817194466E+03  0.71132464850E+03  0.00000000000E+00 0. -1.
         22    1    1    2    0    0  0.24196230067E+03  0.63882448175E+03 -0.17177795319E+04  0.18486235403E+04  0.00000000000E+00 0.  1.
<mgrwt>
<rscale>  0 0.30145523E+04</rscale>
<asrwt>0</asrwt>
<pdfrwt beam="1">  1        2 0.18517370E+00 0.30145523E+04</pdfrwt>
<pdfrwt beam="2">  1       -2 0.29038866E+00 0.30145523E+04</pdfrwt>
<totfact> 0.58634466E-01</totfact>
</mgrwt>
</event>
<event>
 6    1  0.1028026E-006  0.1886397E+04  0.7818608E-02  0.8661657E-01
          2   -1    0    0  501    0  0.00000000000E+00  0.00000000000E+00  0.17411551749E+04  0.17411551749E+04  0.00000000000E+00 0. -1.
         -2   -1    0    0    0  501 -0.00000000000E+00 -0.00000000000E+00 -0.51093840419E+03  0.51093840419E+03  0.00000000000E+00 0.  1.
         23    2    1    2    0    0 -0.53647268784E+03  0.22473135410E+03  0.14995858456E+04  0.16111046363E+04  0.92700131574E+02 0.  0.
         13    1    3    3    0    0 -0.36123348127E+03  0.18605096668E+03  0.11143636524E+04  0.11861327666E+04  0.00000000000E+00 0.  1.
        -13    1    3    3    0    0 -0.17523920657E+03  0.38680387426E+02  0.38522219322E+03  0.42497186970E+03  0.00000000000E+00 0. -1.
         22    1    1    2    0    0  0.53647268784E+03 -0.22473135410E+03 -0.26936907489E+03  0.64098894282E+03  0.00000000000E+00 0.  1.
<mgrwt>
<rscale>  0 0.18863966E+04</rscale>
<asrwt>0</asrwt>
<pdfrwt beam="1">  1        2 0.26787002E+00 0.18863966E+04</pdfrwt>
<pdfrwt beam="2">  1       -2 0.78605909E-01 0.18863966E+04</pdfrwt>
<totfact> 0.12542055E+01</totfact>
</mgrwt>
</event>
<event>
 6    1  0.1028026E-006  0.6198197E+03  0.7818608E-02  0.9865119E-01
         -1   -1    0    0    0  501 -0.00000000000E+00  0.00000000000E+00  0.77778895243E+02  0.77778895243E+02  0.00000000000E+00 0.  1.
          1   -1    0    0  501    0  0.00000000000E+00 -0.00000000000E+00 -0.12348351271E+04  0.12348351271E+04  0.00000000000E+00 0. -1.
         23    2    1    2    0    0  0.87740633063E+02  0.52874240639E+02 -0.11964747300E+04  0.12028509957E+04  0.69315468850E+02 0.  0.
         13    1    3    3    0    0  0.60409197019E+02 -0.36811178932E+01 -0.63261140076E+03  0.63549980809E+03  0.00000000000E+00 0. -1.
        -13    1    3    3    0    0  0.27331436043E+02  0.56555358532E+02 -0.56386332925E+03  0.56735118758E+03  0.00000000000E+00 0.  1.
         22    1    1    2    0    0 -0.87740633063E+02 -0.52874240639E+02  0.39418498200E+02  0.10976302662E+03  0.00000000000E+00 0.  1.
<mgrwt>
<rscale>  0 0.61981969E+03</rscale>
<asrwt>0</asrwt>
<pdfrwt beam="1">  1        1 0.18997462E+00 0.61981969E+03</pdfrwt>
<pdfrwt beam="2">  1       -1 0.11965985E-01 0.61981969E+03</pdfrwt>
<totfact> 0.48688629E+02</totfact>
</mgrwt>
</event>
<event>
 6    1  0.1028026E-006  0.1256139E+04  0.7818608E-02  0.9065089E-01
         -1   -1    0    0    0  501 -0.00000000000E+00  0.00000000000E+00  0.27747317194E+03  0.27747317194E+03  0.00000000000E+00 0.  1.
          1   -1    0    0  501    0  0.00000000000E+00 -0.00000000000E+00 -0.14216552458E+04  0.14216552458E+04  0.00000000000E+00 0. -1.
         23    2    1    2    0    0 -0.11949512466E+03 -0.15109501861E+03 -0.13791013540E+04  0.13953260846E+04  0.88913150704E+02 0.  0.
         11    1    3    3    0    0 -0.82337454855E+02 -0.39218904713E+02 -0.72158198687E+03  0.72732258506E+03  0.00000000000E+00 0. -1.
        -11    1    3    3    0    0 -0.37157669808E+02 -0.11187611390E+03 -0.65751936713E+03  0.66800349957E+03  0.00000000000E+00 0.  1.
         22    1    1    2    0    0  0.11949512466E+03  0.15109501861E+03  0.23491928010E+03  0.30380233315E+03  0.00000000000E+00 0.  1.
<mgrwt>
<rscale>  0 0.12561388E+04</rscale>
<asrwt>0</asrwt>
<pdfrwt beam="1">  1        1 0.21871620E+00 0.12561388E+04</pdfrwt>
<pdfrwt beam="2">  1       -1 0.42688179E-01 0.12561388E+04</pdfrwt>
<totfact> 0.39497193E+01</totfact>
</mgrwt>
</event>
<event>
 6    1  0.1028026E-006  0.2046547E+04  0.7818608E-02  0.8585162E-01
         -1   -1    0    0    0  501 -0.00000000000E+00  0.00000000000E+00  0.14271347400E+04  0.14271347400E+04  0.00000000000E+00 0.  1.
          1   -1    0    0  501    0  0.00000000000E+00 -0.00000000000E+00 -0.73370001711E+03  0.73370001711E+03  0.00000000000E+00 0. -1.
         23    2    1    2    0    0 -0.19012881772E+03 -0.54816221725E+03  0.12347328854E+04  0.13673396503E+04  0.91769478214E+02 0.  0.
         13    1    3    3    0    0 -0.14772286077E+03 -0.50168187824E+03  0.11301490624E+04  0.12452885825E+04  0.00000000000E+00 0.  1.
        -13    1    3    3    0    0 -0.42405956952E+02 -0.46480339012E+02  0.10458382303E+03  0.12205106775E+03  0.00000000000E+00 0. -1.
         22    1    1    2    0    0  0.19012881772E+03  0.54816221725E+03 -0.54129816255E+03  0.79349510681E+03  0.00000000000E+00 0. -1.
<mgrwt>
<rscale>  0 0.20465471E+04</rscale>
<asrwt>0</asrwt>
<pdfrwt beam="1">  1        1 0.11287693E+00 0.20465471E+04</pdfrwt>
<pdfrwt beam="2">  1       -1 0.21955919E+00 0.20465471E+04</pdfrwt>
<totfact> 0.25943425E+00</totfact>
</mgrwt>
</event>
<event>
 6    1  0.1028026E-006  0.2260880E+04  0.7818608E-02  0.8493507E-01
          2   -1    0    0  501    0  0.00000000000E+00  0.00000000000E+00  0.10919099335E+04  0.10919099335E+04  0.00000000000E+00 0. -1.
         -2   -1    0    0    0  501 -0.00000000000E+00 -0.00000000000E+00 -0.11703297722E+04  0.11703297722E+04  0.00000000000E+00 0.  1.
         23    2    1    2    0    0  0.89075100194E+03  0.40161049346E+03 -0.60585034695E+03  0.11518743258E+04  0.70932951148E+02 0.  0.
         11    1    3    3    0    0  0.47674481950E+03  0.18717430438E+03 -0.34624278892E+03  0.61822642456E+03  0.00000000000E+00 0. -1.
        -11    1    3    3    0    0  0.41400618243E+03  0.21443618908E+03 -0.25960755803E+03  0.53364790121E+03  0.00000000000E+00 0.  1.
         22    1    1    2    0    0 -0.89075100194E+03 -0.40161049346E+03  0.52743050832E+03  0.11103653800E+04  0.00000000000E+00 0. -1.
<mgrwt>
<rscale>  0 0.22608801E+04</rscale>
<asrwt>0</asrwt>
<pdfrwt beam="1">  1        2 0.16798614E+00 0.22608801E+04</pdfrwt>
<pdfrwt beam="2">  1       -2 0.18005073E+00 0.22608801E+04</pdfrwt>
<totfact> 0.36313291E+00</totfact>
</mgrwt>
</event>
<event>
 6    1  0.1028026E-006  0.1530607E+04  0.7818608E-02  0.8864351E-01
         -1   -1    0    0    0  501 -0.00000000000E+00  0.00000000000E+00  0.33495580013E+03  0.33495580013E+03  0.00000000000E+00 0.  1.
          1   -1    0    0  501    0  0.00000000000E+00 -0.00000000000E+00 -0.17485584527E+04  0.17485584527E+04  0.00000000000E+00 0. -1.
         23    2    1    2    0    0 -0.13009909575E+03 -0.56024432388E+03 -0.28909620264E+02  0.58412295271E+03  0.97797651198E+02 0.  0.
         13    1    3    3    0    0 -0.81998685005E+02 -0.27901986719E+03 -0.60580870404E+02  0.29706213574E+03  0.00000000000E+00 0.  1.
        -13    1    3    3    0    0 -0.48100410748E+02 -0.28122445668E+03  0.31671250140E+02  0.28706081697E+03  0.00000000000E+00 0. -1.
         22    1    1    2    0    0  0.13009909575E+03  0.56024432388E+03 -0.13846930323E+04  0.14993913001E+04  0.00000000000E+00 0. -1.
<mgrwt>
<rscale>  0 0.15306075E+04</rscale>
<asrwt>0</asrwt>
<pdfrwt beam="1">  1        1 0.26900900E+00 0.15306075E+04</pdfrwt>
<pdfrwt beam="2">  1       -1 0.51531661E-01 0.15306075E+04</pdfrwt>
<totfact> 0.16146898E+01</totfact>
</mgrwt>
</event>
<event>
 6    1  0.1028026E-006  0.4444892E+03  0.7818608E-02  0.1029378E+00
          2   -1    0    0  501    0  0.00000000000E+00  0.00000000000E+00  0.18290012547E+04  0.18290012547E+04  0.00000000000E+00 0. -1.
         -2   -1    0    0    0  501 -0.00000000000E+00 -0.00000000000E+00 -0.27005270110E+02  0.27005270110E+02  0.00000000000E+00 0.  1.
         23    2    1    2    0    0  0.16163076793E+03  0.65315334775E+02  0.14495478126E+04  0.14628013468E+04  0.90599784786E+02 0.  0.
         11    1    3    3    0    0  0.90430361095E+01 -0.19577713204E+02  0.18579057126E+03  0.18703796333E+03  0.00000000000E+00 0. -1.
        -11    1    3    3    0    0  0.15258773182E+03  0.84893047979E+02  0.12637572414E+04  0.12757633835E+04  0.00000000000E+00 0.  1.
         22    1    1    2    0    0 -0.16163076793E+03 -0.65315334775E+02  0.35244817200E+03  0.39320517805E+03  0.00000000000E+00 0.  1.
<mgrwt>
<rscale>  0 0.44448925E+03</rscale>
<asrwt>0</asrwt>
<pdfrwt beam="1">  1        2 0.28138471E+00 0.44448925E+03</pdfrwt>
<pdfrwt beam="2">  1       -2 0.41546584E-02 0.44448925E+03</pdfrwt>
<totfact> 0.23555170E+03</totfact>
</mgrwt>
</event>
<event>
 6    1  0.1028026E-006  0.9096340E+03  0.7818608E-02  0.9413618E-01
          1   -1    0    0  501    0  0.00000000000E+00  0.00000000000E+00  0.37520116224E+03  0.37520116224E+03  0.00000000000E+00 0. -1.
         -1   -1    0    0    0  501 -0.00000000000E+00 -0.00000000000E+00 -0.55132689350E+03  0.55132689350E+03  0.00000000000E+00 0.  1.
         23    2    1    2    0    0  0.37599114493E+03  0.10851772255E+03  0.13786683723E+03  0.42479429144E+03  0.91090548654E+02 0.  0.
         11    1    3    3    0    0  0.12889387978E+03  0.37579726701E+02  0.94256675217E+02  0.16404325322E+03  0.00000000000E+00 0. -1.
        -11    1    3    3    0    0  0.24709726515E+03  0.70937995852E+02  0.43610162013E+02  0.26075103822E+03  0.00000000000E+00 0.  1.
         22    1    1    2    0    0 -0.37599114493E+03 -0.10851772255E+03 -0.31399256848E+03  0.50173376430E+03  0.00000000000E+00 0.  1.
<mgrwt>
<rscale>  0 0.90963397E+03</rscale>
<asrwt>0</asrwt>
<pdfrwt beam="1">  1        1 0.57723256E-01 0.90963397E+03</pdfrwt>
<pdfrwt beam="2">  1       -1 0.84819522E-01 0.90963397E+03</pdfrwt>
<totfact> 0.90579147E+01</totfact>
</mgrwt>
</event>
<event>
 6    1  0.1028026E-006  0.1496581E+04  0.7818608E-02  0.8886730E-01
         -1   -1    0    0    0  501 -0.00000000000E+00  0.00000000000E+00  0.84288821571E+03  0.84288821571E+03  0.00000000000E+00 0.  1.
          1   -1    0    0  501    0  0.00000000000E+00 -0.00000000000E+00 -0.66430969607E+03  0.66430969607E+03  0.00000000000E+00 0. -1.
         23    2    1    2    0    0 -0.68195007989E+03  0.35839970939E+02  0.39059471297E+03  0.79215156279E+03  0.92733239233E+02 0.  0.
         13    1    3    3    0    0 -0.45983677518E+03 -0.14710512859E+02  0.28383681225E+03  0.54058264399E+03  0.00000000000E+00 0. -1.
        -13    1    3    3    0    0 -0.22211330471E+03  0.50550483798E+02  0.10675790071E+03  0.25156891880E+03  0.00000000000E+00 0.  1.
         22    1    1    2    0    0  0.68195007989E+03 -0.35839970939E+02 -0.21201619332E+03  0.71504634899E+03  0.00000000000E+00 0. -1.
<mgrwt>
<rscale>  0 0.14965812E+04</rscale>
<asrwt>0</asrwt>
<pdfrwt beam="1">  1        1 0.10220149E+00 0.14965812E+04</pdfrwt>
<pdfrwt beam="2">  1       -1 0.12967511E+00 0.14965812E+04</pdfrwt>
<totfact> 0.14563828E+01</totfact>
</mgrwt>
</event>
<event>
 6    1  0.1028026E-006  0.3249338E+04  0.7818608E-02  0.8175907E-01
          1   -1    0    0  501    0  0.00000000000E+00  0.00000000000E+00  0.39089779414E+04  0.39089779414E+04  0.00000000000E+00 0. -1.
         -1   -1    0    0    0  501 -0.00000000000E+00 -0.00000000000E+00 -0.67525307293E+03  0.67525307293E+03  0.00000000000E+00 0.  1.
         23    2    1    2    0    0  0.80344980250E+03  0.28549760132E+02 -0.37200909263E+03  0.88995651558E+03  0.85353152720E+02 0.  0.
         13    1    3    3    0    0  0.76619722267E+03  0.12874278055E+02 -0.33975005789E+03  0.83824461400E+03  0.00000000000E+00 0.  1.
        -13    1    3    3    0    0  0.37252579827E+02  0.15675482077E+02 -0.32259034745E+02  0.51711901577E+02  0.00000000000E+00 0. -1.
         22    1    1    2    0    0 -0.80344980250E+03 -0.28549760132E+02  0.36057339611E+04  0.36942744988E+04  0.00000000000E+00 0. -1.
<mgrwt>
<rscale>  0 0.32493380E+04</rscale>
<asrwt>0</asrwt>
<pdfrwt beam="1">  1        1 0.60138121E+00 0.32493380E+04</pdfrwt>
<pdfrwt beam="2">  1       -1 0.10388509E+00 0.32493380E+04</pdfrwt>
<totfact> 0.83593015E-02</totfact>
</mgrwt>
</event>
<event>
 6    1  0.1028026E-006  0.1952621E+04  0.7818608E-02  0.8629098E-01
          1   -1    0    0  501    0  0.00000000000E+00  0.00000000000E+00  0.50673408718E+03  0.50673408718E+03  0.00000000000E+00 0. -1.
         -1   -1    0    0    0  501 -0.00000000000E+00 -0.00000000000E+00 -0.18810308220E+04  0.18810308220E+04  0.00000000000E+00 0.  1.
         23    2    1    2    0    0  0.12123040054E+03 -0.47065115207E+03  0.34379924129E+03  0.60225010945E+03  0.91093134019E+02 0.  0.
         11    1    3    3    0    0  0.33219822719E+02 -0.26305564286E+03  0.22296692503E+03  0.34643336664E+03  0.00000000000E+00 0. -1.
        -11    1    3    3    0    0  0.88010577819E+02 -0.20759550921E+03  0.12083231625E+03  0.25581674281E+03  0.00000000000E+00 0.  1.
         22    1    1    2    0    0 -0.12123040054E+03  0.47065115207E+03 -0.17180959761E+04  0.17855147998E+04  0.00000000000E+00 0.  1.
<mgrwt>
<rscale>  0 0.19526213E+04</rscale>
<asrwt>0</asrwt>
<pdfrwt beam="1">  1        1 0.77959091E-01 0.19526213E+04</pdfrwt>
<pdfrwt beam="2">  1       -1 0.28938935E+00 0.19526213E+04</pdfrwt>
<totfact> 0.15688598E+00</totfact>
</mgrwt>
</event>
<event>
 6    1  0.1028026E-006  0.3772905E+04  0.7818608E-02  0.8051994E-01
         -2   -1    0    0    0  501 -0.00000000000E+00  0.00000000000E+00  0.49861938406E+04  0.49861938406E+04  0.00000000000E+00 0.  1.
          2   -1    0    0  501    0  0.00000000000E+00 -0.00000000000E+00 -0.71371145374E+03  0.71371145374E+03  0.00000000000E+00 0. -1.
         23    2    1    2    0    0  0.15150438182E+03  0.18558386412E+04  0.25846372010E+04  0.31867574651E+04  0.89347864783E+02 0.  0.
         11    1    3    3    0    0  0.99560460592E+02  0.15972984852E+04  0.22270864713E+04  0.27424786028E+04  0.00000000000E+00 0. -1.
        -11    1    3    3    0    0  0.51943921228E+02  0.25854015607E+03  0.35755072968E+03  0.44427886237E+03  0.00000000000E+00 0.  1.
         22    1    1    2    0    0 -0.15150438182E+03 -0.18558386412E+04  0.16878451859E+04  0.25131478292E+04  0.00000000000E+00 0. -1.
<mgrwt>
<rscale>  0 0.37729053E+04</rscale>
<asrwt>0</asrwt>
<pdfrwt beam="1">  1        2 0.10980177E+00 0.37729053E+04</pdfrwt>
<pdfrwt beam="2">  1       -2 0.76710672E+00 0.37729053E+04</pdfrwt>
<totfact> 0.38182012E-03</totfact>
</mgrwt>
</event>
<event>
 6    1  0.1028026E-006  0.3482978E+04  0.7818608E-02  0.8117836E-01
          2   -1    0    0  501    0  0.00000000000E+00  0.00000000000E+00  0.33111443630E+04  0.33111443630E+04  0.00000000000E+00 0. -1.
         -2   -1    0    0    0  501 -0.00000000000E+00 -0.00000000000E+00 -0.91593228942E+03  0.91593228942E+03  0.00000000000E+00 0.  1.
         23    2    1    2    0    0 -0.61752826543E+03  0.10659730364E+04 -0.29470597010E+03  0.12684792221E+04  0.67440753767E+02 0.  0.
         11    1    3    3    0    0 -0.43678536429E+03  0.75056132588E+03 -0.23914626696E+03  0.90073009019E+03  0.00000000000E+00 0. -1.
        -11    1    3    3    0    0 -0.18074290114E+03  0.31541171048E+03 -0.55559703138E+02  0.36774913192E+03  0.00000000000E+00 0.  1.
         22    1    1    2    0    0  0.61752826543E+03 -0.10659730364E+04  0.26899180437E+04  0.29585974303E+04  0.00000000000E+00 0. -1.
<mgrwt>
<rscale>  0 0.34829781E+04</rscale>
<asrwt>0</asrwt>
<pdfrwt beam="1">  1        2 0.50940682E+00 0.34829781E+04</pdfrwt>
<pdfrwt beam="2">  1       -2 0.14091266E+00 0.34829781E+04</pdfrwt>
<totfact> 0.31776350E-01</totfact>
</mgrwt>
</event>
<event>
 6    1  0.1028026E-006  0.2106258E+04  0.7818608E-02  0.8558492E-01
         -2   -1    0    0    0  501 -0.00000000000E+00  0.00000000000E+00  0.23963124811E+03  0.23963124811E+03  0.00000000000E+00 0.  1.
          2   -1    0    0  501    0  0.00000000000E+00 -0.00000000000E+00 -0.46282817989E+04  0.46282817989E+04  0.00000000000E+00 0. -1.
         23    2    1    2    0    0 -0.21620613650E+03  0.48315690496E+02 -0.45732758859E+04  0.45795278640E+04  0.90242061490E+02 0.  0.
         11    1    3    3    0    0 -0.58113813298E+02 -0.25826259370E+02 -0.10441334059E+04  0.10460682484E+04  0.00000000000E+00 0. -1.
        -11    1    3    3    0    0 -0.15809232320E+03  0.74141949866E+02 -0.35291424800E+04  0.35334596156E+04  0.00000000000E+00 0.  1.
         22    1    1    2    0    0  0.21620613650E+03 -0.48315690496E+02  0.18462533509E+03  0.28838518298E+03  0.00000000000E+00 0.  1.
<mgrwt>
<rscale>  0 0.21062582E+04</rscale>
<asrwt>0</asrwt>
<pdfrwt beam="1">  1        2 0.71204331E+00 0.21062582E+04</pdfrwt>
<pdfrwt beam="2">  1       -2 0.36866348E-01 0.21062582E+04</pdfrwt>
<totfact> 0.59255024E-01</totfact>
</mgrwt>
</event>
<event>
 6    1  0.1028026E-006  0.4368222E+04  0.7818608E-02  0.7934122E-01
         -2   -1    0    0    0  501 -0.00000000000E+00  0.00000000000E+00  0.12901524080E+04  0.12901524080E+04  0.00000000000E+00 0.  1.
          2   -1    0    0  501    0  0.00000000000E+00 -0.00000000000E+00 -0.36975021948E+04  0.36975021948E+04  0.00000000000E+00 0. -1.
         23    2    1    2    0    0 -0.16334194902E+04  0.14174554264E+04 -0.86407885305E+03  0.23307909835E+04  0.93355384873E+02 0.  0.
         13    1    3    3    0    0 -0.39603224463E+03  0.29312013807E+03 -0.20593161786E+03  0.53401197118E+03  0.00000000000E+00 0.  1.
        -13    1    3    3    0    0 -0.12373872456E+04  0.11243352883E+04 -0.65814723519E+03  0.17967790124E+04  0.00000000000E+00 0. -1.
         22    1    1    2    0    0  0.16334194902E+04 -0.14174554264E+04 -0.15432709337E+04  0.26568636193E+04  0.00000000000E+00 0. -1.
<mgrwt>
<rscale>  0 0.43682222E+04</rscale>
<asrwt>0</asrwt>
<pdfrwt beam="1">  1        2 0.56884649E+00 0.43682222E+04</pdfrwt>
<pdfrwt beam="2">  1       -2 0.19848499E+00 0.43682222E+04</pdfrwt>
<totfact> 0.60930788E-02</totfact>
</mgrwt>
</event>
<event>
 6    1  0.1028026E-006  0.2774948E+04  0.7818608E-02  0.8311088E-01
         -1   -1    0    0    0  501 -0.00000000000E+00  0.00000000000E+00  0.88534778158E+03  0.88534778158E+03  0.00000000000E+00 0.  1.
          1   -1    0    0  501    0  0.00000000000E+00 -0.00000000000E+00 -0.21743820557E+04  0.21743820557E+04  0.00000000000E+00 0. -1.
         23    2    1    2    0    0  0.59553513553E+03 -0.11316378849E+04 -0.12344017708E+04  0.17797879985E+04  0.92904184542E+02 0.  0.
         11    1    3    3    0    0  0.23979414238E+03 -0.45178793141E+03 -0.55751408237E+03  0.75659468523E+03  0.00000000000E+00 0.  1.
        -11    1    3    3    0    0  0.35574099315E+03 -0.67984995353E+03 -0.67688768842E+03  0.10231933132E+04  0.00000000000E+00 0. -1.
         22    1    1    2    0    0 -0.59553513553E+03  0.11316378849E+04 -0.54632503316E+02  0.12799418388E+04  0.00000000000E+00 0.  1.
<mgrwt>
<rscale>  0 0.27749482E+04</rscale>
<asrwt>0</asrwt>
<pdfrwt beam="1">  1        1 0.33452031E+00 0.27749482E+04</pdfrwt>
<pdfrwt beam="2">  1       -1 0.13620735E+00 0.27749482E+04</pdfrwt>
<totfact> 0.88566298E-01</totfact>
</mgrwt>
</event>
<event>
 6    1  0.1028026E-006  0.2943371E+04  0.7818608E-02  0.8260089E-01
          1   -1    0    0  501    0  0.00000000000E+00  0.00000000000E+00  0.35836393368E+04  0.35836393368E+04  0.00000000000E+00 0. -1.
         -1   -1    0    0    0  501 -0.00000000000E+00 -0.00000000000E+00 -0.60437384166E+03  0.60437384166E+03  0.00000000000E+00 0.  1.
         23    2    1    2    0    0 -0.39553116778E+03  0.80025081409E+03 -0.17113063540E+03  0.91359077909E+03  0.92282973152E+02 0.  0.
         13    1    3    3    0    0 -0.32492457669E+03  0.56770845537E+03 -0.11464620542E+03  0.66408781291E+03  0.00000000000E+00 0.  1.
        -13    1    3    3    0    0 -0.70606591086E+02  0.23254235872E+03 -0.56484429975E+02  0.24950296618E+03  0.00000000000E+00 0. -1.
         22    1    1    2    0    0  0.39553116778E+03 -0.80025081409E+03  0.31503961305E+04  0.32744223994E+04  0.00000000000E+00 0. -1.
<mgrwt>
<rscale>  0 0.29433708E+04</rscale>
<asrwt>0</asrwt>
<pdfrwt beam="1">  1        1 0.55132912E+00 0.29433708E+04</pdfrwt>
<pdfrwt beam="2">  1       -1 0.92980593E-01 0.29433708E+04</pdfrwt>
<totfact> 0.20587568E-01</totfact>
</mgrwt>
</event>
<event>
 6    1  0.1028026E-006  0.9328645E+03  0.7818608E-02  0.9385407E-01
          2   -1    0    0  501    0  0.00000000000E+00  0.00000000000E+00  0.13645000027E+04  0.13645000027E+04  0.00000000000E+00 0. -1.
         -2   -1    0    0    0  501 -0.00000000000E+00 -0.00000000000E+00 -0.15944231591E+03  0.15944231591E+03  0.00000000000E+00 0.  1.
         23    2    1    2    0    0  0.26313790256E+03 -0.22570164082E+03  0.10985613904E+03  0.37518245831E+03  0.92253559834E+02 0.  0.
         11    1    3    3    0    0  0.74003768448E+02 -0.11978738339E+03  0.28572535916E+02  0.14367311778E+03  0.00000000000E+00 0. -1.
        -11    1    3    3    0    0  0.18913413411E+03 -0.10591425743E+03  0.81283603120E+02  0.23150934052E+03  0.00000000000E+00 0.  1.
         22    1    1    2    0    0 -0.26313790256E+03  0.22570164082E+03  0.10952015477E+04  0.11487598603E+04  0.00000000000E+00 0. -1.
<mgrwt>
<rscale>  0 0.93286449E+03</rscale>
<asrwt>0</asrwt>
<pdfrwt beam="1">  1        2 0.20992307E+00 0.93286449E+03</pdfrwt>
<pdfrwt beam="2">  1       -2 0.24529588E-01 0.93286449E+03</pdfrwt>
<totfact> 0.22525874E+02</totfact>
</mgrwt>
</event>
<event>
 6    1  0.1028026E-006  0.1897840E+04  0.7818608E-02  0.8655932E-01
         -2   -1    0    0    0  501 -0.00000000000E+00  0.00000000000E+00  0.10398641869E+04  0.10398641869E+04  0.00000000000E+00 0.  1.
          2   -1    0    0  501    0  0.00000000000E+00 -0.00000000000E+00 -0.86592997673E+03  0.86592997673E+03  0.00000000000E+00 0. -1.
         23    2    1    2    0    0  0.58215316223E+02  0.89447129579E+03  0.39317896276E+03  0.98300698150E+03  0.90802571004E+02 0.  0.
         13    1    3    3    0    0  0.57329187151E+02  0.86927388046E+03  0.36321835950E+03  0.94384918903E+03  0.00000000000E+00 0. -1.
        -13    1    3    3    0    0  0.88612907257E+00  0.25197415321E+02  0.29960603260E+02  0.39157792472E+02  0.00000000000E+00 0.  1.
         22    1    1    2    0    0 -0.58215316223E+02 -0.89447129579E+03 -0.21924475257E+03  0.92278718216E+03  0.00000000000E+00 0.  1.
<mgrwt>
<rscale>  0 0.18978404E+04</rscale>
<asrwt>0</asrwt>
<pdfrwt beam="1">  1        2 0.13322000E+00 0.18978404E+04</pdfrwt>
<pdfrwt beam="2">  1       -2 0.15997911E+00 0.18978404E+04</pdfrwt>
<totfact> 0.73003732E+00</totfact>
</mgrwt>
</event>
<event>
 6    1  0.1028026E-006  0.4390242E+04  0.7818608E-02  0.7930139E-01
         -2   -1    0    0    0  501 -0.00000000000E+00  0.00000000000E+00  0.11589357957E+04  0.11589357957E+04  0.00000000000E+00 0.  1.
          2   -1    0    0  501    0  0.00000000000E+00 -0.00000000000E+00 -0.41577412860E+04  0.41577412860E+04  0.00000000000E+00 0. -1.
         23    2    1    2    0    0  0.13624787846E+04 -0.16656273044E+03  0.57299111882E+03  0.14902136232E+04  0.91248226595E+02 0.  0.
         13    1    3    3    0    0  0.91175130320E+03 -0.13092092527E+03  0.34251065091E+03  0.98272288746E+03  0.00000000000E+00 0.  1.
        -13    1    3    3    0    0  0.45072748140E+03 -0.35641805165E+02  0.23048046791E+03  0.50749073573E+03  0.00000000000E+00 0. -1.
         22    1    1    2    0    0 -0.13624787846E+04  0.16656273044E+03 -0.35717966092E+04  0.38264634585E+04  0.00000000000E+00 0. -1.
<mgrwt>
<rscale>  0 0.43902415E+04</rscale>
<asrwt>0</asrwt>
<pdfrwt beam="1">  1        2 0.63965250E+00 0.43902415E+04</pdfrwt>
<pdfrwt beam="2">  1       -2 0.17829782E+00 0.43902415E+04</pdfrwt>
<totfact> 0.35831605E-02</totfact>
</mgrwt>
</event>
<event>
 6    1  0.1028026E-006  0.3631956E+04  0.7818608E-02  0.8083211E-01
          1   -1    0    0  501    0  0.00000000000E+00  0.00000000000E+00  0.20511492466E+04  0.20511492466E+04  0.00000000000E+00 0. -1.
         -1   -1    0    0    0  501 -0.00000000000E+00 -0.00000000000E+00 -0.16077700168E+04  0.16077700168E+04  0.00000000000E+00 0.  1.
         23    2    1    2    0    0  0.45363218774E+03 -0.70251404393E+03 -0.14008022252E+04  0.16339962074E+04  0.91589234839E+02 0.  0.
         11    1    3    3    0    0  0.11246498615E+03 -0.21531262655E+03 -0.47683141123E+03  0.53514119164E+03  0.00000000000E+00 0. -1.
        -11    1    3    3    0    0  0.34116720160E+03 -0.48720141738E+03 -0.92397081402E+03  0.10988550158E+04  0.00000000000E+00 0.  1.
         22    1    1    2    0    0 -0.45363218774E+03  0.70251404393E+03  0.18441814550E+04  0.20249230560E+04  0.00000000000E+00 0. -1.
<mgrwt>
<rscale>  0 0.36319561E+04</rscale>
<asrwt>0</asrwt>
<pdfrwt beam="1">  1        1 0.31556142E+00 0.36319561E+04</pdfrwt>
<pdfrwt beam="2">  1       -1 0.24734923E+00 0.36319561E+04</pdfrwt>
<totfact> 0.16107460E-01</totfact>
</mgrwt>
</event>
<event>
 6    1  0.1028026E-006  0.8983587E+03  0.7818608E-02  0.9427635E-01
          2   -1    0    0  501    0  0.00000000000E+00  0.00000000000E+00  0.82295549310E+03  0.82295549310E+03  0.00000000000E+00 0. -1.
         -2   -1    0    0    0  501 -0.00000000000E+00 -0.00000000000E+00 -0.24516770491E+03  0.24516770491E+03  0.00000000000E+00 0.  1.
         23    2    1    2    0    0 -0.17358836939E+03 -0.15515607003E+03 -0.15771430652E+03  0.29665080099E+03  0.94454048055E+02 0.  0.
         11    1    3    3    0    0 -0.82120216953E+02 -0.13222798528E+03 -0.83394369074E+02  0.17658593069E+03  0.00000000000E+00 0. -1.
        -11    1    3    3    0    0 -0.91468152432E+02 -0.22928084758E+02 -0.74319937441E+02  0.12006487030E+03  0.00000000000E+00 0.  1.
         22    1    1    2    0    0  0.17358836939E+03  0.15515607003E+03  0.73550209471E+03  0.77147239703E+03  0.00000000000E+00 0. -1.
<mgrwt>
<rscale>  0 0.89835875E+03</rscale>
<asrwt>0</asrwt>
<pdfrwt beam="1">  1        2 0.12660854E+00 0.89835875E+03</pdfrwt>
<pdfrwt beam="2">  1       -2 0.37718109E-01 0.89835875E+03</pdfrwt>
<totfact> 0.22039715E+02</totfact>
</mgrwt>
</event>
<event>
 6    1  0.1028026E-006  0.3984609E+04  0.7818608E-02  0.8007659E-01
          2   -1    0    0  501    0  0.00000000000E+00  0.00000000000E+00  0.27339462718E+04  0.27339462718E+04  0.00000000000E+00 0. -1.
         -2   -1    0    0    0  501 -0.00000000000E+00 -0.00000000000E+00 -0.14518488933E+04  0.14518488933E+04  0.00000000000E+00 0.  1.
         23    2    1    2    0    0  0.71864971672E+03  0.13298826938E+04 -0.72020762203E+03  0.16769566471E+04  0.91865025397E+02 0.  0.
         11    1    3    3    0    0  0.47834752588E+03  0.89045778742E+03 -0.52895425056E+03  0.11408435589E+04  0.00000000000E+00 0.  1.
        -11    1    3    3    0    0  0.24030219084E+03  0.43942490635E+03 -0.19125337147E+03  0.53611308820E+03  0.00000000000E+00 0. -1.
         22    1    1    2    0    0 -0.71864971672E+03 -0.13298826938E+04  0.20023050005E+04  0.25088385181E+04  0.00000000000E+00 0. -1.
<mgrwt>
<rscale>  0 0.39846088E+04</rscale>
<asrwt>0</asrwt>
<pdfrwt beam="1">  1        2 0.42060712E+00 0.39846088E+04</pdfrwt>
<pdfrwt beam="2">  1       -2 0.22336137E+00 0.39846088E+04</pdfrwt>
<totfact> 0.18835499E-01</totfact>
</mgrwt>
</event>
<event>
 6    1  0.1028026E-006  0.2054190E+04  0.7818608E-02  0.8581696E-01
          1   -1    0    0  501    0  0.00000000000E+00  0.00000000000E+00  0.23993147729E+04  0.23993147729E+04  0.00000000000E+00 0. -1.
         -1   -1    0    0    0  501 -0.00000000000E+00 -0.00000000000E+00 -0.43967735533E+03  0.43967735533E+03  0.00000000000E+00 0.  1.
         23    2    1    2    0    0 -0.19413786794E+02  0.14195504311E+03  0.23845432220E+04  0.23905804066E+04  0.91105287101E+02 0.  0.
         13    1    3    3    0    0  0.11957568957E+02  0.13300996769E+03  0.16884089653E+04  0.16936822220E+04  0.00000000000E+00 0.  1.
        -13    1    3    3    0    0 -0.31371355751E+02  0.89450754157E+01  0.69613425668E+03  0.69689818457E+03  0.00000000000E+00 0. -1.
         22    1    1    2    0    0  0.19413786794E+02 -0.14195504311E+03 -0.42490580448E+03  0.44841172160E+03  0.00000000000E+00 0.  1.
<mgrwt>
<rscale>  0 0.20541902E+04</rscale>
<asrwt>0</asrwt>
<pdfrwt beam="1">  1        1 0.36912534E+00 0.20541902E+04</pdfrwt>
<pdfrwt beam="2">  1       -1 0.67642671E-01 0.20541902E+04</pdfrwt>
<totfact> 0.32507349E+00</totfact>
</mgrwt>
</event>
<event>
 6    1  0.1028026E-006  0.2023149E+04  0.7818608E-02  0.8595874E-01
          2   -1    0    0  501    0  0.00000000000E+00  0.00000000000E+00  0.44639414725E+04  0.44639414725E+04  0.00000000000E+00 0. -1.
         -2   -1    0    0    0  501 -0.00000000000E+00 -0.00000000000E+00 -0.22923300126E+03  0.22923300126E+03  0.00000000000E+00 0.  1.
         23    2    1    2    0    0  0.22368600223E+03 -0.98106740149E+03  0.23127672067E+04  0.25237536068E+04  0.88946283422E+02 0.  0.
         11    1    3    3    0    0  0.16850462208E+03 -0.58931883242E+03  0.14744497492E+04  0.15967756751E+04  0.00000000000E+00 0. -1.
        -11    1    3    3    0    0  0.55181380156E+02 -0.39174856907E+03  0.83831745755E+03  0.92697793163E+03  0.00000000000E+00 0.  1.
         22    1    1    2    0    0 -0.22368600223E+03  0.98106740149E+03  0.19219412645E+04  0.21694208670E+04  0.00000000000E+00 0. -1.
<mgrwt>
<rscale>  0 0.20231487E+04</rscale>
<asrwt>0</asrwt>
<pdfrwt beam="1">  1        2 0.68676016E+00 0.20231487E+04</pdfrwt>
<pdfrwt beam="2">  1       -2 0.35266619E-01 0.20231487E+04</pdfrwt>
<totfact> 0.94875177E-01</totfact>
</mgrwt>
</event>
<event>
 6    1  0.1028026E-006  0.3507136E+04  0.7818608E-02  0.8112101E-01
          2   -1    0    0  501    0  0.00000000000E+00  0.00000000000E+00  0.36815439161E+04  0.36815439161E+04  0.00000000000E+00 0. -1.
         -2   -1    0    0    0  501 -0.00000000000E+00 -0.00000000000E+00 -0.83524741006E+03  0.83524741006E+03  0.00000000000E+00 0.  1.
         23    2    1    2    0    0  0.48675876505E+03 -0.71279408697E+03  0.33882419513E+04  0.34976179496E+04  0.90212500633E+02 0.  0.
         13    1    3    3    0    0  0.38043900324E+03 -0.61430972107E+03  0.27845307902E+04  0.28767554624E+04  0.00000000000E+00 0.  1.
        -13    1    3    3    0    0  0.10631976182E+03 -0.98484365895E+02  0.60371116104E+03  0.62086248723E+03  0.00000000000E+00 0. -1.
         22    1    1    2    0    0 -0.48675876505E+03  0.71279408697E+03 -0.54194544527E+03  0.10191733765E+04  0.00000000000E+00 0. -1.
<mgrwt>
<rscale>  0 0.35071356E+04</rscale>
<asrwt>0</asrwt>
<pdfrwt beam="1">  1        2 0.56639136E+00 0.35071356E+04</pdfrwt>
<pdfrwt beam="2">  1       -2 0.12849960E+00 0.35071356E+04</pdfrwt>
<totfact> 0.22077735E-01</totfact>
</mgrwt>
</event>
<event>
 6    1  0.1028026E-006  0.3366342E+04  0.7818608E-02  0.8146217E-01
         -1   -1    0    0    0  501 -0.00000000000E+00  0.00000000000E+00  0.95723724949E+03  0.95723724949E+03  0.00000000000E+00 0.  1.
          1   -1    0    0  501    0  0.00000000000E+00 -0.00000000000E+00 -0.29596270396E+04  0.29596270396E+04  0.00000000000E+00 0. -1.
         23    2    1    2    0    0  0.72590246475E+03 -0.15058088319E+04 -0.78663629458E+03  0.18498734356E+04  0.94023620392E+02 0.  0.
         11    1    3    3    0    0  0.43656991305E+03 -0.86124089245E+03 -0.40740189712E+03  0.10480007011E+04  0.00000000000E+00 0. -1.
        -11    1    3    3    0    0  0.28933255170E+03 -0.64456793946E+03 -0.37923439747E+03  0.80187273446E+03  0.00000000000E+00 0.  1.
         22    1    1    2    0    0 -0.72590246475E+03  0.15058088319E+04 -0.12157534955E+04  0.20669908535E+04  0.00000000000E+00 0. -1.
<mgrwt>
<rscale>  0 0.33663424E+04</rscale>
<asrwt>0</asrwt>
<pdfrwt beam="1">  1        1 0.45532723E+00 0.33663424E+04</pdfrwt>
<pdfrwt beam="2">  1       -1 0.14726727E+00 0.33663424E+04</pdfrwt>
<totfact> 0.19330049E-01</totfact>
</mgrwt>
</event>
<event>
 6    1  0.1028026E-006  0.2481840E+04  0.7818608E-02  0.8409484E-01
          1   -1    0    0  501    0  0.00000000000E+00  0.00000000000E+00  0.22828575544E+04  0.22828575544E+04  0.00000000000E+00 0. -1.
         -1   -1    0    0    0  501 -0.00000000000E+00 -0.00000000000E+00 -0.67454168736E+03  0.67454168736E+03  0.00000000000E+00 0.  1.
         23    2    1    2    0    0  0.11935007992E+04 -0.33205025028E+03  0.84424419168E+03  0.15018900348E+04  0.90685694311E+02 0.  0.
         13    1    3    3    0    0  0.58973503390E+03 -0.12707030927E+03  0.37661791550E+03  0.71117882982E+03  0.00000000000E+00 0. -1.
        -13    1    3    3    0    0  0.60376576529E+03 -0.20497994101E+03  0.46762627618E+03  0.79071120500E+03  0.00000000000E+00 0.  1.
         22    1    1    2    0    0 -0.11935007992E+04  0.33205025028E+03  0.76407167533E+03  0.14555092069E+04  0.00000000000E+00 0. -1.
<mgrwt>
<rscale>  0 0.24818401E+04</rscale>
<asrwt>0</asrwt>
<pdfrwt beam="1">  1        1 0.35120885E+00 0.24818401E+04</pdfrwt>
<pdfrwt beam="2">  1       -1 0.10377565E+00 0.24818401E+04</pdfrwt>
<totfact> 0.14882287E+00</totfact>
</mgrwt>
</event>
<event>
 6    1  0.1028026E-006  0.1542924E+04  0.7818608E-02  0.8856400E-01
         -2   -1    0    0    0  501 -0.00000000000E+00  0.00000000000E+00  0.68811208021E+03  0.68811208021E+03  0.00000000000E+00 0.  1.
          2   -1    0    0  501    0  0.00000000000E+00 -0.00000000000E+00 -0.86490757399E+03  0.86490757399E+03  0.00000000000E+00 0. -1.
         23    2    1    2    0    0 -0.57603550994E+03  0.50800522434E+03 -0.58579928129E+02  0.77593462884E+03  0.93577366842E+02 0.  0.
         13    1    3    3    0    0 -0.97418447301E+02  0.51384826600E+02  0.11493818764E+02  0.11073780813E+03  0.00000000000E+00 0.  1.
        -13    1    3    3    0    0 -0.47861706264E+03  0.45662039774E+03 -0.70073746893E+02  0.66519682071E+03  0.00000000000E+00 0. -1.
         22    1    1    2    0    0  0.57603550994E+03 -0.50800522434E+03 -0.11821556565E+03  0.77708502536E+03  0.00000000000E+00 0.  1.
<mgrwt>
<rscale>  0 0.15429237E+04</rscale>
<asrwt>0</asrwt>
<pdfrwt beam="1">  1        2 0.13306270E+00 0.15429237E+04</pdfrwt>
<pdfrwt beam="2">  1       -2 0.10586340E+00 0.15429237E+04</pdfrwt>
<totfact> 0.21514805E+01</totfact>
</mgrwt>
</event>
<event>
 6    1  0.1028026E-006  0.2343791E+04  0.7818608E-02  0.8460852E-01
         -2   -1    0    0    0  501 -0.00000000000E+00  0.00000000000E+00  0.67239347576E+03  0.67239347576E+03  0.00000000000E+00 0.  1.
          2   -1    0    0  501    0  0.00000000000E+00 -0.00000000000E+00 -0.20424638566E+04  0.20424638566E+04  0.00000000000E+00 0. -1.
         23    2    1    2    0    0 -0.33498815781E+02 -0.95183687719E+03  0.10159603449E+03  0.96188338803E+03  0.88217268726E+02 0.  0.
         13    1    3    3    0    0  0.15904979303E+02 -0.52883724250E+03  0.83493745023E+02  0.53562393793E+03  0.00000000000E+00 0.  1.
        -13    1    3    3    0    0 -0.49403795084E+02 -0.42299963469E+03  0.18102289466E+02  0.42625945010E+03  0.00000000000E+00 0. -1.
         22    1    1    2    0    0  0.33498815781E+02  0.95183687719E+03 -0.14716664153E+04  0.17529739443E+04  0.00000000000E+00 0. -1.
<mgrwt>
<rscale>  0 0.23437913E+04</rscale>
<asrwt>0</asrwt>
<pdfrwt beam="1">  1        2 0.31422521E+00 0.23437913E+04</pdfrwt>
<pdfrwt beam="2">  1       -2 0.10344515E+00 0.23437913E+04</pdfrwt>
<totfact> 0.43542999E+00</totfact>
</mgrwt>
</event>
<event>
 6    1  0.1028026E-006  0.3754311E+04  0.7818608E-02  0.8056031E-01
         -1   -1    0    0    0  501 -0.00000000000E+00  0.00000000000E+00  0.14271737228E+04  0.14271737228E+04  0.00000000000E+00 0.  1.
          1   -1    0    0  501    0  0.00000000000E+00 -0.00000000000E+00 -0.24690147778E+04  0.24690147778E+04  0.00000000000E+00 0. -1.
         23    2    1    2    0    0 -0.11246443405E+04  0.68377525359E+03  0.86614128653E+03  0.15782648380E+04  0.91354696061E+02 0.  0.
         11    1    3    3    0    0 -0.52552003522E+03  0.26640729318E+03  0.38456590934E+03  0.70358730226E+03  0.00000000000E+00 0.  1.
        -11    1    3    3    0    0 -0.59912430529E+03  0.41736796041E+03  0.48157537718E+03  0.87467753571E+03  0.00000000000E+00 0. -1.
         22    1    1    2    0    0  0.11246443405E+04 -0.68377525359E+03 -0.19079823415E+04  0.23179236626E+04  0.00000000000E+00 0. -1.
<mgrwt>
<rscale>  0 0.37543111E+04</rscale>
<asrwt>0</asrwt>
<pdfrwt beam="1">  1        1 0.37984842E+00 0.37543111E+04</pdfrwt>
<pdfrwt beam="2">  1       -1 0.21956519E+00 0.37543111E+04</pdfrwt>
<totfact> 0.12595802E-01</totfact>
</mgrwt>
</event>
<event>
 6    1  0.1028026E-006  0.8686782E+03  0.7818608E-02  0.9465605E-01
          2   -1    0    0  501    0  0.00000000000E+00  0.00000000000E+00  0.18719206419E+04  0.18719206419E+04  0.00000000000E+00 0. -1.
         -2   -1    0    0    0  501 -0.00000000000E+00 -0.00000000000E+00 -0.10077908037E+03  0.10077908037E+03  0.00000000000E+00 0.  1.
         23    2    1    2    0    0 -0.22239178319E+03  0.29622630566E+03  0.39652656042E+03  0.54905140521E+03  0.83761584603E+02 0.  0.
         13    1    3    3    0    0 -0.18095530830E+03  0.23862217072E+03  0.36294517925E+03  0.47054709339E+03  0.00000000000E+00 0. -1.
        -13    1    3    3    0    0 -0.41436474886E+02  0.57604134938E+02  0.33581381173E+02  0.78504311820E+02  0.00000000000E+00 0.  1.
         22    1    1    2    0    0  0.22239178319E+03 -0.29622630566E+03  0.13746150011E+04  0.14236483170E+04  0.00000000000E+00 0. -1.
<mgrwt>
<rscale>  0 0.86867817E+03</rscale>
<asrwt>0</asrwt>
<pdfrwt beam="1">  1        2 0.28798777E+00 0.86867817E+03</pdfrwt>
<pdfrwt beam="2">  1       -2 0.15504475E-01 0.86867817E+03</pdfrwt>
<totfact> 0.26376585E+02</totfact>
</mgrwt>
</event>
<event>
 6    1  0.1028026E-006  0.4518040E+03  0.7818608E-02  0.1027185E+00
          1   -1    0    0  501    0  0.00000000000E+00  0.00000000000E+00  0.59360139762E+02  0.59360139762E+02  0.00000000000E+00 0. -1.
         -1   -1    0    0    0  501 -0.00000000000E+00 -0.00000000000E+00 -0.85969656845E+03  0.85969656845E+03  0.00000000000E+00 0.  1.
         23    2    1    2    0    0 -0.15662271908E+03 -0.13811675045E+03 -0.29164794853E+03  0.36917410007E+03  0.87315962992E+02 0.  0.
         11    1    3    3    0    0 -0.12739297062E+03 -0.63622015696E+02 -0.21820157461E+03  0.26055451830E+03  0.00000000000E+00 0.  1.
        -11    1    3    3    0    0 -0.29229748459E+02 -0.74494734759E+02 -0.73446373918E+02  0.10861958177E+03  0.00000000000E+00 0. -1.
         22    1    1    2    0    0  0.15662271908E+03  0.13811675045E+03 -0.50868848016E+03  0.54988260814E+03  0.00000000000E+00 0.  1.
<mgrwt>
<rscale>  0 0.45180398E+03</rscale>
<asrwt>0</asrwt>
<pdfrwt beam="1">  1        1 0.91323299E-02 0.45180398E+03</pdfrwt>
<pdfrwt beam="2">  1       -1 0.13226100E+00 0.45180398E+03</pdfrwt>
<totfact> 0.37724051E+02</totfact>
</mgrwt>
</event>
<event>
 6    1  0.1028026E-006  0.9337258E+03  0.7818608E-02  0.9384377E-01
          2   -1    0    0  501    0  0.00000000000E+00  0.00000000000E+00  0.26846033904E+03  0.26846033904E+03  0.00000000000E+00 0. -1.
         -2   -1    0    0    0  501 -0.00000000000E+00 -0.00000000000E+00 -0.81189264484E+03  0.81189264484E+03  0.00000000000E+00 0.  1.
         23    2    1    2    0    0 -0.14712285939E+03  0.42439320137E+03 -0.13942840758E+03  0.47622230688E+03  0.74784220309E+02 0.  0.
         13    1    3    3    0    0 -0.12448877911E+03  0.29156233802E+03 -0.12471611193E+03  0.34067603621E+03  0.00000000000E+00 0.  1.
        -13    1    3    3    0    0 -0.22634080280E+02  0.13283086335E+03 -0.14712295650E+02  0.13554627067E+03  0.00000000000E+00 0. -1.
         22    1    1    2    0    0  0.14712285939E+03 -0.42439320137E+03 -0.40400389822E+03  0.60413067701E+03  0.00000000000E+00 0.  1.
<mgrwt>
<rscale>  0 0.93372582E+03</rscale>
<asrwt>0</asrwt>
<pdfrwt beam="1">  1        2 0.41301591E-01 0.93372582E+03</pdfrwt>
<pdfrwt beam="2">  1       -2 0.12490656E+00 0.93372582E+03</pdfrwt>
<totfact> 0.59770652E+01</totfact>
</mgrwt>
</event>
<event>
 6    1  0.1028026E-006  0.1218746E+04  0.7818608E-02  0.9096604E-01
         -2   -1    0    0    0  501 -0.00000000000E+00  0.00000000000E+00  0.16306269289E+03  0.16306269289E+03  0.00000000000E+00 0.  1.
          2   -1    0    0  501    0  0.00000000000E+00 -0.00000000000E+00 -0.22772576063E+04  0.22772576063E+04  0.00000000000E+00 0. -1.
         23    2    1    2    0    0 -0.46399458679E+03  0.33409664344E+03 -0.14650178843E+04  0.15752524644E+04  0.90726961090E+02 0.  0.
         13    1    3    3    0    0 -0.17069181522E+03  0.15436127398E+03 -0.49055243579E+03  0.54185310828E+03  0.00000000000E+00 0. -1.
        -13    1    3    3    0    0 -0.29330277157E+03  0.17973536946E+03 -0.97446544850E+03  0.10333993561E+04  0.00000000000E+00 0.  1.
         22    1    1    2    0    0  0.46399458679E+03 -0.33409664344E+03 -0.64917702915E+03  0.86506783486E+03  0.00000000000E+00 0.  1.
<mgrwt>
<rscale>  0 0.12187465E+04</rscale>
<asrwt>0</asrwt>
<pdfrwt beam="1">  1        2 0.35034730E+00 0.12187465E+04</pdfrwt>
<pdfrwt beam="2">  1       -2 0.25086570E-01 0.12187465E+04</pdfrwt>
<totfact> 0.65849714E+01</totfact>
</mgrwt>
</event>
<event>
 6    1  0.1028026E-006  0.2283427E+04  0.7818608E-02  0.8484484E-01
         -2   -1    0    0    0  501 -0.00000000000E+00  0.00000000000E+00  0.46012779565E+03  0.46012779565E+03  0.00000000000E+00 0.  1.
          2   -1    0    0  501    0  0.00000000000E+00 -0.00000000000E+00 -0.28329308756E+04  0.28329308756E+04  0.00000000000E+00 0. -1.
         23    2    1    2    0    0 -0.80153668793E+03 -0.80841755329E+03 -0.12680931408E+04  0.17067472100E+04  0.94476570465E+02 0.  0.
         11    1    3    3    0    0 -0.53966939702E+03 -0.55813185802E+03 -0.92730629908E+03  0.12094011747E+04  0.00000000000E+00 0.  1.
        -11    1    3    3    0    0 -0.26186729091E+03 -0.25028569528E+03 -0.34078684173E+03  0.49734603527E+03  0.00000000000E+00 0. -1.
         22    1    1    2    0    0  0.80153668793E+03  0.80841755329E+03 -0.11047099391E+04  0.15863114613E+04  0.00000000000E+00 0.  1.
<mgrwt>
<rscale>  0 0.22834275E+04</rscale>
<asrwt>0</asrwt>
<pdfrwt beam="1">  1        2 0.43583551E+00 0.22834275E+04</pdfrwt>
<pdfrwt beam="2">  1       -2 0.70788893E-01 0.22834275E+04</pdfrwt>
<totfact> 0.36382105E+00</totfact>
</mgrwt>
</event>
<event>
 6    1  0.1207514E-006  0.2765285E+04  0.7818608E-02  0.8314128E-01
         -1   -1    0    0    0  501 -0.00000000000E+00  0.00000000000E+00  0.11759773737E+04  0.11759773737E+04  0.00000000000E+00 0.  1.
          1   -1    0    0  501    0  0.00000000000E+00 -0.00000000000E+00 -0.16256264159E+04  0.16256264159E+04  0.00000000000E+00 0. -1.
         23    2    1    2    0    0 -0.35764592733E+03  0.11795640523E+04 -0.85646424384E+03  0.15036128147E+04  0.89657864780E+02 0.  0.
         11    1    3    3    0    0 -0.24639766224E+03  0.68975281572E+03 -0.47646432129E+03  0.87377857848E+03  0.00000000000E+00 0. -1.
        -11    1    3    3    0    0 -0.11124826509E+03  0.48981123656E+03 -0.37999992255E+03  0.62983423620E+03  0.00000000000E+00 0.  1.
         22    1    1    2    0    0  0.35764592733E+03 -0.11795640523E+04  0.40681520165E+03  0.12979909750E+04  0.00000000000E+00 0.  1.
<mgrwt>
<rscale>  0 0.27652847E+04</rscale>
<asrwt>0</asrwt>
<pdfrwt beam="1">  1        1 0.25009637E+00 0.27652847E+04</pdfrwt>
<pdfrwt beam="2">  1       -1 0.18091960E+00 0.27652847E+04</pdfrwt>
<totfact> 0.95373086E-01</totfact>
</mgrwt>
</event>
<event>
 6    1  0.1028026E-006  0.2231659E+04  0.7818608E-02  0.8505365E-01
         -2   -1    0    0    0  501 -0.00000000000E+00  0.00000000000E+00  0.16622733839E+04  0.16622733839E+04  0.00000000000E+00 0.  1.
          2   -1    0    0  501    0  0.00000000000E+00 -0.00000000000E+00 -0.74901946697E+03  0.74901946697E+03  0.00000000000E+00 0. -1.
         23    2    1    2    0    0  0.30140413667E+03  0.73874283648E+03 -0.38121347824E+03  0.89069057899E+03  0.10686701765E+03 0.  0.
         13    1    3    3    0    0  0.15601002856E+03  0.33666757671E+03 -0.23313015933E+03  0.43821667860E+03  0.00000000000E+00 0.  1.
        -13    1    3    3    0    0  0.14539410811E+03  0.40207525977E+03 -0.14808331892E+03  0.45247390039E+03  0.00000000000E+00 0. -1.
         22    1    1    2    0    0 -0.30140413667E+03 -0.73874283648E+03  0.12944673951E+04  0.15206022718E+04  0.00000000000E+00 0.  1.
<mgrwt>
<rscale>  0 0.22316587E+04</rscale>
<asrwt>0</asrwt>
<pdfrwt beam="1">  1        2 0.11523376E+00 0.22316587E+04</pdfrwt>
<pdfrwt beam="2">  1       -2 0.25573437E+00 0.22316587E+04</pdfrwt>
<totfact> 0.20289110E+00</totfact>
</mgrwt>
</event>
<event>
 6    1  0.1028026E-006  0.1414851E+04  0.7818608E-02  0.8943138E-01
         -1   -1    0    0    0  501 -0.00000000000E+00  0.00000000000E+00  0.31129692898E+03  0.31129692898E+03  0.00000000000E+00 0.  1.
          1   -1    0    0  501    0  0.00000000000E+00 -0.00000000000E+00 -0.16076311687E+04  0.16076311687E+04  0.00000000000E+00 0. -1.
         23    2    1    2    0    0  0.27250948032E+03 -0.44601522881E+03 -0.10224558322E+02  0.53066691412E+03  0.91169243447E+02 0.  0.
         11    1    3    3    0    0  0.10657866549E+03 -0.25835345240E+03  0.71557144681E+01  0.27956523846E+03  0.00000000000E+00 0. -1.
        -11    1    3    3    0    0  0.16593081483E+03 -0.18766177640E+03 -0.17380272790E+02  0.25110167566E+03  0.00000000000E+00 0.  1.
         22    1    1    2    0    0 -0.27250948032E+03  0.44601522881E+03 -0.12861096814E+04  0.13882611835E+04  0.00000000000E+00 0. -1.
<mgrwt>
<rscale>  0 0.14148507E+04</rscale>
<asrwt>0</asrwt>
<pdfrwt beam="1">  1        1 0.24732788E+00 0.14148507E+04</pdfrwt>
<pdfrwt beam="2">  1       -1 0.47891835E-01 0.14148507E+04</pdfrwt>
<totfact> 0.23389669E+01</totfact>
</mgrwt>
</event>
<event>
 6    1  0.1290100E-006  0.4237617E+04  0.7818608E-02  0.7958255E-01
         -2   -1    0    0    0  501 -0.00000000000E+00  0.00000000000E+00  0.19204984169E+04  0.19204984169E+04  0.00000000000E+00 0.  1.
          2   -1    0    0  501    0  0.00000000000E+00 -0.00000000000E+00 -0.23375959283E+04  0.23375959283E+04  0.00000000000E+00 0. -1.
         23    2    1    2    0    0 -0.13763706112E+04  0.13309069860E+04  0.70099899610E+03  0.20409228893E+04  0.90869041858E+02 0.  0.
         11    1    3    3    0    0 -0.86793937207E+03  0.78549342431E+03  0.40515018088E+03  0.12387353802E+04  0.00000000000E+00 0. -1.
        -11    1    3    3    0    0 -0.50843123912E+03  0.54541356172E+03  0.29584881522E+03  0.80218750906E+03  0.00000000000E+00 0.  1.
         22    1    1    2    0    0  0.13763706112E+04 -0.13309069860E+04 -0.11180965075E+04  0.22171714559E+04  0.00000000000E+00 0. -1.
<mgrwt>
<rscale>  0 0.42376169E+04</rscale>
<asrwt>0</asrwt>
<pdfrwt beam="1">  1        2 0.35963014E+00 0.42376169E+04</pdfrwt>
<pdfrwt beam="2">  1       -2 0.29546130E+00 0.42376169E+04</pdfrwt>
<totfact> 0.11317422E-01</totfact>
</mgrwt>
</event>
<event>
 6    1  0.1028026E-006  0.3253196E+04  0.7818608E-02  0.8174908E-01
          3   -1    0    0  501    0  0.00000000000E+00  0.00000000000E+00  0.10796003818E+04  0.10796003818E+04  0.00000000000E+00 0. -1.
         -3   -1    0    0    0  501 -0.00000000000E+00 -0.00000000000E+00 -0.24507417527E+04  0.24507417527E+04  0.00000000000E+00 0.  1.
         23    2    1    2    0    0  0.14928929576E+04  0.26281356426E+03 -0.13224321927E+04  0.20137100313E+04  0.91656060248E+02 0.  0.
         13    1    3    3    0    0  0.39553866216E+03  0.97072749097E+02 -0.31543068345E+03  0.51514121165E+03  0.00000000000E+00 0.  1.
        -13    1    3    3    0    0  0.10973542954E+04  0.16574081516E+03 -0.10070015093E+04  0.14985688196E+04  0.00000000000E+00 0. -1.
         22    1    1    2    0    0 -0.14928929576E+04 -0.26281356426E+03 -0.48709178226E+02  0.15166321032E+04  0.00000000000E+00 0. -1.
<mgrwt>
<rscale>  0 0.32531964E+04</rscale>
<asrwt>0</asrwt>
<pdfrwt beam="1">  1        3 0.16609237E+00 0.32531964E+04</pdfrwt>
<pdfrwt beam="2">  1       -3 0.37703719E+00 0.32531964E+04</pdfrwt>
<totfact> 0.76043643E-03</totfact>
</mgrwt>
</event>
<event>
 6    1  0.1028026E-006  0.3740832E+04  0.7818608E-02  0.8058973E-01
          2   -1    0    0  501    0  0.00000000000E+00  0.00000000000E+00  0.24016098878E+04  0.24016098878E+04  0.00000000000E+00 0. -1.
         -2   -1    0    0    0  501 -0.00000000000E+00 -0.00000000000E+00 -0.14567126137E+04  0.14567126137E+04  0.00000000000E+00 0.  1.
         23    2    1    2    0    0 -0.13398404027E+04  0.11450183271E+03 -0.86653876247E+03  0.16023119765E+04  0.90726339705E+02 0.  0.
         11    1    3    3    0    0 -0.70707146206E+02 -0.14265578597E+02 -0.46652850441E+02  0.85903991244E+02  0.00000000000E+00 0.  1.
        -11    1    3    3    0    0 -0.12691332565E+04  0.12876741130E+03 -0.81988591203E+03  0.15164079853E+04  0.00000000000E+00 0. -1.
         22    1    1    2    0    0  0.13398404027E+04 -0.11450183271E+03  0.18114360365E+04  0.22560105250E+04  0.00000000000E+00 0. -1.
<mgrwt>
<rscale>  0 0.37408317E+04</rscale>
<asrwt>0</asrwt>
<pdfrwt beam="1">  1        2 0.36947844E+00 0.37408317E+04</pdfrwt>
<pdfrwt beam="2">  1       -2 0.22410963E+00 0.37408317E+04</pdfrwt>
<totfact> 0.29756734E-01</totfact>
</mgrwt>
</event>
<event>
 6    1  0.1028026E-006  0.1206389E+04  0.7818608E-02  0.9107283E-01
          1   -1    0    0  501    0  0.00000000000E+00  0.00000000000E+00  0.34096621392E+03  0.34096621392E+03  0.00000000000E+00 0. -1.
         -1   -1    0    0    0  501 -0.00000000000E+00 -0.00000000000E+00 -0.10670956249E+04  0.10670956249E+04  0.00000000000E+00 0.  1.
         23    2    1    2    0    0  0.26751429719E+03  0.51891363851E+03 -0.20551173416E+03  0.62583551042E+03  0.92734835882E+02 0.  0.
         11    1    3    3    0    0  0.15268180699E+03  0.37385481972E+03 -0.16620853968E+03  0.43669719380E+03  0.00000000000E+00 0.  1.
        -11    1    3    3    0    0  0.11483249020E+03  0.14505881879E+03 -0.39303194485E+02  0.18913831661E+03  0.00000000000E+00 0. -1.
         22    1    1    2    0    0 -0.26751429719E+03 -0.51891363851E+03 -0.52061767678E+03  0.78222632838E+03  0.00000000000E+00 0.  1.
<mgrwt>
<rscale>  0 0.12063889E+04</rscale>
<asrwt>0</asrwt>
<pdfrwt beam="1">  1        1 0.52456341E-01 0.12063889E+04</pdfrwt>
<pdfrwt beam="2">  1       -1 0.16416856E+00 0.12063889E+04</pdfrwt>
<totfact> 0.19935790E+01</totfact>
</mgrwt>
</event>
<event>
 6    1  0.1028026E-006  0.2638542E+04  0.7818608E-02  0.8355226E-01
          2   -1    0    0  501    0  0.00000000000E+00  0.00000000000E+00  0.91972457416E+03  0.91972457416E+03  0.00000000000E+00 0. -1.
         -2   -1    0    0    0  501 -0.00000000000E+00 -0.00000000000E+00 -0.18923884316E+04  0.18923884316E+04  0.00000000000E+00 0.  1.
         23    2    1    2    0    0  0.52771733408E+03  0.11530881267E+04 -0.10510060857E+03  0.12756352795E+04  0.90007865324E+02 0.  0.
         11    1    3    3    0    0  0.18574434147E+03  0.36543220352E+03 -0.72768224228E+02  0.41633744753E+03  0.00000000000E+00 0.  1.
        -11    1    3    3    0    0  0.34197299260E+03  0.78765592315E+03 -0.32332384346E+02  0.85929783196E+03  0.00000000000E+00 0. -1.
         22    1    1    2    0    0 -0.52771733408E+03 -0.11530881267E+04 -0.86756324888E+03  0.15364777263E+04  0.00000000000E+00 0.  1.
<mgrwt>
<rscale>  0 0.26385421E+04</rscale>
<asrwt>0</asrwt>
<pdfrwt beam="1">  1        2 0.14149609E+00 0.26385421E+04</pdfrwt>
<pdfrwt beam="2">  1       -2 0.29113668E+00 0.26385421E+04</pdfrwt>
<totfact> 0.90295535E-01</totfact>
</mgrwt>
</event>
<event>
 6    1  0.1028026E-006  0.2218483E+04  0.7818608E-02  0.8510774E-01
          2   -1    0    0  501    0  0.00000000000E+00  0.00000000000E+00  0.14872231567E+04  0.14872231567E+04  0.00000000000E+00 0. -1.
         -2   -1    0    0    0  501 -0.00000000000E+00 -0.00000000000E+00 -0.82732468845E+03  0.82732468845E+03  0.00000000000E+00 0.  1.
         23    2    1    2    0    0  0.80071301185E+03  0.34301308057E+02 -0.46662539811E+03  0.93202336849E+03  0.92792188078E+02 0.  0.
         13    1    3    3    0    0  0.24699049898E+03 -0.13531721385E+02 -0.18547239011E+03  0.30917215522E+03  0.00000000000E+00 0. -1.
        -13    1    3    3    0    0  0.55372251287E+03  0.47833029442E+02 -0.28115300800E+03  0.62285121327E+03  0.00000000000E+00 0.  1.
         22    1    1    2    0    0 -0.80071301185E+03 -0.34301308057E+02  0.11265238663E+04  0.13825244766E+04  0.00000000000E+00 0. -1.
<mgrwt>
<rscale>  0 0.22184828E+04</rscale>
<asrwt>0</asrwt>
<pdfrwt beam="1">  1        2 0.22880356E+00 0.22184828E+04</pdfrwt>
<pdfrwt beam="2">  1       -2 0.12728072E+00 0.22184828E+04</pdfrwt>
<totfact> 0.53976869E+00</totfact>
</mgrwt>
</event>
<event>
 6    1  0.1028026E-006  0.5803970E+03  0.7818608E-02  0.9946932E-01
          4   -1    0    0  501    0  0.00000000000E+00  0.00000000000E+00  0.21130189641E+03  0.21130189641E+03  0.00000000000E+00 0. -1.
         -4   -1    0    0    0  501 -0.00000000000E+00 -0.00000000000E+00 -0.39855374237E+03  0.39855374237E+03  0.00000000000E+00 0.  1.
         23    2    1    2    0    0 -0.12677117907E+03  0.27206425394E+02  0.16852857048E+03  0.23118582727E+03  0.90740763928E+02 0.  0.
         11    1    3    3    0    0 -0.54852356428E+02  0.56894583632E+02  0.69458724452E+02  0.10521544114E+03  0.00000000000E+00 0.  1.
        -11    1    3    3    0    0 -0.71918822638E+02 -0.29688158237E+02  0.99069846033E+02  0.12597038613E+03  0.00000000000E+00 0. -1.
         22    1    1    2    0    0  0.12677117907E+03 -0.27206425394E+02 -0.35578041644E+03  0.37866981151E+03  0.00000000000E+00 0.  1.
<mgrwt>
<rscale>  0 0.58039697E+03</rscale>
<asrwt>0</asrwt>
<pdfrwt beam="1">  1        4 0.32507984E-01 0.58039697E+03</pdfrwt>
<pdfrwt beam="2">  1       -4 0.61315960E-01 0.58039697E+03</pdfrwt>
<totfact> 0.45291785E+01</totfact>
</mgrwt>
</event>
<event>
 6    1  0.1028026E-006  0.3589449E+04  0.7818608E-02  0.8092913E-01
          2   -1    0    0  501    0  0.00000000000E+00  0.00000000000E+00  0.20617784227E+04  0.20617784227E+04  0.00000000000E+00 0. -1.
         -2   -1    0    0    0  501 -0.00000000000E+00 -0.00000000000E+00 -0.15622612323E+04  0.15622612323E+04  0.00000000000E+00 0.  1.
         23    2    1    2    0    0  0.15672103647E+04  0.23260786242E+03  0.10986098800E+04  0.19301781508E+04  0.91593015002E+02 0.  0.
         11    1    3    3    0    0  0.13771065098E+04  0.20844014739E+03  0.10004472459E+04  0.17148656875E+04  0.00000000000E+00 0. -1.
        -11    1    3    3    0    0  0.19010385496E+03  0.24167715034E+02  0.98162634068E+02  0.21531246329E+03  0.00000000000E+00 0.  1.
         22    1    1    2    0    0 -0.15672103647E+04 -0.23260786242E+03 -0.59909268959E+03  0.16938615043E+04  0.00000000000E+00 0. -1.
<mgrwt>
<rscale>  0 0.35894493E+04</rscale>
<asrwt>0</asrwt>
<pdfrwt beam="1">  1        2 0.31719668E+00 0.35894493E+04</pdfrwt>
<pdfrwt beam="2">  1       -2 0.24034788E+00 0.35894493E+04</pdfrwt>
<totfact> 0.37112607E-01</totfact>
</mgrwt>
</event>
<event>
 6    1  0.1028026E-006  0.2179289E+04  0.7818608E-02  0.8527098E-01
         -2   -1    0    0    0  501 -0.00000000000E+00  0.00000000000E+00  0.57516454635E+03  0.57516454635E+03  0.00000000000E+00 0.  1.
          2   -1    0    0  501    0  0.00000000000E+00 -0.00000000000E+00 -0.20643234744E+04  0.20643234744E+04  0.00000000000E+00 0. -1.
         23    2    1    2    0    0  0.11189142306E+03 -0.48703511809E+03  0.42421387443E+03  0.66193438607E+03  0.92069665956E+02 0.  0.
         11    1    3    3    0    0  0.31123551791E+01 -0.44124258636E+02  0.89494163311E+01  0.45130134141E+02  0.00000000000E+00 0.  1.
        -11    1    3    3    0    0  0.10877906788E+03 -0.44291085945E+03  0.41526445810E+03  0.61680425192E+03  0.00000000000E+00 0. -1.
         22    1    1    2    0    0 -0.11189142306E+03  0.48703511809E+03 -0.19133728025E+04  0.19775536347E+04  0.00000000000E+00 0. -1.
<mgrwt>
<rscale>  0 0.21792895E+04</rscale>
<asrwt>0</asrwt>
<pdfrwt beam="1">  1        2 0.31758822E+00 0.21792895E+04</pdfrwt>
<pdfrwt beam="2">  1       -2 0.88486854E-01 0.21792895E+04</pdfrwt>
<totfact> 0.61891724E+00</totfact>
</mgrwt>
</event>
<event>
 6    1  0.1028026E-006  0.1231732E+04  0.7818608E-02  0.9085527E-01
          2   -1    0    0  501    0  0.00000000000E+00  0.00000000000E+00  0.56023454372E+03  0.56023454372E+03  0.00000000000E+00 0. -1.
         -2   -1    0    0    0  501 -0.00000000000E+00 -0.00000000000E+00 -0.67702121326E+03  0.67702121326E+03  0.00000000000E+00 0.  1.
         23    2    1    2    0    0  0.54893539751E+03  0.26633028061E+03 -0.17980296345E+02  0.61917438013E+03  0.10388326594E+03 0.  0.
         11    1    3    3    0    0  0.30504989462E+03  0.90428345174E+02 -0.57053750221E+01  0.31822205317E+03  0.00000000000E+00 0.  1.
        -11    1    3    3    0    0  0.24388550289E+03  0.17590193544E+03 -0.12274921323E+02  0.30095232696E+03  0.00000000000E+00 0. -1.
         22    1    1    2    0    0 -0.54893539751E+03 -0.26633028061E+03 -0.98806373197E+02  0.61808137684E+03  0.00000000000E+00 0.  1.
<mgrwt>
<rscale>  0 0.12317316E+04</rscale>
<asrwt>0</asrwt>
<pdfrwt beam="1">  1        2 0.86189930E-01 0.12317316E+04</pdfrwt>
<pdfrwt beam="2">  1       -2 0.10415711E+00 0.12317316E+04</pdfrwt>
<totfact> 0.39751375E+01</totfact>
</mgrwt>
</event>
<event>
 6    1  0.1028026E-006  0.1009363E+04  0.7818608E-02  0.9298335E-01
         -3   -1    0    0    0  501 -0.00000000000E+00  0.00000000000E+00  0.74577333325E+03  0.74577333325E+03  0.00000000000E+00 0.  1.
          3   -1    0    0  501    0  0.00000000000E+00 -0.00000000000E+00 -0.34152932511E+03  0.34152932511E+03  0.00000000000E+00 0. -1.
         23    2    1    2    0    0 -0.13676040783E+03 -0.47993882103E+03  0.24363312616E+03  0.56305029881E+03  0.92864728188E+02 0.  0.
         11    1    3    3    0    0 -0.67193995576E+02 -0.35201620819E+03  0.20299728928E+03  0.41187175592E+03  0.00000000000E+00 0. -1.
        -11    1    3    3    0    0 -0.69566412256E+02 -0.12792261284E+03  0.40635836877E+02  0.15117854288E+03  0.00000000000E+00 0.  1.
         22    1    1    2    0    0  0.13676040783E+03  0.47993882103E+03  0.16061088198E+03  0.52425235955E+03  0.00000000000E+00 0. -1.
<mgrwt>
<rscale>  0 0.10093631E+04</rscale>
<asrwt>0</asrwt>
<pdfrwt beam="1">  1        3 0.52542973E-01 0.10093631E+04</pdfrwt>
<pdfrwt beam="2">  1       -3 0.11473436E+00 0.10093631E+04</pdfrwt>
<totfact> 0.59045480E+00</totfact>
</mgrwt>
</event>
<event>
 6    1  0.1028026E-006  0.2896175E+04  0.7818608E-02  0.8274016E-01
         -2   -1    0    0    0  501 -0.00000000000E+00  0.00000000000E+00  0.10578568549E+04  0.10578568549E+04  0.00000000000E+00 0.  1.
          2   -1    0    0  501    0  0.00000000000E+00 -0.00000000000E+00 -0.19822697484E+04  0.19822697484E+04  0.00000000000E+00 0. -1.
         23    2    1    2    0    0 -0.76442438135E+03  0.87490681306E+02  0.82331554047E+03  0.11305313757E+04  0.90848545685E+02 0.  0.
         13    1    3    3    0    0 -0.31449392324E+03 -0.88755664466E+01  0.33215308990E+03  0.45750505852E+03  0.00000000000E+00 0. -1.
        -13    1    3    3    0    0 -0.44993045811E+03  0.96366247753E+02  0.49116245057E+03  0.67302631723E+03  0.00000000000E+00 0.  1.
         22    1    1    2    0    0  0.76442438135E+03 -0.87490681306E+02 -0.17477284340E+04  0.19095952275E+04  0.00000000000E+00 0. -1.
<mgrwt>
<rscale>  0 0.28961752E+04</rscale>
<asrwt>0</asrwt>
<pdfrwt beam="1">  1        2 0.30496457E+00 0.28961752E+04</pdfrwt>
<pdfrwt beam="2">  1       -2 0.16274721E+00 0.28961752E+04</pdfrwt>
<totfact> 0.14188529E+00</totfact>
</mgrwt>
</event>
<event>
 6    1  0.1028026E-006  0.1406520E+04  0.7818608E-02  0.8949113E-01
          2   -1    0    0  501    0  0.00000000000E+00  0.00000000000E+00  0.14537139072E+04  0.14537139072E+04  0.00000000000E+00 0. -1.
         -2   -1    0    0    0  501 -0.00000000000E+00 -0.00000000000E+00 -0.34021450114E+03  0.34021450114E+03  0.00000000000E+00 0.  1.
         23    2    1    2    0    0 -0.22014523370E+03  0.64353045862E+03  0.34703345556E+03  0.76920140648E+03  0.92968862334E+02 0.  0.
         11    1    3    3    0    0 -0.18549625394E+03  0.41577966845E+03  0.21259865871E+03  0.50247366359E+03  0.00000000000E+00 0.  1.
        -11    1    3    3    0    0 -0.34648979762E+02  0.22775079017E+03  0.13443479685E+03  0.26672774289E+03  0.00000000000E+00 0. -1.
         22    1    1    2    0    0  0.22014523370E+03 -0.64353045862E+03  0.76646595053E+03  0.10247270019E+04  0.00000000000E+00 0. -1.
<mgrwt>
<rscale>  0 0.14065199E+04</rscale>
<asrwt>0</asrwt>
<pdfrwt beam="1">  1        2 0.22364829E+00 0.14065199E+04</pdfrwt>
<pdfrwt beam="2">  1       -2 0.52340693E-01 0.14065199E+04</pdfrwt>
<totfact> 0.45184557E+01</totfact>
</mgrwt>
</event>
<event>
 6    1  0.1028026E-006  0.1967400E+04  0.7818608E-02  0.8622016E-01
         -2   -1    0    0    0  501 -0.00000000000E+00  0.00000000000E+00  0.20263363704E+04  0.20263363704E+04  0.00000000000E+00 0.  1.
          2   -1    0    0  501    0  0.00000000000E+00 -0.00000000000E+00 -0.47754450167E+03  0.47754450167E+03  0.00000000000E+00 0. -1.
         23    2    1    2    0    0 -0.30993054698E+02  0.48855731932E+03 -0.30731468686E+03  0.58430269721E+03  0.85548240818E+02 0.  0.
         11    1    3    3    0    0  0.24107891511E+02  0.16161659123E+03 -0.77225021116E+02  0.18073410547E+03  0.00000000000E+00 0. -1.
        -11    1    3    3    0    0 -0.55100946209E+02  0.32694072809E+03 -0.23008966574E+03  0.40356859174E+03  0.00000000000E+00 0.  1.
         22    1    1    2    0    0  0.30993054698E+02 -0.48855731932E+03  0.18561065556E+04  0.19195781748E+04  0.00000000000E+00 0.  1.
<mgrwt>
<rscale>  0 0.19674001E+04</rscale>
<asrwt>0</asrwt>
<pdfrwt beam="1">  1        2 0.73468386E-01 0.19674001E+04</pdfrwt>
<pdfrwt beam="2">  1       -2 0.31174405E+00 0.19674001E+04</pdfrwt>
<totfact> 0.16312909E+00</totfact>
</mgrwt>
</event>
<event>
 6    1  0.1028026E-006  0.2268729E+04  0.7818608E-02  0.8490354E-01
         -1   -1    0    0    0  501 -0.00000000000E+00  0.00000000000E+00  0.24380010495E+04  0.24380010495E+04  0.00000000000E+00 0.  1.
          1   -1    0    0  501    0  0.00000000000E+00 -0.00000000000E+00 -0.52780259957E+03  0.52780259957E+03  0.00000000000E+00 0. -1.
         23    2    1    2    0    0  0.17683606612E+03  0.70272102720E+03 -0.18042014691E+03  0.75316405940E+03  0.98065460841E+02 0.  0.
         13    1    3    3    0    0  0.16428666569E+03  0.65944083512E+03 -0.14274506274E+03  0.69442672506E+03  0.00000000000E+00 0.  1.
        -13    1    3    3    0    0  0.12549400437E+02  0.43280192082E+02 -0.37675084169E+02  0.58737334338E+02  0.00000000000E+00 0. -1.
         22    1    1    2    0    0 -0.17683606612E+03 -0.70272102720E+03  0.20906185968E+04  0.22126395897E+04  0.00000000000E+00 0.  1.
<mgrwt>
<rscale>  0 0.22687294E+04</rscale>
<asrwt>0</asrwt>
<pdfrwt beam="1">  1        1 0.81200401E-01 0.22687294E+04</pdfrwt>
<pdfrwt beam="2">  1       -1 0.37507708E+00 0.22687294E+04</pdfrwt>
<totfact> 0.39382224E-01</totfact>
</mgrwt>
</event>
<event>
 6    1  0.1028026E-006  0.1371868E+04  0.7818608E-02  0.8974437E-01
         -2   -1    0    0    0  501 -0.00000000000E+00  0.00000000000E+00  0.23196559194E+03  0.23196559194E+03  0.00000000000E+00 0.  1.
          2   -1    0    0  501    0  0.00000000000E+00 -0.00000000000E+00 -0.20283426764E+04  0.20283426764E+04  0.00000000000E+00 0. -1.
         23    2    1    2    0    0  0.12350555341E+03  0.32710872837E+03  0.64156070040E+02  0.36720569297E+03  0.92034111787E+02 0.  0.
         13    1    3    3    0    0  0.66232753386E+02  0.13312292526E+03 -0.16189900988E+02  0.14956805723E+03  0.00000000000E+00 0. -1.
        -13    1    3    3    0    0  0.57272800021E+02  0.19398580311E+03  0.80345971028E+02  0.21763763574E+03  0.00000000000E+00 0.  1.
         22    1    1    2    0    0 -0.12350555341E+03 -0.32710872837E+03 -0.18605331545E+04  0.18931025754E+04  0.00000000000E+00 0. -1.
<mgrwt>
<rscale>  0 0.13718684E+04</rscale>
<asrwt>0</asrwt>
<pdfrwt beam="1">  1        2 0.31205272E+00 0.13718684E+04</pdfrwt>
<pdfrwt beam="2">  1       -2 0.35687014E-01 0.13718684E+04</pdfrwt>
<totfact> 0.46410692E+01</totfact>
</mgrwt>
</event>
<event>
 6    1  0.1028026E-006  0.2361377E+04  0.7818608E-02  0.8454107E-01
          2   -1    0    0  501    0  0.00000000000E+00  0.00000000000E+00  0.13192491098E+04  0.13192491098E+04  0.00000000000E+00 0. -1.
         -2   -1    0    0    0  501 -0.00000000000E+00 -0.00000000000E+00 -0.10566804909E+04  0.10566804909E+04  0.00000000000E+00 0.  1.
         23    2    1    2    0    0 -0.21876482858E+03  0.95658621686E+03 -0.52608064612E+03  0.11170082751E+04  0.89618078523E+02 0.  0.
         11    1    3    3    0    0 -0.45945056348E+02  0.37654245526E+03 -0.22454026913E+03  0.44081005125E+03  0.00000000000E+00 0. -1.
        -11    1    3    3    0    0 -0.17281977223E+03  0.58004376160E+03 -0.30154037699E+03  0.67619822390E+03  0.00000000000E+00 0.  1.
         22    1    1    2    0    0  0.21876482858E+03 -0.95658621686E+03  0.78864926503E+03  0.12589213255E+04  0.00000000000E+00 0. -1.
<mgrwt>
<rscale>  0 0.23613765E+04</rscale>
<asrwt>0</asrwt>
<pdfrwt beam="1">  1        2 0.20296140E+00 0.23613765E+04</pdfrwt>
<pdfrwt beam="2">  1       -2 0.16256623E+00 0.23613765E+04</pdfrwt>
<totfact> 0.35051770E+00</totfact>
</mgrwt>
</event>
<event>
 6    1  0.1028026E-006  0.3212069E+04  0.7818608E-02  0.8185637E-01
          2   -1    0    0  501    0  0.00000000000E+00  0.00000000000E+00  0.28920504511E+04  0.28920504511E+04  0.00000000000E+00 0. -1.
         -2   -1    0    0    0  501 -0.00000000000E+00 -0.00000000000E+00 -0.89187480557E+03  0.89187480557E+03  0.00000000000E+00 0.  1.
         23    2    1    2    0    0 -0.12291423676E+03  0.90908036111E+03  0.25519599246E+04  0.27134109396E+04  0.92544354709E+02 0.  0.
         11    1    3    3    0    0 -0.53734489617E+02  0.42284256282E+03  0.10511590714E+04  0.11342921236E+04  0.00000000000E+00 0.  1.
        -11    1    3    3    0    0 -0.69179747142E+02  0.48623779829E+03  0.15008008532E+04  0.15791188159E+04  0.00000000000E+00 0. -1.
         22    1    1    2    0    0  0.12291423676E+03 -0.90908036111E+03 -0.55178427905E+03  0.10705143171E+04  0.00000000000E+00 0.  1.
<mgrwt>
<rscale>  0 0.32120691E+04</rscale>
<asrwt>0</asrwt>
<pdfrwt beam="1">  1        2 0.44493084E+00 0.32120691E+04</pdfrwt>
<pdfrwt beam="2">  1       -2 0.13721151E+00 0.32120691E+04</pdfrwt>
<totfact> 0.64638842E-01</totfact>
</mgrwt>
</event>
<event>
 6    1  0.1028026E-006  0.1283238E+04  0.7818608E-02  0.9042964E-01
         -1   -1    0    0    0  501 -0.00000000000E+00  0.00000000000E+00  0.33103776604E+03  0.33103776604E+03  0.00000000000E+00 0.  1.
          1   -1    0    0  501    0  0.00000000000E+00 -0.00000000000E+00 -0.12435888441E+04  0.12435888441E+04  0.00000000000E+00 0. -1.
         23    2    1    2    0    0 -0.73603585761E+02 -0.57003487162E+03 -0.79915287730E+03  0.98877987709E+03  0.93183052893E+02 0.  0.
         11    1    3    3    0    0 -0.91258815683E+02 -0.50390456564E+03 -0.72774641243E+03  0.88986674481E+03  0.00000000000E+00 0. -1.
        -11    1    3    3    0    0  0.17655229922E+02 -0.66130305988E+02 -0.71406464865E+02  0.98913132283E+02  0.00000000000E+00 0.  1.
         22    1    1    2    0    0  0.73603585761E+02  0.57003487162E+03 -0.11339820079E+03  0.58584673307E+03  0.00000000000E+00 0.  1.
<mgrwt>
<rscale>  0 0.12832379E+04</rscale>
<asrwt>0</asrwt>
<pdfrwt beam="1">  1        1 0.19132136E+00 0.12832379E+04</pdfrwt>
<pdfrwt beam="2">  1       -1 0.50928887E-01 0.12832379E+04</pdfrwt>
<totfact> 0.37856418E+01</totfact>
</mgrwt>
</event>
<event>
 6    1  0.1028026E-006  0.1636196E+04  0.7818608E-02  0.8798615E-01
          2   -1    0    0  501    0  0.00000000000E+00  0.00000000000E+00  0.29623792737E+04  0.29623792737E+04  0.00000000000E+00 0. -1.
         -2   -1    0    0    0  501 -0.00000000000E+00 -0.00000000000E+00 -0.22592799223E+03  0.22592799223E+03  0.00000000000E+00 0.  1.
         23    2    1    2    0    0 -0.35134091300E+03  0.69710605306E+03  0.91203989457E+03  0.12038994966E+04  0.90332398556E+02 0.  0.
         11    1    3    3    0    0 -0.98999836478E+02  0.11842879671E+03  0.16887451988E+03  0.22879018986E+03  0.00000000000E+00 0. -1.
        -11    1    3    3    0    0 -0.25234107652E+03  0.57867725635E+03  0.74316537468E+03  0.97510930672E+03  0.00000000000E+00 0.  1.
         22    1    1    2    0    0  0.35134091300E+03 -0.69710605306E+03  0.18244113869E+04  0.19844077693E+04  0.00000000000E+00 0.  1.
<mgrwt>
<rscale>  0 0.16361961E+04</rscale>
<asrwt>0</asrwt>
<pdfrwt beam="1">  1        2 0.45575063E+00 0.16361961E+04</pdfrwt>
<pdfrwt beam="2">  1       -2 0.34758155E-01 0.16361961E+04</pdfrwt>
<totfact> 0.13716388E+01</totfact>
</mgrwt>
</event>
<event>
 6    1  0.1447568E-006  0.4380101E+04  0.7818608E-02  0.7931970E-01
         -1   -1    0    0    0  501 -0.00000000000E+00  0.00000000000E+00  0.19589556448E+04  0.19589556448E+04  0.00000000000E+00 0.  1.
          1   -1    0    0  501    0  0.00000000000E+00 -0.00000000000E+00 -0.24484070358E+04  0.24484070358E+04  0.00000000000E+00 0. -1.
         23    2    1    2    0    0 -0.49078493047E+03 -0.38477544302E+03 -0.23562194782E+04  0.24391794877E+04  0.94362888342E+02 0.  0.
         11    1    3    3    0    0 -0.13350000272E+03 -0.95591013800E+02 -0.47346453335E+03  0.50112728621E+03  0.00000000000E+00 0.  1.
        -11    1    3    3    0    0 -0.35728492775E+03 -0.28918442922E+03 -0.18827549448E+04  0.19380522015E+04  0.00000000000E+00 0. -1.
         22    1    1    2    0    0  0.49078493047E+03  0.38477544302E+03  0.18667680871E+04  0.19681831928E+04  0.00000000000E+00 0.  1.
<mgrwt>
<rscale>  0 0.43801008E+04</rscale>
<asrwt>0</asrwt>
<pdfrwt beam="1">  1        1 0.37667801E+00 0.43801008E+04</pdfrwt>
<pdfrwt beam="2">  1       -1 0.30137779E+00 0.43801008E+04</pdfrwt>
<totfact> 0.36112990E-02</totfact>
</mgrwt>
</event>
<event>
 6    1  0.1028026E-006  0.4583631E+04  0.7818608E-02  0.7896157E-01
         -2   -1    0    0    0  501 -0.00000000000E+00  0.00000000000E+00  0.15375482488E+04  0.15375482488E+04  0.00000000000E+00 0.  1.
          2   -1    0    0  501    0  0.00000000000E+00 -0.00000000000E+00 -0.34160992771E+04  0.34160992771E+04  0.00000000000E+00 0. -1.
         23    2    1    2    0    0  0.83211712464E+03 -0.10557382618E+04 -0.29444707857E+04  0.32380755758E+04  0.90680982037E+02 0.  0.
         13    1    3    3    0    0  0.85600195463E+02 -0.11329512989E+03 -0.38309703253E+03  0.40856641597E+03  0.00000000000E+00 0. -1.
        -13    1    3    3    0    0  0.74651692918E+03 -0.94244313188E+03 -0.25613737532E+04  0.28295091599E+04  0.00000000000E+00 0.  1.
         22    1    1    2    0    0 -0.83211712464E+03  0.10557382618E+04  0.10659197574E+04  0.17155719500E+04  0.00000000000E+00 0.  1.
<mgrwt>
<rscale>  0 0.45836306E+04</rscale>
<asrwt>0</asrwt>
<pdfrwt beam="1">  1        2 0.52555373E+00 0.45836306E+04</pdfrwt>
<pdfrwt beam="2">  1       -2 0.23654589E+00 0.45836306E+04</pdfrwt>
<totfact> 0.54353501E-02</totfact>
</mgrwt>
</event>
<event>
 6    1  0.1028026E-006  0.2153048E+04  0.7818608E-02  0.8538228E-01
          2   -1    0    0  501    0  0.00000000000E+00  0.00000000000E+00  0.16482294935E+04  0.16482294935E+04  0.00000000000E+00 0. -1.
         -2   -1    0    0    0  501 -0.00000000000E+00 -0.00000000000E+00 -0.70312080796E+03  0.70312080796E+03  0.00000000000E+00 0.  1.
         23    2    1    2    0    0 -0.95781834807E+03  0.37882017799E+03  0.13879620078E+03  0.10432751743E+04  0.90763367177E+02 0.  0.
         11    1    3    3    0    0 -0.60383741024E+03  0.26418555842E+03  0.51619147625E+02  0.66111887258E+03  0.00000000000E+00 0.  1.
        -11    1    3    3    0    0 -0.35398093783E+03  0.11463461957E+03  0.87177053151E+02  0.38215630172E+03  0.00000000000E+00 0. -1.
         22    1    1    2    0    0  0.95781834807E+03 -0.37882017799E+03  0.80631248473E+03  0.13080751271E+04  0.00000000000E+00 0.  1.
<mgrwt>
<rscale>  0 0.21530485E+04</rscale>
<asrwt>0</asrwt>
<pdfrwt beam="1">  1        2 0.25357377E+00 0.21530485E+04</pdfrwt>
<pdfrwt beam="2">  1       -2 0.10817243E+00 0.21530485E+04</pdfrwt>
<totfact> 0.65804009E+00</totfact>
</mgrwt>
</event>
<event>
 6    1  0.1028026E-006  0.1907467E+04  0.7818608E-02  0.8651149E-01
          2   -1    0    0  501    0  0.00000000000E+00  0.00000000000E+00  0.22081881856E+04  0.22081881856E+04  0.00000000000E+00 0. -1.
         -2   -1    0    0    0  501 -0.00000000000E+00 -0.00000000000E+00 -0.41192475821E+03  0.41192475821E+03  0.00000000000E+00 0.  1.
         23    2    1    2    0    0 -0.22556976712E+03  0.42619173926E+03 -0.22662127318E+03  0.54054961698E+03  0.91189739059E+02 0.  0.
         13    1    3    3    0    0 -0.12900181671E+03  0.32837930955E+03 -0.17384983357E+03  0.39331692601E+03  0.00000000000E+00 0. -1.
        -13    1    3    3    0    0 -0.96567950407E+02  0.97812429709E+02 -0.52771439616E+02  0.14723269097E+03  0.00000000000E+00 0.  1.
         22    1    1    2    0    0  0.22556976712E+03 -0.42619173926E+03  0.20228847006E+04  0.20795633268E+04  0.00000000000E+00 0. -1.
<mgrwt>
<rscale>  0 0.19074668E+04</rscale>
<asrwt>0</asrwt>
<pdfrwt beam="1">  1        2 0.33972125E+00 0.19074668E+04</pdfrwt>
<pdfrwt beam="2">  1       -2 0.63373041E-01 0.19074668E+04</pdfrwt>
<totfact> 0.11025926E+01</totfact>
</mgrwt>
</event>
<event>
 6    1  0.1028026E-006  0.3562979E+04  0.7818608E-02  0.8099025E-01
          2   -1    0    0  501    0  0.00000000000E+00  0.00000000000E+00  0.23198359664E+04  0.23198359664E+04  0.00000000000E+00 0. -1.
         -2   -1    0    0    0  501 -0.00000000000E+00 -0.00000000000E+00 -0.13680732831E+04  0.13680732831E+04  0.00000000000E+00 0.  1.
         23    2    1    2    0    0  0.13347340974E+03 -0.14449217966E+04 -0.59151326979E+03  0.15695809424E+04  0.89901261458E+02 0.  0.
         13    1    3    3    0    0  0.91369226584E+02 -0.86687928446E+03 -0.30911067800E+03  0.92486617445E+03  0.00000000000E+00 0.  1.
        -13    1    3    3    0    0  0.42104183155E+02 -0.57804251218E+03 -0.28240259178E+03  0.64471476791E+03  0.00000000000E+00 0. -1.
         22    1    1    2    0    0 -0.13347340974E+03  0.14449217966E+04  0.15432759531E+04  0.21183283071E+04  0.00000000000E+00 0.  1.
<mgrwt>
<rscale>  0 0.35629794E+04</rscale>
<asrwt>0</asrwt>
<pdfrwt beam="1">  1        2 0.35689784E+00 0.35629794E+04</pdfrwt>
<pdfrwt beam="2">  1       -2 0.21047281E+00 0.35629794E+04</pdfrwt>
<totfact> 0.41063517E-01</totfact>
</mgrwt>
</event>
<event>
 6    1  0.1028026E-006  0.2407524E+04  0.7818608E-02  0.8436692E-01
          2   -1    0    0  501    0  0.00000000000E+00  0.00000000000E+00  0.20646224731E+04  0.20646224731E+04  0.00000000000E+00 0. -1.
         -2   -1    0    0    0  501 -0.00000000000E+00 -0.00000000000E+00 -0.70184378595E+03  0.70184378595E+03  0.00000000000E+00 0.  1.
         23    2    1    2    0    0  0.82338588473E+03  0.23054910518E+03  0.16529473266E+04  0.18635182847E+04  0.96686750621E+02 0.  0.
         13    1    3    3    0    0  0.63750744072E+03  0.13992084734E+03  0.12931201912E+04  0.14485004002E+04  0.00000000000E+00 0. -1.
        -13    1    3    3    0    0  0.18587844401E+03  0.90628257845E+02  0.35982713545E+03  0.41501788453E+03  0.00000000000E+00 0.  1.
         22    1    1    2    0    0 -0.82338588473E+03 -0.23054910518E+03 -0.29016863946E+03  0.90294797436E+03  0.00000000000E+00 0.  1.
<mgrwt>
<rscale>  0 0.24075236E+04</rscale>
<asrwt>0</asrwt>
<pdfrwt beam="1">  1        2 0.31763422E+00 0.24075236E+04</pdfrwt>
<pdfrwt beam="2">  1       -2 0.10797597E+00 0.24075236E+04</pdfrwt>
<totfact> 0.37975665E+00</totfact>
</mgrwt>
</event>
<event>
 6    1  0.1028026E-006  0.1034526E+04  0.7818608E-02  0.9271467E-01
         -2   -1    0    0    0  501 -0.00000000000E+00  0.00000000000E+00  0.11783387879E+03  0.11783387879E+03  0.00000000000E+00 0.  1.
          2   -1    0    0  501    0  0.00000000000E+00 -0.00000000000E+00 -0.22706622374E+04  0.22706622374E+04  0.00000000000E+00 0. -1.
         23    2    1    2    0    0  0.34077856410E+03 -0.37530964493E+03 -0.90018618023E+03  0.10371635197E+04  0.91573184831E+02 0.  0.
         11    1    3    3    0    0  0.48916894847E+02 -0.80758343775E+02 -0.23572916942E+03  0.25393505864E+03  0.00000000000E+00 0.  1.
        -11    1    3    3    0    0  0.29186166925E+03 -0.29455130115E+03 -0.66445701080E+03  0.78322846105E+03  0.00000000000E+00 0. -1.
         22    1    1    2    0    0 -0.34077856410E+03  0.37530964493E+03 -0.12526421784E+04  0.13513325965E+04  0.00000000000E+00 0. -1.
<mgrwt>
<rscale>  0 0.10345259E+04</rscale>
<asrwt>0</asrwt>
<pdfrwt beam="1">  1        2 0.34933264E+00 0.10345259E+04</pdfrwt>
<pdfrwt beam="2">  1       -2 0.18128290E-01 0.10345259E+04</pdfrwt>
<totfact> 0.11995526E+02</totfact>
</mgrwt>
</event>
<event>
 6    1  0.1028026E-006  0.1888921E+04  0.7818608E-02  0.8660391E-01
         -2   -1    0    0    0  501 -0.00000000000E+00  0.00000000000E+00  0.76753612743E+03  0.76753612743E+03  0.00000000000E+00 0.  1.
          2   -1    0    0  501    0  0.00000000000E+00 -0.00000000000E+00 -0.11621681115E+04  0.11621681115E+04  0.00000000000E+00 0. -1.
         23    2    1    2    0    0 -0.59716863730E+03  0.67965178195E+03 -0.46709345679E+03  0.10220767872E+04  0.89037832194E+02 0.  0.
         13    1    3    3    0    0 -0.42130573750E+03  0.48128672746E+03 -0.37489016446E+03  0.74140277440E+03  0.00000000000E+00 0.  1.
        -13    1    3    3    0    0 -0.17586289980E+03  0.19836505448E+03 -0.92203292329E+02  0.28067401284E+03  0.00000000000E+00 0. -1.
         22    1    1    2    0    0  0.59716863730E+03 -0.67965178195E+03  0.72461472699E+02  0.90762745172E+03  0.00000000000E+00 0.  1.
<mgrwt>
<rscale>  0 0.18889214E+04</rscale>
<asrwt>0</asrwt>
<pdfrwt beam="1">  1        2 0.17879509E+00 0.18889214E+04</pdfrwt>
<pdfrwt beam="2">  1       -2 0.11808248E+00 0.18889214E+04</pdfrwt>
<totfact> 0.10341921E+01</totfact>
</mgrwt>
</event>
<event>
 6    1  0.1028026E-006  0.2245282E+04  0.7818608E-02  0.8499813E-01
          2   -1    0    0  501    0  0.00000000000E+00  0.00000000000E+00  0.13253783571E+04  0.13253783571E+04  0.00000000000E+00 0. -1.
         -2   -1    0    0    0  501 -0.00000000000E+00 -0.00000000000E+00 -0.95091579304E+03  0.95091579304E+03  0.00000000000E+00 0.  1.
         23    2    1    2    0    0 -0.17113103148E+03  0.22991409482E+03  0.12860433720E+04  0.13207179415E+04  0.90785491160E+02 0.  0.
         13    1    3    3    0    0 -0.12606895028E+03  0.95607719205E+02  0.72520186655E+03  0.74226138486E+03  0.00000000000E+00 0. -1.
        -13    1    3    3    0    0 -0.45062081191E+02  0.13430637562E+03  0.56084150548E+03  0.57845655667E+03  0.00000000000E+00 0.  1.
         22    1    1    2    0    0  0.17113103148E+03 -0.22991409482E+03 -0.91158080799E+03  0.95557620859E+03  0.00000000000E+00 0.  1.
<mgrwt>
<rscale>  0 0.22452824E+04</rscale>
<asrwt>0</asrwt>
<pdfrwt beam="1">  1        2 0.20390436E+00 0.22452824E+04</pdfrwt>
<pdfrwt beam="2">  1       -2 0.14629474E+00 0.22452824E+04</pdfrwt>
<totfact> 0.46584683E+00</totfact>
</mgrwt>
</event>
<event>
 6    1  0.1028026E-006  0.2919529E+04  0.7818608E-02  0.8267091E-01
         -2   -1    0    0    0  501 -0.00000000000E+00  0.00000000000E+00  0.81184488590E+03  0.81184488590E+03  0.00000000000E+00 0.  1.
          2   -1    0    0  501    0  0.00000000000E+00 -0.00000000000E+00 -0.26247781799E+04  0.26247781799E+04  0.00000000000E+00 0. -1.
         23    2    1    2    0    0 -0.52232120172E+03 -0.12407531734E+04 -0.24730856417E+03  0.13718062047E+04  0.91667127304E+02 0.  0.
         11    1    3    3    0    0 -0.25302623482E+03 -0.65964084574E+03 -0.89296465449E+02  0.71212511515E+03  0.00000000000E+00 0. -1.
        -11    1    3    3    0    0 -0.26929496690E+03 -0.58111232770E+03 -0.15801209873E+03  0.65968108958E+03  0.00000000000E+00 0.  1.
         22    1    1    2    0    0  0.52232120172E+03  0.12407531734E+04 -0.15656247298E+04  0.20648168611E+04  0.00000000000E+00 0. -1.
<mgrwt>
<rscale>  0 0.29195292E+04</rscale>
<asrwt>0</asrwt>
<pdfrwt beam="1">  1        2 0.40381202E+00 0.29195292E+04</pdfrwt>
<pdfrwt beam="2">  1       -2 0.12489922E+00 0.29195292E+04</pdfrwt>
<totfact> 0.12179063E+00</totfact>
</mgrwt>
</event>
<event>
 6    1  0.1028026E-006  0.5751222E+04  0.7818608E-02  0.7722036E-01
         -1   -1    0    0    0  501 -0.00000000000E+00  0.00000000000E+00  0.35973690539E+04  0.35973690539E+04  0.00000000000E+00 0.  1.
          1   -1    0    0  501    0  0.00000000000E+00 -0.00000000000E+00 -0.22986631490E+04  0.22986631490E+04  0.00000000000E+00 0. -1.
         23    2    1    2    0    0  0.50401044633E+03 -0.58949068547E+03 -0.21884080186E+04  0.23237095252E+04  0.94712740101E+02 0.  0.
         11    1    3    3    0    0  0.22365172822E+03 -0.31366877305E+03 -0.11814538739E+04  0.12426751188E+04  0.00000000000E+00 0.  1.
        -11    1    3    3    0    0  0.28035871811E+03 -0.27582191242E+03 -0.10069541447E+04  0.10810344063E+04  0.00000000000E+00 0. -1.
         22    1    1    2    0    0 -0.50401044633E+03  0.58949068547E+03  0.34871139235E+04  0.35723226777E+04  0.00000000000E+00 0.  1.
<mgrwt>
<rscale>  0 0.57512224E+04</rscale>
<asrwt>0</asrwt>
<pdfrwt beam="1">  1        1 0.35364049E+00 0.57512224E+04</pdfrwt>
<pdfrwt beam="2">  1       -1 0.55344139E+00 0.57512224E+04</pdfrwt>
<totfact> 0.92900704E-04</totfact>
</mgrwt>
</event>
<event>
 6    1  0.1028026E-006  0.2768320E+04  0.7818608E-02  0.8313172E-01
         -2   -1    0    0    0  501 -0.00000000000E+00  0.00000000000E+00  0.97999742878E+03  0.97999742878E+03  0.00000000000E+00 0.  1.
          2   -1    0    0  501    0  0.00000000000E+00 -0.00000000000E+00 -0.19550041031E+04  0.19550041031E+04  0.00000000000E+00 0. -1.
         23    2    1    2    0    0  0.84885623650E+00 -0.12959897545E+04  0.22796863728E+02  0.12993970367E+04  0.91229368072E+02 0.  0.
         11    1    3    3    0    0 -0.63290060206E+01 -0.45161393286E+03  0.50940190686E+02  0.45452184072E+03  0.00000000000E+00 0.  1.
        -11    1    3    3    0    0  0.71778622571E+01 -0.84437582163E+03 -0.28143326958E+02  0.84487519594E+03  0.00000000000E+00 0. -1.
         22    1    1    2    0    0 -0.84885623650E+00  0.12959897545E+04 -0.99780353808E+03  0.16356044952E+04  0.00000000000E+00 0. -1.
<mgrwt>
<rscale>  0 0.27683201E+04</rscale>
<asrwt>0</asrwt>
<pdfrwt beam="1">  1        2 0.30076986E+00 0.27683201E+04</pdfrwt>
<pdfrwt beam="2">  1       -2 0.15076884E+00 0.27683201E+04</pdfrwt>
<totfact> 0.18252196E+00</totfact>
</mgrwt>
</event>
<event>
 6    1  0.1028026E-006  0.1140238E+04  0.7818608E-02  0.9166837E-01
          1   -1    0    0  501    0  0.00000000000E+00  0.00000000000E+00  0.79690454144E+03  0.79690454144E+03  0.00000000000E+00 0. -1.
         -1   -1    0    0    0  501 -0.00000000000E+00 -0.00000000000E+00 -0.40787298767E+03  0.40787298767E+03  0.00000000000E+00 0.  1.
         23    2    1    2    0    0 -0.49907295233E+03 -0.13712216644E+03  0.43885492303E+03  0.68481727256E+03  0.92221217995E+02 0.  0.
         11    1    3    3    0    0 -0.43070631788E+03 -0.10738344105E+03  0.33105477862E+03  0.55374759784E+03  0.00000000000E+00 0.  1.
        -11    1    3    3    0    0 -0.68366634450E+02 -0.29738725394E+02  0.10780014441E+03  0.13106967471E+03  0.00000000000E+00 0. -1.
         22    1    1    2    0    0  0.49907295233E+03  0.13712216644E+03 -0.49823369257E+02  0.51996025656E+03  0.00000000000E+00 0.  1.
<mgrwt>
<rscale>  0 0.11402383E+04</rscale>
<asrwt>0</asrwt>
<pdfrwt beam="1">  1        1 0.12260070E+00 0.11402383E+04</pdfrwt>
<pdfrwt beam="2">  1       -1 0.62749691E-01 0.11402383E+04</pdfrwt>
<totfact> 0.56963621E+01</totfact>
</mgrwt>
</event>
<event>
 6    1  0.1028026E-006  0.3194878E+04  0.7818608E-02  0.8190171E-01
          2   -1    0    0  501    0  0.00000000000E+00  0.00000000000E+00  0.20955639112E+04  0.20955639112E+04  0.00000000000E+00 0. -1.
         -2   -1    0    0    0  501 -0.00000000000E+00 -0.00000000000E+00 -0.12177203892E+04  0.12177203892E+04  0.00000000000E+00 0.  1.
         23    2    1    2    0    0  0.54283817765E+03 -0.97825555073E+03 -0.74138109306E+03  0.13451517938E+04  0.90167696761E+02 0.  0.
         13    1    3    3    0    0  0.10431656507E+03 -0.17330693060E+03 -0.17627654089E+03  0.26831074673E+03  0.00000000000E+00 0. -1.
        -13    1    3    3    0    0  0.43852161258E+03 -0.80494862014E+03 -0.56510455217E+03  0.10768410471E+04  0.00000000000E+00 0.  1.
         22    1    1    2    0    0 -0.54283817765E+03  0.97825555073E+03  0.16192246150E+04  0.19681325066E+04  0.00000000000E+00 0. -1.
<mgrwt>
<rscale>  0 0.31948777E+04</rscale>
<asrwt>0</asrwt>
<pdfrwt beam="1">  1        2 0.32239445E+00 0.31948777E+04</pdfrwt>
<pdfrwt beam="2">  1       -2 0.18734160E+00 0.31948777E+04</pdfrwt>
<totfact> 0.80418129E-01</totfact>
</mgrwt>
</event>
<event>
 6    1  0.1028026E-006  0.2994936E+04  0.7818608E-02  0.8245178E-01
          2   -1    0    0  501    0  0.00000000000E+00  0.00000000000E+00  0.26382727129E+04  0.26382727129E+04  0.00000000000E+00 0. -1.
         -2   -1    0    0    0  501 -0.00000000000E+00 -0.00000000000E+00 -0.84995411076E+03  0.84995411076E+03  0.00000000000E+00 0.  1.
         23    2    1    2    0    0  0.35226043088E+03 -0.13778612747E+04  0.14357910563E+04  0.20230084870E+04  0.92077562598E+02 0.  0.
         13    1    3    3    0    0  0.30243634275E+03 -0.10545728176E+04  0.11368401021E+04  0.15798724590E+04  0.00000000000E+00 0. -1.
        -13    1    3    3    0    0  0.49824088134E+02 -0.32328845713E+03  0.29895095428E+03  0.44313602803E+03  0.00000000000E+00 0.  1.
         22    1    1    2    0    0 -0.35226043088E+03  0.13778612747E+04  0.35252754583E+03  0.14652183367E+04  0.00000000000E+00 0. -1.
<mgrwt>
<rscale>  0 0.29949362E+04</rscale>
<asrwt>0</asrwt>
<pdfrwt beam="1">  1        2 0.40588811E+00 0.29949362E+04</pdfrwt>
<pdfrwt beam="2">  1       -2 0.13076217E+00 0.29949362E+04</pdfrwt>
<totfact> 0.10584203E+00</totfact>
</mgrwt>
</event>
<event>
 6    1  0.1028026E-006  0.4383646E+04  0.7818608E-02  0.7931330E-01
         -2   -1    0    0    0  501 -0.00000000000E+00  0.00000000000E+00  0.27010195201E+04  0.27010195201E+04  0.00000000000E+00 0.  1.
          2   -1    0    0  501    0  0.00000000000E+00 -0.00000000000E+00 -0.17786203950E+04  0.17786203950E+04  0.00000000000E+00 0. -1.
         23    2    1    2    0    0  0.11282073031E+04 -0.15859846411E+04  0.14894593342E+04  0.24523865315E+04  0.86669437123E+02 0.  0.
         13    1    3    3    0    0  0.19201522366E+03 -0.29903798494E+03  0.30900231862E+03  0.47093098801E+03  0.00000000000E+00 0.  1.
        -13    1    3    3    0    0  0.93619207943E+03 -0.12869466561E+04  0.11804570155E+04  0.19814555435E+04  0.00000000000E+00 0. -1.
         22    1    1    2    0    0 -0.11282073031E+04  0.15859846411E+04 -0.56706020905E+03  0.20272533836E+04  0.00000000000E+00 0. -1.
<mgrwt>
<rscale>  0 0.43836462E+04</rscale>
<asrwt>0</asrwt>
<pdfrwt beam="1">  1        2 0.27363391E+00 0.43836462E+04</pdfrwt>
<pdfrwt beam="2">  1       -2 0.41554147E+00 0.43836462E+04</pdfrwt>
<totfact> 0.39802657E-02</totfact>
</mgrwt>
</event>
<event>
 6    1  0.1028026E-006  0.9884515E+03  0.7818608E-02  0.9321302E-01
         -2   -1    0    0    0  501 -0.00000000000E+00  0.00000000000E+00  0.26172297136E+03  0.26172297136E+03  0.00000000000E+00 0.  1.
          2   -1    0    0  501    0  0.00000000000E+00 -0.00000000000E+00 -0.93327336509E+03  0.93327336509E+03  0.00000000000E+00 0. -1.
         23    2    1    2    0    0 -0.70310963334E+02 -0.25997428811E+03  0.15583251877E+03  0.32488556997E+03  0.93469768499E+02 0.  0.
         11    1    3    3    0    0 -0.51356855762E+02 -0.80298379382E+02  0.94143278501E+02  0.13397131503E+03  0.00000000000E+00 0. -1.
        -11    1    3    3    0    0 -0.18954107572E+02 -0.17967590873E+03  0.61689240265E+02  0.19091425493E+03  0.00000000000E+00 0.  1.
         22    1    1    2    0    0  0.70310963334E+02  0.25997428811E+03 -0.82738291250E+03  0.87011076647E+03  0.00000000000E+00 0. -1.
<mgrwt>
<rscale>  0 0.98845147E+03</rscale>
<asrwt>0</asrwt>
<pdfrwt beam="1">  1        2 0.14358052E+00 0.98845147E+03</pdfrwt>
<pdfrwt beam="2">  1       -2 0.40265072E-01 0.98845147E+03</pdfrwt>
<totfact> 0.16229820E+02</totfact>
</mgrwt>
</event>
<event>
 6    1  0.1028026E-006  0.1754269E+04  0.7818608E-02  0.8731004E-01
          2   -1    0    0  501    0  0.00000000000E+00  0.00000000000E+00  0.18777404075E+04  0.18777404075E+04  0.00000000000E+00 0. -1.
         -2   -1    0    0    0  501 -0.00000000000E+00 -0.00000000000E+00 -0.40972921828E+03  0.40972921828E+03  0.00000000000E+00 0.  1.
         23    2    1    2    0    0  0.63570823741E+03 -0.26050223169E+03  0.30081518891E+02  0.69384855644E+03  0.92382604781E+02 0.  0.
         11    1    3    3    0    0  0.52767557515E+03 -0.22532838042E+03 -0.85798985392E+01  0.57383621905E+03  0.00000000000E+00 0.  1.
        -11    1    3    3    0    0  0.10803266226E+03 -0.35173851272E+02  0.38661417430E+02  0.12001233739E+03  0.00000000000E+00 0. -1.
         22    1    1    2    0    0 -0.63570823741E+03  0.26050223169E+03  0.14379296703E+04  0.15936210694E+04  0.00000000000E+00 0. -1.
<mgrwt>
<rscale>  0 0.17542692E+04</rscale>
<asrwt>0</asrwt>
<pdfrwt beam="1">  1        2 0.28888313E+00 0.17542692E+04</pdfrwt>
<pdfrwt beam="2">  1       -2 0.63035265E-01 0.17542692E+04</pdfrwt>
<totfact> 0.17259638E+01</totfact>
</mgrwt>
</event>
<event>
 6    1  0.1028026E-006  0.1673387E+04  0.7818608E-02  0.8776690E-01
         -2   -1    0    0    0  501 -0.00000000000E+00  0.00000000000E+00  0.67218526826E+03  0.67218526826E+03  0.00000000000E+00 0.  1.
          2   -1    0    0  501    0  0.00000000000E+00 -0.00000000000E+00 -0.10414631677E+04  0.10414631677E+04  0.00000000000E+00 0. -1.
         23    2    1    2    0    0  0.74140905152E+03 -0.16010465693E+03  0.16897123995E+03  0.78357692318E+03  0.10060135070E+03 0.  0.
         11    1    3    3    0    0  0.52899290045E+03 -0.15535400249E+03  0.10106471517E+03  0.56051978687E+03  0.00000000000E+00 0.  1.
        -11    1    3    3    0    0  0.21241615107E+03 -0.47506544416E+01  0.67906524780E+02  0.22305713631E+03  0.00000000000E+00 0. -1.
         22    1    1    2    0    0 -0.74140905152E+03  0.16010465693E+03 -0.53824913941E+03  0.93007151280E+03  0.00000000000E+00 0. -1.
<mgrwt>
<rscale>  0 0.16733872E+04</rscale>
<asrwt>0</asrwt>
<pdfrwt beam="1">  1        2 0.16022510E+00 0.16733872E+04</pdfrwt>
<pdfrwt beam="2">  1       -2 0.10341312E+00 0.16733872E+04</pdfrwt>
<totfact> 0.17233319E+01</totfact>
</mgrwt>
</event>
<event>
 6    1  0.1028026E-006  0.2500651E+04  0.7818608E-02  0.8402754E-01
          1   -1    0    0  501    0  0.00000000000E+00  0.00000000000E+00  0.27058682899E+04  0.27058682899E+04  0.00000000000E+00 0. -1.
         -1   -1    0    0    0  501 -0.00000000000E+00 -0.00000000000E+00 -0.57774949158E+03  0.57774949158E+03  0.00000000000E+00 0.  1.
         23    2    1    2    0    0  0.52627715025E+03  0.65976621801E+03 -0.14306500838E+03  0.86069909009E+03  0.89867823770E+02 0.  0.
         13    1    3    3    0    0  0.12963779806E+03  0.21870733289E+03 -0.64920867487E+02  0.26239964783E+03  0.00000000000E+00 0.  1.
        -13    1    3    3    0    0  0.39663935219E+03  0.44105888513E+03 -0.78144140891E+02  0.59829944226E+03  0.00000000000E+00 0. -1.
         22    1    1    2    0    0 -0.52627715025E+03 -0.65976621801E+03  0.22711838067E+04  0.24229186914E+04  0.00000000000E+00 0. -1.
<mgrwt>
<rscale>  0 0.25006511E+04</rscale>
<asrwt>0</asrwt>
<pdfrwt beam="1">  1        1 0.41628742E+00 0.25006511E+04</pdfrwt>
<pdfrwt beam="2">  1       -1 0.88884539E-01 0.25006511E+04</pdfrwt>
<totfact> 0.10719134E+00</totfact>
</mgrwt>
</event>
<event>
 6    1  0.1028026E-006  0.2313485E+04  0.7818608E-02  0.8472623E-01
         -1   -1    0    0    0  501 -0.00000000000E+00  0.00000000000E+00  0.62481228441E+03  0.62481228441E+03  0.00000000000E+00 0.  1.
          1   -1    0    0  501    0  0.00000000000E+00 -0.00000000000E+00 -0.21415280773E+04  0.21415280773E+04  0.00000000000E+00 0. -1.
         23    2    1    2    0    0 -0.49878602898E+03 -0.95691560739E+03 -0.12515108539E+04  0.16551209225E+04  0.93117497217E+02 0.  0.
         13    1    3    3    0    0 -0.31604142540E+03 -0.67269109384E+03 -0.90589774965E+03  0.11717705505E+04  0.00000000000E+00 0.  1.
        -13    1    3    3    0    0 -0.18274460358E+03 -0.28422451355E+03 -0.34561310429E+03  0.48335037199E+03  0.00000000000E+00 0. -1.
         22    1    1    2    0    0  0.49878602898E+03  0.95691560739E+03 -0.26520493896E+03  0.11112194392E+04  0.00000000000E+00 0.  1.
<mgrwt>
<rscale>  0 0.23134849E+04</rscale>
<asrwt>0</asrwt>
<pdfrwt beam="1">  1        1 0.32946585E+00 0.23134849E+04</pdfrwt>
<pdfrwt beam="2">  1       -1 0.96124969E-01 0.23134849E+04</pdfrwt>
<totfact> 0.22475260E+00</totfact>
</mgrwt>
</event>
<event>
 6    1  0.1028026E-006  0.2312030E+04  0.7818608E-02  0.8473193E-01
         -1   -1    0    0    0  501 -0.00000000000E+00  0.00000000000E+00  0.75669105009E+03  0.75669105009E+03  0.00000000000E+00 0.  1.
          1   -1    0    0  501    0  0.00000000000E+00 -0.00000000000E+00 -0.17660723999E+04  0.17660723999E+04  0.00000000000E+00 0. -1.
         23    2    1    2    0    0  0.66969024792E+03  0.82734795058E+03 -0.99199842699E+03  0.14582016502E+04  0.96444356991E+02 0.  0.
         13    1    3    3    0    0  0.23331099692E+03  0.28235856843E+03 -0.40493580864E+03  0.54601592611E+03  0.00000000000E+00 0.  1.
        -13    1    3    3    0    0  0.43637925100E+03  0.54498938214E+03 -0.58706261836E+03  0.91218572409E+03  0.00000000000E+00 0. -1.
         22    1    1    2    0    0 -0.66969024792E+03 -0.82734795058E+03 -0.17382922783E+02  0.10645617998E+04  0.00000000000E+00 0.  1.
<mgrwt>
<rscale>  0 0.23120304E+04</rscale>
<asrwt>0</asrwt>
<pdfrwt beam="1">  1        1 0.27170345E+00 0.23120304E+04</pdfrwt>
<pdfrwt beam="2">  1       -1 0.11641401E+00 0.23120304E+04</pdfrwt>
<totfact> 0.25854088E+00</totfact>
</mgrwt>
</event>
<event>
 6    1  0.1028026E-006  0.1251865E+04  0.7818608E-02  0.9068632E-01
         -2   -1    0    0    0  501 -0.00000000000E+00  0.00000000000E+00  0.14146978289E+03  0.14146978289E+03  0.00000000000E+00 0.  1.
          2   -1    0    0  501    0  0.00000000000E+00 -0.00000000000E+00 -0.27694361809E+04  0.27694361809E+04  0.00000000000E+00 0. -1.
         23    2    1    2    0    0  0.50316341340E+03  0.18266947122E+03 -0.58969575155E+03  0.80351687192E+03  0.10656794903E+03 0.  0.
         13    1    3    3    0    0  0.34935290068E+03  0.17729890611E+03 -0.41548057021E+03  0.57105731371E+03  0.00000000000E+00 0. -1.
        -13    1    3    3    0    0  0.15381051272E+03  0.53705651171E+01 -0.17421518134E+03  0.23245955821E+03  0.00000000000E+00 0.  1.
         22    1    1    2    0    0 -0.50316341340E+03 -0.18266947122E+03 -0.20382706464E+04  0.21073890918E+04  0.00000000000E+00 0. -1.
<mgrwt>
<rscale>  0 0.12518651E+04</rscale>
<asrwt>0</asrwt>
<pdfrwt beam="1">  1        2 0.42606707E+00 0.12518651E+04</pdfrwt>
<pdfrwt beam="2">  1       -2 0.21764584E-01 0.12518651E+04</pdfrwt>
<totfact> 0.44066745E+01</totfact>
</mgrwt>
</event>
<event>
 6    1  0.1028026E-006  0.2725417E+04  0.7818608E-02  0.8326805E-01
          1   -1    0    0  501    0  0.00000000000E+00  0.00000000000E+00  0.22909496861E+04  0.22909496861E+04  0.00000000000E+00 0. -1.
         -1   -1    0    0    0  501 -0.00000000000E+00 -0.00000000000E+00 -0.81056985061E+03  0.81056985061E+03  0.00000000000E+00 0.  1.
         23    2    1    2    0    0 -0.64169883298E+03 -0.84680510178E+03  0.17092753912E+04  0.20146665347E+04  0.91665754419E+02 0.  0.
         13    1    3    3    0    0 -0.44737446350E+03 -0.55619621794E+03  0.10742548675E+04  0.12897758192E+04  0.00000000000E+00 0. -1.
        -13    1    3    3    0    0 -0.19432436948E+03 -0.29060888384E+03  0.63502052363E+03  0.72489071547E+03  0.00000000000E+00 0.  1.
         22    1    1    2    0    0  0.64169883298E+03  0.84680510178E+03 -0.22889555565E+03  0.10868530020E+04  0.00000000000E+00 0.  1.
<mgrwt>
<rscale>  0 0.27254172E+04</rscale>
<asrwt>0</asrwt>
<pdfrwt beam="1">  1        1 0.35245380E+00 0.27254172E+04</pdfrwt>
<pdfrwt beam="2">  1       -1 0.12470305E+00 0.27254172E+04</pdfrwt>
<totfact> 0.92569821E-01</totfact>
</mgrwt>
</event>
<event>
 6    1  0.1028026E-006  0.2312182E+04  0.7818608E-02  0.8473133E-01
          2   -1    0    0  501    0  0.00000000000E+00  0.00000000000E+00  0.30134257880E+04  0.30134257880E+04  0.00000000000E+00 0. -1.
         -2   -1    0    0    0  501 -0.00000000000E+00 -0.00000000000E+00 -0.44353045330E+03  0.44353045330E+03  0.00000000000E+00 0.  1.
         23    2    1    2    0    0  0.84163739082E+03 -0.19408512909E+03  0.24320925136E+04  0.25823065100E+04  0.84913969322E+02 0.  0.
         13    1    3    3    0    0  0.34535576211E+03 -0.37266529878E+02  0.95854398612E+03  0.10195420393E+04  0.00000000000E+00 0. -1.
        -13    1    3    3    0    0  0.49628162870E+03 -0.15681859922E+03  0.14735485274E+04  0.15627644707E+04  0.00000000000E+00 0.  1.
         22    1    1    2    0    0 -0.84163739082E+03  0.19408512909E+03  0.13780282116E+03  0.87464973131E+03  0.00000000000E+00 0.  1.
<mgrwt>
<rscale>  0 0.23121817E+04</rscale>
<asrwt>0</asrwt>
<pdfrwt beam="1">  1        2 0.46360396E+00 0.23121817E+04</pdfrwt>
<pdfrwt beam="2">  1       -2 0.68235456E-01 0.23121817E+04</pdfrwt>
<totfact> 0.30421538E+00</totfact>
</mgrwt>
</event>
<event>
 6    1  0.1028026E-006  0.3553871E+03  0.7818608E-02  0.1060425E+00
         -2   -1    0    0    0  501 -0.00000000000E+00  0.00000000000E+00  0.14091077545E+03  0.14091077545E+03  0.00000000000E+00 0.  1.
          2   -1    0    0  501    0  0.00000000000E+00 -0.00000000000E+00 -0.22407792885E+03  0.22407792885E+03  0.00000000000E+00 0. -1.
         23    2    1    2    0    0  0.15489811395E+03  0.58650343141E+02 -0.39677637093E+02  0.19374435699E+03  0.92354060675E+02 0.  0.
         13    1    3    3    0    0  0.10083697713E+03  0.25092092496E+01 -0.54133656319E+02  0.11447639423E+03  0.00000000000E+00 0. -1.
        -13    1    3    3    0    0  0.54061136820E+02  0.56141133891E+02  0.14456019227E+02  0.79267962764E+02  0.00000000000E+00 0.  1.
         22    1    1    2    0    0 -0.15489811395E+03 -0.58650343141E+02 -0.43489516312E+02  0.17124434731E+03  0.00000000000E+00 0. -1.
<mgrwt>
<rscale>  0 0.35538708E+03</rscale>
<asrwt>0</asrwt>
<pdfrwt beam="1">  1        2 0.34473527E-01 0.35538708E+03</pdfrwt>
<pdfrwt beam="2">  1       -2 0.21678581E-01 0.35538708E+03</pdfrwt>
<totfact> 0.27604063E+03</totfact>
</mgrwt>
</event>
<event>
 6    1  0.1028026E-006  0.1943197E+04  0.7818608E-02  0.8633648E-01
         -2   -1    0    0    0  501 -0.00000000000E+00  0.00000000000E+00  0.68546986107E+03  0.68546986107E+03  0.00000000000E+00 0.  1.
          2   -1    0    0  501    0  0.00000000000E+00 -0.00000000000E+00 -0.13771635715E+04  0.13771635715E+04  0.00000000000E+00 0. -1.
         23    2    1    2    0    0  0.74226022771E+03 -0.18818649264E+03  0.28472829555E+03  0.82176102358E+03  0.88637328124E+02 0.  0.
         11    1    3    3    0    0  0.42279899829E+03 -0.62125523528E+02  0.15181248465E+03  0.45350369803E+03  0.00000000000E+00 0.  1.
        -11    1    3    3    0    0  0.31946122942E+03 -0.12606096912E+03  0.13291581090E+03  0.36825732555E+03  0.00000000000E+00 0. -1.
         22    1    1    2    0    0 -0.74226022771E+03  0.18818649264E+03 -0.97642200602E+03  0.12408724090E+04  0.00000000000E+00 0. -1.
<mgrwt>
<rscale>  0 0.19431975E+04</rscale>
<asrwt>0</asrwt>
<pdfrwt beam="1">  1        2 0.21187132E+00 0.19431975E+04</pdfrwt>
<pdfrwt beam="2">  1       -2 0.10545690E+00 0.19431975E+04</pdfrwt>
<totfact> 0.10127552E+01</totfact>
</mgrwt>
</event>
<event>
 6    1  0.1796398E-006  0.2270273E+04  0.7818608E-02  0.8489735E-01
         -1   -1    0    0    0  501 -0.00000000000E+00  0.00000000000E+00  0.95358340535E+03  0.95358340535E+03  0.00000000000E+00 0.  1.
          1   -1    0    0  501    0  0.00000000000E+00 -0.00000000000E+00 -0.13512554779E+04  0.13512554779E+04  0.00000000000E+00 0. -1.
         23    2    1    2    0    0  0.36374604793E+03 -0.10680811826E+04 -0.91257047995E+02  0.11356516582E+04  0.90929863266E+02 0.  0.
         13    1    3    3    0    0  0.26571820153E+03 -0.75905117671E+03 -0.24181015066E+02  0.80458037074E+03  0.00000000000E+00 0.  1.
        -13    1    3    3    0    0  0.98027846400E+02 -0.30903000584E+03 -0.67076032929E+02  0.33107128745E+03  0.00000000000E+00 0. -1.
         22    1    1    2    0    0 -0.36374604793E+03  0.10680811826E+04 -0.30641502454E+03  0.11691872250E+04  0.00000000000E+00 0. -1.
<mgrwt>
<rscale>  0 0.22702729E+04</rscale>
<asrwt>0</asrwt>
<pdfrwt beam="1">  1        1 0.20788546E+00 0.22702729E+04</pdfrwt>
<pdfrwt beam="2">  1       -1 0.14670514E+00 0.22702729E+04</pdfrwt>
<totfact> 0.27912912E+00</totfact>
</mgrwt>
</event>
<event>
 6    1  0.1028026E-006  0.1088413E+04  0.7818608E-02  0.9216560E-01
         -1   -1    0    0    0  501 -0.00000000000E+00  0.00000000000E+00  0.24401035985E+03  0.24401035985E+03  0.00000000000E+00 0.  1.
          1   -1    0    0  501    0  0.00000000000E+00 -0.00000000000E+00 -0.12137213997E+04  0.12137213997E+04  0.00000000000E+00 0. -1.
         23    2    1    2    0    0 -0.43558374265E+03 -0.19616076111E+03 -0.15002522362E+03  0.50899729809E+03  0.91424508097E+02 0.  0.
         11    1    3    3    0    0 -0.38237383068E+03 -0.17047878307E+03 -0.97311626487E+02  0.42981660568E+03  0.00000000000E+00 0.  1.
        -11    1    3    3    0    0 -0.53209911965E+02 -0.25681978035E+02 -0.52713597138E+02  0.79180692408E+02  0.00000000000E+00 0. -1.
         22    1    1    2    0    0  0.43558374265E+03  0.19616076111E+03 -0.81968581624E+03  0.94873446148E+03  0.00000000000E+00 0. -1.
<mgrwt>
<rscale>  0 0.10884128E+04</rscale>
<asrwt>0</asrwt>
<pdfrwt beam="1">  1        1 0.18672637E+00 0.10884128E+04</pdfrwt>
<pdfrwt beam="2">  1       -1 0.37540055E-01 0.10884128E+04</pdfrwt>
<totfact> 0.71150125E+01</totfact>
</mgrwt>
</event>
<event>
 6    1  0.1028026E-006  0.5716853E+03  0.7818608E-02  0.9965956E-01
         -1   -1    0    0    0  501 -0.00000000000E+00  0.00000000000E+00  0.17482797530E+03  0.17482797530E+03  0.00000000000E+00 0.  1.
          1   -1    0    0  501    0  0.00000000000E+00 -0.00000000000E+00 -0.46735100471E+03  0.46735100471E+03  0.00000000000E+00 0. -1.
         23    2    1    2    0    0  0.40988302333E+02  0.10850512471E+03  0.13347585319E+03  0.20067195743E+03  0.94868477904E+02 0.  0.
         13    1    3    3    0    0 -0.28397807064E+02  0.14479409179E+02  0.39223482368E+02  0.50542757199E+02  0.00000000000E+00 0. -1.
        -13    1    3    3    0    0  0.69386109397E+02  0.94025715526E+02  0.94252370822E+02  0.15012920023E+03  0.00000000000E+00 0.  1.
         22    1    1    2    0    0 -0.40988302333E+02 -0.10850512471E+03 -0.42599888259E+03  0.44150702258E+03  0.00000000000E+00 0. -1.
<mgrwt>
<rscale>  0 0.57168533E+03</rscale>
<asrwt>0</asrwt>
<pdfrwt beam="1">  1        1 0.71900154E-01 0.57168533E+03</pdfrwt>
<pdfrwt beam="2">  1       -1 0.26896612E-01 0.57168533E+03</pdfrwt>
<totfact> 0.60583355E+02</totfact>
</mgrwt>
</event>
<event>
 6    1  0.1028026E-006  0.5090588E+04  0.7818608E-02  0.7814683E-01
         -1   -1    0    0    0  501 -0.00000000000E+00  0.00000000000E+00  0.24390507836E+04  0.24390507836E+04  0.00000000000E+00 0.  1.
          1   -1    0    0  501    0  0.00000000000E+00 -0.00000000000E+00 -0.26561649242E+04  0.26561649242E+04  0.00000000000E+00 0. -1.
         23    2    1    2    0    0 -0.94547253403E+03 -0.19931976707E+04 -0.13778270993E+04  0.26024241322E+04  0.86305161933E+02 0.  0.
         11    1    3    3    0    0 -0.72030548901E+03 -0.15182925252E+04 -0.10056670770E+04  0.19584224415E+04  0.00000000000E+00 0. -1.
        -11    1    3    3    0    0 -0.22516704501E+03 -0.47490514556E+03 -0.37216002228E+03  0.64400169070E+03  0.00000000000E+00 0.  1.
         22    1    1    2    0    0  0.94547253403E+03  0.19931976707E+04  0.11607129587E+04  0.24927915757E+04  0.00000000000E+00 0.  1.
<mgrwt>
<rscale>  0 0.50905878E+04</rscale>
<asrwt>0</asrwt>
<pdfrwt beam="1">  1        1 0.40864076E+00 0.50905878E+04</pdfrwt>
<pdfrwt beam="2">  1       -1 0.37523858E+00 0.50905878E+04</pdfrwt>
<totfact> 0.79601780E-03</totfact>
</mgrwt>
</event>
<event>
 6    1  0.1028026E-006  0.2668772E+04  0.7818608E-02  0.8345209E-01
          2   -1    0    0  501    0  0.00000000000E+00  0.00000000000E+00  0.15716020915E+04  0.15716020915E+04  0.00000000000E+00 0. -1.
         -2   -1    0    0    0  501 -0.00000000000E+00 -0.00000000000E+00 -0.11329752613E+04  0.11329752613E+04  0.00000000000E+00 0.  1.
         23    2    1    2    0    0 -0.64917572957E+03  0.94227962815E+03  0.91212700588E+03  0.14662226209E+04  0.92266319655E+02 0.  0.
         11    1    3    3    0    0 -0.37005975023E+03  0.58553894273E+03  0.59682475864E+03  0.91433028208E+03  0.00000000000E+00 0. -1.
        -11    1    3    3    0    0 -0.27911597935E+03  0.35674068541E+03  0.31530224724E+03  0.55189233884E+03  0.00000000000E+00 0.  1.
         22    1    1    2    0    0  0.64917572957E+03 -0.94227962815E+03 -0.47350017566E+03  0.12383547318E+04  0.00000000000E+00 0.  1.
<mgrwt>
<rscale>  0 0.26687722E+04</rscale>
<asrwt>0</asrwt>
<pdfrwt beam="1">  1        2 0.24178494E+00 0.26687722E+04</pdfrwt>
<pdfrwt beam="2">  1       -2 0.17430389E+00 0.26687722E+04</pdfrwt>
<totfact> 0.20221391E+00</totfact>
</mgrwt>
</event>
<event>
 6    1  0.1028026E-006  0.1890209E+04  0.7818608E-02  0.8659745E-01
          1   -1    0    0  501    0  0.00000000000E+00  0.00000000000E+00  0.12183411070E+04  0.12183411070E+04  0.00000000000E+00 0. -1.
         -1   -1    0    0    0  501 -0.00000000000E+00 -0.00000000000E+00 -0.73314642263E+03  0.73314642263E+03  0.00000000000E+00 0.  1.
         23    2    1    2    0    0 -0.34006313836E+03 -0.64303255682E+03 -0.37615507388E+03  0.82407579773E+03  0.92056904141E+02 0.  0.
         11    1    3    3    0    0 -0.11588773126E+03 -0.26698988436E+03 -0.19466648737E+03  0.35015511693E+03  0.00000000000E+00 0.  1.
        -11    1    3    3    0    0 -0.22417540710E+03 -0.37604267246E+03 -0.18148858652E+03  0.47392068080E+03  0.00000000000E+00 0. -1.
         22    1    1    2    0    0  0.34006313836E+03  0.64303255682E+03  0.86134975830E+03  0.11274117319E+04  0.00000000000E+00 0. -1.
<mgrwt>
<rscale>  0 0.18902089E+04</rscale>
<asrwt>0</asrwt>
<pdfrwt beam="1">  1        1 0.18743709E+00 0.18902089E+04</pdfrwt>
<pdfrwt beam="2">  1       -1 0.11279176E+00 0.18902089E+04</pdfrwt>
<totfact> 0.69766866E+00</totfact>
</mgrwt>
</event>
<event>
 6    1  0.1028026E-006  0.2793695E+04  0.7818608E-02  0.8305229E-01
         -1   -1    0    0    0  501 -0.00000000000E+00  0.00000000000E+00  0.70792112573E+03  0.70792112573E+03  0.00000000000E+00 0.  1.
          1   -1    0    0  501    0  0.00000000000E+00 -0.00000000000E+00 -0.27562142239E+04  0.27562142239E+04  0.00000000000E+00 0. -1.
         23    2    1    2    0    0 -0.31405062627E+03  0.31948138499E+03 -0.26638443668E+04  0.27028210153E+04  0.92078658761E+02 0.  0.
         13    1    3    3    0    0 -0.79661369051E+02  0.69579576521E+02 -0.88345955028E+03  0.88976852505E+03  0.00000000000E+00 0.  1.
        -13    1    3    3    0    0 -0.23438925722E+03  0.24990180847E+03 -0.17803848165E+04  0.18130524903E+04  0.00000000000E+00 0. -1.
         22    1    1    2    0    0  0.31405062627E+03 -0.31948138499E+03  0.61555126863E+03  0.76131433425E+03  0.00000000000E+00 0.  1.
<mgrwt>
<rscale>  0 0.27936945E+04</rscale>
<asrwt>0</asrwt>
<pdfrwt beam="1">  1        1 0.42403296E+00 0.27936945E+04</pdfrwt>
<pdfrwt beam="2">  1       -1 0.10891094E+00 0.27936945E+04</pdfrwt>
<totfact> 0.60567036E-01</totfact>
</mgrwt>
</event>
<event>
 6    1  0.1028026E-006  0.3314983E+04  0.7818608E-02  0.8159093E-01
          1   -1    0    0  501    0  0.00000000000E+00  0.00000000000E+00  0.34847627463E+04  0.34847627463E+04  0.00000000000E+00 0. -1.
         -1   -1    0    0    0  501 -0.00000000000E+00 -0.00000000000E+00 -0.78836896847E+03  0.78836896847E+03  0.00000000000E+00 0.  1.
         23    2    1    2    0    0 -0.12144291545E+04  0.22973072009E+03  0.27702861467E+04  0.30349578752E+04  0.94178524248E+02 0.  0.
         11    1    3    3    0    0 -0.65888937833E+03  0.17232814144E+03  0.15226806224E+04  0.16680493035E+04  0.00000000000E+00 0. -1.
        -11    1    3    3    0    0 -0.55553977614E+03  0.57402578652E+02  0.12476055243E+04  0.13669085716E+04  0.00000000000E+00 0.  1.
         22    1    1    2    0    0  0.12144291545E+04 -0.22973072009E+03 -0.73892368838E+02  0.12381738396E+04  0.00000000000E+00 0.  1.
<mgrwt>
<rscale>  0 0.33149834E+04</rscale>
<asrwt>0</asrwt>
<pdfrwt beam="1">  1        1 0.53611734E+00 0.33149834E+04</pdfrwt>
<pdfrwt beam="2">  1       -1 0.12128754E+00 0.33149834E+04</pdfrwt>
<totfact> 0.12818742E-01</totfact>
</mgrwt>
</event>
<event>
 6    1  0.1028026E-006  0.2722995E+04  0.7818608E-02  0.8327582E-01
          1   -1    0    0  501    0  0.00000000000E+00  0.00000000000E+00  0.14759131205E+04  0.14759131205E+04  0.00000000000E+00 0. -1.
         -1   -1    0    0    0  501 -0.00000000000E+00 -0.00000000000E+00 -0.12559515870E+04  0.12559515870E+04  0.00000000000E+00 0.  1.
         23    2    1    2    0    0  0.32500892455E+03  0.49539769304E+03 -0.11180271620E+04  0.12685590578E+04  0.90596207891E+02 0.  0.
         11    1    3    3    0    0  0.10474473062E+03  0.16622032023E+03 -0.46505356473E+03  0.50485193029E+03  0.00000000000E+00 0. -1.
        -11    1    3    3    0    0  0.22026419393E+03  0.32917737281E+03 -0.65297359726E+03  0.76370712752E+03  0.00000000000E+00 0.  1.
         22    1    1    2    0    0 -0.32500892455E+03 -0.49539769304E+03  0.13379886955E+04  0.14633056498E+04  0.00000000000E+00 0. -1.
<mgrwt>
<rscale>  0 0.27229950E+04</rscale>
<asrwt>0</asrwt>
<pdfrwt beam="1">  1        1 0.22706356E+00 0.27229950E+04</pdfrwt>
<pdfrwt beam="2">  1       -1 0.19322332E+00 0.27229950E+04</pdfrwt>
<totfact> 0.99387028E-01</totfact>
</mgrwt>
</event>
<event>
 6    1  0.1028026E-006  0.2660487E+04  0.7818608E-02  0.8347941E-01
          2   -1    0    0  501    0  0.00000000000E+00  0.00000000000E+00  0.19392373707E+04  0.19392373707E+04  0.00000000000E+00 0. -1.
         -2   -1    0    0    0  501 -0.00000000000E+00 -0.00000000000E+00 -0.91249670469E+03  0.91249670469E+03  0.00000000000E+00 0.  1.
         23    2    1    2    0    0  0.19318622706E+03  0.12399700996E+04  0.98201305988E+03  0.15960082594E+04  0.89699209699E+02 0.  0.
         13    1    3    3    0    0  0.54600515302E+02  0.60765922232E+03  0.44982228952E+03  0.75800464305E+03  0.00000000000E+00 0. -1.
        -13    1    3    3    0    0  0.13858571176E+03  0.63231087724E+03  0.53219077036E+03  0.83800361637E+03  0.00000000000E+00 0.  1.
         22    1    1    2    0    0 -0.19318622706E+03 -0.12399700996E+04  0.44727606120E+02  0.12557258160E+04  0.00000000000E+00 0.  1.
<mgrwt>
<rscale>  0 0.26604870E+04</rscale>
<asrwt>0</asrwt>
<pdfrwt beam="1">  1        2 0.29834421E+00 0.26604870E+04</pdfrwt>
<pdfrwt beam="2">  1       -2 0.14038411E+00 0.26604870E+04</pdfrwt>
<totfact> 0.22668947E+00</totfact>
</mgrwt>
</event>
<event>
 6    1  0.1028026E-006  0.5229243E+04  0.7818608E-02  0.7794086E-01
         -2   -1    0    0    0  501 -0.00000000000E+00  0.00000000000E+00  0.15135140495E+04  0.15135140495E+04  0.00000000000E+00 0.  1.
          2   -1    0    0  501    0  0.00000000000E+00 -0.00000000000E+00 -0.45168026984E+04  0.45168026984E+04  0.00000000000E+00 0. -1.
         23    2    1    2    0    0 -0.12643898907E+04  0.12348410231E+04  0.71864586702E+03  0.19100848748E+04  0.91968465805E+02 0.  0.
         13    1    3    3    0    0 -0.59257369653E+03  0.53197692417E+03  0.35732102344E+03  0.87282377801E+03  0.00000000000E+00 0. -1.
        -13    1    3    3    0    0 -0.67181619417E+03  0.70286409895E+03  0.36132484358E+03  0.10372610968E+04  0.00000000000E+00 0.  1.
         22    1    1    2    0    0  0.12643898907E+04 -0.12348410231E+04 -0.37219345159E+04  0.41202318732E+04  0.00000000000E+00 0. -1.
<mgrwt>
<rscale>  0 0.52292425E+04</rscale>
<asrwt>0</asrwt>
<pdfrwt beam="1">  1        2 0.69489271E+00 0.52292425E+04</pdfrwt>
<pdfrwt beam="2">  1       -2 0.23284832E+00 0.52292425E+04</pdfrwt>
<totfact> 0.68789168E-03</totfact>
</mgrwt>
</event>
<event>
 6    1  0.1028026E-006  0.2237208E+04  0.7818608E-02  0.8503099E-01
          2   -1    0    0  501    0  0.00000000000E+00  0.00000000000E+00  0.17246187541E+04  0.17246187541E+04  0.00000000000E+00 0. -1.
         -2   -1    0    0    0  501 -0.00000000000E+00 -0.00000000000E+00 -0.72553730576E+03  0.72553730576E+03  0.00000000000E+00 0.  1.
         23    2    1    2    0    0 -0.48696637461E+03 -0.47304978809E+03 -0.47077510808E+03  0.83108513849E+03  0.90337993232E+02 0.  0.
         11    1    3    3    0    0 -0.12870496700E+03 -0.96317524613E+02 -0.73361513350E+02  0.17670298730E+03  0.00000000000E+00 0. -1.
        -11    1    3    3    0    0 -0.35826140761E+03 -0.37673226347E+03 -0.39741359473E+03  0.65438215119E+03  0.00000000000E+00 0.  1.
         22    1    1    2    0    0  0.48696637461E+03  0.47304978809E+03  0.14698565564E+04  0.16190709214E+04  0.00000000000E+00 0. -1.
<mgrwt>
<rscale>  0 0.22372083E+04</rscale>
<asrwt>0</asrwt>
<pdfrwt beam="1">  1        2 0.26532596E+00 0.22372083E+04</pdfrwt>
<pdfrwt beam="2">  1       -2 0.11162112E+00 0.22372083E+04</pdfrwt>
<totfact> 0.54911844E+00</totfact>
</mgrwt>
</event>
<event>
 6    1  0.1028026E-006  0.5074813E+04  0.7818608E-02  0.7817069E-01
         -2   -1    0    0    0  501 -0.00000000000E+00  0.00000000000E+00  0.17742863272E+04  0.17742863272E+04  0.00000000000E+00 0.  1.
          2   -1    0    0  501    0  0.00000000000E+00 -0.00000000000E+00 -0.36287445161E+04  0.36287445161E+04  0.00000000000E+00 0. -1.
         23    2    1    2    0    0  0.17482348205E+04  0.14143574187E+04 -0.21771341522E+04  0.31312800488E+04  0.90938067215E+02 0.  0.
         13    1    3    3    0    0  0.10812580272E+04  0.93091678820E+03 -0.13752898250E+04  0.19817030784E+04  0.00000000000E+00 0.  1.
        -13    1    3    3    0    0  0.66697679330E+03  0.48344063046E+03 -0.80184432715E+03  0.11495769704E+04  0.00000000000E+00 0. -1.
         22    1    1    2    0    0 -0.17482348205E+04 -0.14143574187E+04  0.32267596331E+03  0.22717507946E+04  0.00000000000E+00 0.  1.
<mgrwt>
<rscale>  0 0.50748130E+04</rscale>
<asrwt>0</asrwt>
<pdfrwt beam="1">  1        2 0.55826839E+00 0.50748130E+04</pdfrwt>
<pdfrwt beam="2">  1       -2 0.27296713E+00 0.50748130E+04</pdfrwt>
<totfact> 0.22086552E-02</totfact>
</mgrwt>
</event>
<event>
 6    1  0.1028026E-006  0.2138064E+04  0.7818608E-02  0.8544659E-01
         -2   -1    0    0    0  501 -0.00000000000E+00  0.00000000000E+00  0.50418526876E+03  0.50418526876E+03  0.00000000000E+00 0.  1.
          2   -1    0    0  501    0  0.00000000000E+00 -0.00000000000E+00 -0.22666846498E+04  0.22666846498E+04  0.00000000000E+00 0. -1.
         23    2    1    2    0    0  0.16870987421E+03 -0.55187400797E+03  0.28050777837E+03  0.64792239313E+03  0.89949271628E+02 0.  0.
         13    1    3    3    0    0  0.50861535099E+02 -0.27067661915E+03  0.96632714125E+02  0.29187430402E+03  0.00000000000E+00 0.  1.
        -13    1    3    3    0    0  0.11784833911E+03 -0.28119738882E+03  0.18387506425E+03  0.35604808912E+03  0.00000000000E+00 0. -1.
         22    1    1    2    0    0 -0.16870987421E+03  0.55187400797E+03 -0.20430071594E+04  0.21229475254E+04  0.00000000000E+00 0. -1.
<mgrwt>
<rscale>  0 0.21380636E+04</rscale>
<asrwt>0</asrwt>
<pdfrwt beam="1">  1        2 0.34872072E+00 0.21380636E+04</pdfrwt>
<pdfrwt beam="2">  1       -2 0.77566964E-01 0.21380636E+04</pdfrwt>
<totfact> 0.64442605E+00</totfact>
</mgrwt>
</event>
<event>
 6    1  0.1587522E-006  0.2733013E+04  0.7818608E-02  0.8324372E-01
          2   -1    0    0  501    0  0.00000000000E+00  0.00000000000E+00  0.15743984837E+04  0.15743984837E+04  0.00000000000E+00 0. -1.
         -2   -1    0    0    0  501 -0.00000000000E+00 -0.00000000000E+00 -0.11860656314E+04  0.11860656314E+04  0.00000000000E+00 0.  1.
         23    2    1    2    0    0  0.13157565501E+04  0.98509401411E+01 -0.17255779710E+03  0.13301107808E+04  0.90034191808E+02 0.  0.
         13    1    3    3    0    0  0.10776778100E+04 -0.92209713382E+01 -0.17143081566E+03  0.10912667011E+04  0.00000000000E+00 0.  1.
        -13    1    3    3    0    0  0.23807874011E+03  0.19071911479E+02 -0.11269814450E+01  0.23884407966E+03  0.00000000000E+00 0. -1.
         22    1    1    2    0    0 -0.13157565501E+04 -0.98509401411E+01  0.56089064943E+03  0.14303533342E+04  0.00000000000E+00 0. -1.
<mgrwt>
<rscale>  0 0.27330129E+04</rscale>
<asrwt>0</asrwt>
<pdfrwt beam="1">  1        2 0.24221515E+00 0.27330129E+04</pdfrwt>
<pdfrwt beam="2">  1       -2 0.18247163E+00 0.27330129E+04</pdfrwt>
<totfact> 0.17586349E+00</totfact>
</mgrwt>
</event>
<event>
 6    1  0.1028026E-006  0.1159593E+04  0.7818608E-02  0.9148979E-01
          2   -1    0    0  501    0  0.00000000000E+00  0.00000000000E+00  0.36420372294E+04  0.36420372294E+04  0.00000000000E+00 0. -1.
         -2   -1    0    0    0  501 -0.00000000000E+00 -0.00000000000E+00 -0.92301152321E+02  0.92301152321E+02  0.00000000000E+00 0.  1.
         23    2    1    2    0    0 -0.25567402667E+03 -0.51569545015E+03  0.18669730367E+04  0.19558551922E+04  0.92033732933E+02 0.  0.
         13    1    3    3    0    0 -0.81434002981E+02 -0.19497575662E+03  0.54843583092E+03  0.58773199942E+03  0.00000000000E+00 0. -1.
        -13    1    3    3    0    0 -0.17424002368E+03 -0.32071969354E+03  0.13185372058E+04  0.13681231928E+04  0.00000000000E+00 0.  1.
         22    1    1    2    0    0  0.25567402667E+03  0.51569545015E+03  0.16827630404E+04  0.17784831895E+04  0.00000000000E+00 0.  1.
<mgrwt>
<rscale>  0 0.11595934E+04</rscale>
<asrwt>0</asrwt>
<pdfrwt beam="1">  1        2 0.56031331E+00 0.11595934E+04</pdfrwt>
<pdfrwt beam="2">  1       -2 0.14200180E-01 0.11595934E+04</pdfrwt>
<totfact> 0.25329414E+01</totfact>
</mgrwt>
</event>
<event>
 6    1  0.1028026E-006  0.3158763E+04  0.7818608E-02  0.8199794E-01
          1   -1    0    0  501    0  0.00000000000E+00  0.00000000000E+00  0.15169914613E+04  0.15169914613E+04  0.00000000000E+00 0. -1.
         -1   -1    0    0    0  501 -0.00000000000E+00 -0.00000000000E+00 -0.16443370526E+04  0.16443370526E+04  0.00000000000E+00 0.  1.
         23    2    1    2    0    0 -0.54819537048E+03 -0.14795792663E+04 -0.90549697494E+02  0.15830297756E+04  0.90061385827E+02 0.  0.
         11    1    3    3    0    0 -0.25204421277E+03 -0.58877981892E+03 -0.67529808727E+02  0.64400949948E+03  0.00000000000E+00 0.  1.
        -11    1    3    3    0    0 -0.29615115771E+03 -0.89079944740E+03 -0.23019888767E+02  0.93902027613E+03  0.00000000000E+00 0. -1.
         22    1    1    2    0    0  0.54819537048E+03  0.14795792663E+04 -0.36795893735E+02  0.15782987383E+04  0.00000000000E+00 0. -1.
<mgrwt>
<rscale>  0 0.31587626E+04</rscale>
<asrwt>0</asrwt>
<pdfrwt beam="1">  1        1 0.23338330E+00 0.31587626E+04</pdfrwt>
<pdfrwt beam="2">  1       -1 0.25297493E+00 0.31587626E+04</pdfrwt>
<totfact> 0.35636891E-01</totfact>
</mgrwt>
</event>
<event>
 6    1  0.1028026E-006  0.2420711E+04  0.7818608E-02  0.8431790E-01
          1   -1    0    0  501    0  0.00000000000E+00  0.00000000000E+00  0.26389211134E+04  0.26389211134E+04  0.00000000000E+00 0. -1.
         -1   -1    0    0    0  501 -0.00000000000E+00 -0.00000000000E+00 -0.55513623669E+03  0.55513623669E+03  0.00000000000E+00 0.  1.
         23    2    1    2    0    0 -0.79270468802E+03 -0.91098385497E+03  0.97922873812E+03  0.15575010358E+04  0.92995960341E+02 0.  0.
         13    1    3    3    0    0 -0.41515012066E+03 -0.46762068507E+03  0.56615615915E+03  0.84353513521E+03  0.00000000000E+00 0. -1.
        -13    1    3    3    0    0 -0.37755456737E+03 -0.44336316990E+03  0.41307257897E+03  0.71396590063E+03  0.00000000000E+00 0.  1.
         22    1    1    2    0    0  0.79270468802E+03  0.91098385497E+03  0.11045561386E+04  0.16365563143E+04  0.00000000000E+00 0. -1.
<mgrwt>
<rscale>  0 0.24207112E+04</rscale>
<asrwt>0</asrwt>
<pdfrwt beam="1">  1        1 0.40598786E+00 0.24207112E+04</pdfrwt>
<pdfrwt beam="2">  1       -1 0.85405576E-01 0.24207112E+04</pdfrwt>
<totfact> 0.13131278E+00</totfact>
</mgrwt>
</event>
<event>
 6    1  0.1028026E-006  0.2366180E+04  0.7818608E-02  0.8452275E-01
         -2   -1    0    0    0  501 -0.00000000000E+00  0.00000000000E+00  0.28268505456E+03  0.28268505456E+03  0.00000000000E+00 0.  1.
          2   -1    0    0  501    0  0.00000000000E+00 -0.00000000000E+00 -0.49514538156E+04  0.49514538156E+04  0.00000000000E+00 0. -1.
         23    2    1    2    0    0 -0.37517685060E+03 -0.98066898822E+03 -0.11408347310E+04  0.15532710576E+04  0.93154501078E+02 0.  0.
         13    1    3    3    0    0 -0.21385283455E+03 -0.46122312685E+03 -0.50588484841E+03  0.71720240340E+03  0.00000000000E+00 0. -1.
        -13    1    3    3    0    0 -0.16132401605E+03 -0.51944586137E+03 -0.63494988262E+03  0.83606865417E+03  0.00000000000E+00 0.  1.
         22    1    1    2    0    0  0.37517685060E+03  0.98066898822E+03 -0.35279340300E+04  0.36808678126E+04  0.00000000000E+00 0. -1.
<mgrwt>
<rscale>  0 0.23661800E+04</rscale>
<asrwt>0</asrwt>
<pdfrwt beam="1">  1        2 0.76176212E+00 0.23661800E+04</pdfrwt>
<pdfrwt beam="2">  1       -2 0.43490008E-01 0.23661800E+04</pdfrwt>
<totfact> 0.18069533E-01</totfact>
</mgrwt>
</event>
<event>
 6    1  0.1028026E-006  0.1622014E+04  0.7818608E-02  0.8807137E-01
         -1   -1    0    0    0  501 -0.00000000000E+00  0.00000000000E+00  0.39890321633E+03  0.39890321633E+03  0.00000000000E+00 0.  1.
          1   -1    0    0  501    0  0.00000000000E+00 -0.00000000000E+00 -0.16488520690E+04  0.16488520690E+04  0.00000000000E+00 0. -1.
         23    2    1    2    0    0  0.13617842213E+03  0.12473240789E+03 -0.16205920239E+04  0.16336549392E+04  0.91690872881E+02 0.  0.
         13    1    3    3    0    0  0.62500199128E+02  0.26585566790E+02 -0.31126872377E+03  0.31859266415E+03  0.00000000000E+00 0.  1.
        -13    1    3    3    0    0  0.73678222999E+02  0.98146841104E+02 -0.13093233002E+04  0.13150622751E+04  0.00000000000E+00 0. -1.
         22    1    1    2    0    0 -0.13617842213E+03 -0.12473240789E+03  0.37064317127E+03  0.41410034610E+03  0.00000000000E+00 0.  1.
<mgrwt>
<rscale>  0 0.16220140E+04</rscale>
<asrwt>0</asrwt>
<pdfrwt beam="1">  1        1 0.25366955E+00 0.16220140E+04</pdfrwt>
<pdfrwt beam="2">  1       -1 0.61369725E-01 0.16220140E+04</pdfrwt>
<totfact> 0.13323646E+01</totfact>
</mgrwt>
</event>
<event>
 6    1  0.1028026E-006  0.4633405E+04  0.7818608E-02  0.7887689E-01
          2   -1    0    0  501    0  0.00000000000E+00  0.00000000000E+00  0.29550159849E+04  0.29550159849E+04  0.00000000000E+00 0. -1.
         -2   -1    0    0    0  501 -0.00000000000E+00 -0.00000000000E+00 -0.18162708367E+04  0.18162708367E+04  0.00000000000E+00 0.  1.
         23    2    1    2    0    0 -0.19975978871E+04  0.11512976565E+04  0.34596124245E+03  0.23331748608E+04  0.90178365533E+02 0.  0.
         11    1    3    3    0    0 -0.72380094501E+03  0.37385803554E+03  0.14364265464E+03  0.82721874433E+03  0.00000000000E+00 0. -1.
        -11    1    3    3    0    0 -0.12737969421E+04  0.77743962092E+03  0.20231858782E+03  0.15059561165E+04  0.00000000000E+00 0.  1.
         22    1    1    2    0    0  0.19975978871E+04 -0.11512976565E+04  0.79278390577E+03  0.24381119608E+04  0.00000000000E+00 0. -1.
<mgrwt>
<rscale>  0 0.46334045E+04</rscale>
<asrwt>0</asrwt>
<pdfrwt beam="1">  1        2 0.45461785E+00 0.46334045E+04</pdfrwt>
<pdfrwt beam="2">  1       -2 0.27942628E+00 0.46334045E+04</pdfrwt>
<totfact> 0.59085873E-02</totfact>
</mgrwt>
</event>
<event>
 6    1  0.1028026E-006  0.3366237E+03  0.7818608E-02  0.1068243E+00
          2   -1    0    0  501    0  0.00000000000E+00  0.00000000000E+00  0.13920990346E+04  0.13920990346E+04  0.00000000000E+00 0. -1.
         -2   -1    0    0    0  501 -0.00000000000E+00 -0.00000000000E+00 -0.20349753188E+02  0.20349753188E+02  0.00000000000E+00 0.  1.
         23    2    1    2    0    0 -0.10442017125E+02  0.15058416767E+03  0.90359631816E+03  0.92056280072E+03  0.90360038737E+02 0.  0.
         13    1    3    3    0    0  0.91942732851E+01  0.82424259467E+02  0.25613148341E+03  0.26922412597E+03  0.00000000000E+00 0. -1.
        -13    1    3    3    0    0 -0.19636290410E+02  0.68159908201E+02  0.64746483475E+03  0.65133867475E+03  0.00000000000E+00 0.  1.
         22    1    1    2    0    0  0.10442017125E+02 -0.15058416767E+03  0.46815296326E+03  0.49188598708E+03  0.00000000000E+00 0.  1.
<mgrwt>
<rscale>  0 0.33662366E+03</rscale>
<asrwt>0</asrwt>
<pdfrwt beam="1">  1        2 0.21416901E+00 0.33662366E+03</pdfrwt>
<pdfrwt beam="2">  1       -2 0.31307324E-02 0.33662366E+03</pdfrwt>
<totfact> 0.62218222E+03</totfact>
</mgrwt>
</event>
<event>
 6    1  0.1028026E-006  0.3131027E+04  0.7818608E-02  0.8207274E-01
         -2   -1    0    0    0  501 -0.00000000000E+00  0.00000000000E+00  0.14138290607E+04  0.14138290607E+04  0.00000000000E+00 0.  1.
          2   -1    0    0  501    0  0.00000000000E+00 -0.00000000000E+00 -0.17334713206E+04  0.17334713206E+04  0.00000000000E+00 0. -1.
         23    2    1    2    0    0 -0.56752339953E+03 -0.47704950499E+00 -0.16251956214E+04  0.17237300049E+04  0.88889174164E+02 0.  0.
         11    1    3    3    0    0 -0.18826038433E+03  0.11400538272E+02 -0.42473721968E+03  0.46472965299E+03  0.00000000000E+00 0. -1.
        -11    1    3    3    0    0 -0.37926301520E+03 -0.11877587777E+02 -0.12004584017E+04  0.12590003519E+04  0.00000000000E+00 0.  1.
         22    1    1    2    0    0  0.56752339953E+03  0.47704950499E+00  0.13055533616E+04  0.14235703764E+04  0.00000000000E+00 0.  1.
<mgrwt>
<rscale>  0 0.31310268E+04</rscale>
<asrwt>0</asrwt>
<pdfrwt beam="1">  1        2 0.26668789E+00 0.31310268E+04</pdfrwt>
<pdfrwt beam="2">  1       -2 0.21751216E+00 0.31310268E+04</pdfrwt>
<totfact> 0.81559245E-01</totfact>
</mgrwt>
</event>
<event>
 6    1  0.1028026E-006  0.2193789E+04  0.7818608E-02  0.8521018E-01
          2   -1    0    0  501    0  0.00000000000E+00  0.00000000000E+00  0.53995613998E+03  0.53995613998E+03  0.00000000000E+00 0. -1.
         -2   -1    0    0    0  501 -0.00000000000E+00 -0.00000000000E+00 -0.22282879739E+04  0.22282879739E+04  0.00000000000E+00 0.  1.
         23    2    1    2    0    0 -0.60556434454E+03  0.89729201976E+03 -0.63783024293E+03  0.12598029527E+04  0.91841802549E+02 0.  0.
         11    1    3    3    0    0 -0.20971303020E+03  0.37586776328E+03 -0.28365374499E+03  0.51547606885E+03  0.00000000000E+00 0. -1.
        -11    1    3    3    0    0 -0.39585131434E+03  0.52142425648E+03 -0.35417649795E+03  0.74432688384E+03  0.00000000000E+00 0.  1.
         22    1    1    2    0    0  0.60556434454E+03 -0.89729201976E+03 -0.10505015910E+04  0.15084411612E+04  0.00000000000E+00 0.  1.
<mgrwt>
<rscale>  0 0.21937892E+04</rscale>
<asrwt>0</asrwt>
<pdfrwt beam="1">  1        2 0.83070177E-01 0.21937892E+04</pdfrwt>
<pdfrwt beam="2">  1       -2 0.34281353E+00 0.21937892E+04</pdfrwt>
<totfact> 0.88960059E-01</totfact>
</mgrwt>
</event>
<event>
 6    1  0.1028026E-006  0.2998483E+04  0.7818608E-02  0.8244164E-01
         -1   -1    0    0    0  501 -0.00000000000E+00  0.00000000000E+00  0.33943929637E+04  0.33943929637E+04  0.00000000000E+00 0.  1.
          1   -1    0    0  501    0  0.00000000000E+00 -0.00000000000E+00 -0.66218761301E+03  0.66218761301E+03  0.00000000000E+00 0. -1.
         23    2    1    2    0    0  0.26276151393E+03 -0.14693772422E+04  0.11988624846E+04  0.19166615507E+04  0.90593320498E+02 0.  0.
         13    1    3    3    0    0  0.47331129350E+02 -0.22838499036E+03  0.14734839953E+03  0.27588311016E+03  0.00000000000E+00 0. -1.
        -13    1    3    3    0    0  0.21543038458E+03 -0.12409922518E+04  0.10515140851E+04  0.16407784405E+04  0.00000000000E+00 0.  1.
         22    1    1    2    0    0 -0.26276151393E+03  0.14693772422E+04  0.15333428661E+04  0.21399190261E+04  0.00000000000E+00 0.  1.
<mgrwt>
<rscale>  0 0.29984829E+04</rscale>
<asrwt>0</asrwt>
<pdfrwt beam="1">  1        1 0.10187502E+00 0.29984829E+04</pdfrwt>
<pdfrwt beam="2">  1       -1 0.52221429E+00 0.29984829E+04</pdfrwt>
<totfact> 0.27156666E-02</totfact>
</mgrwt>
</event>
<event>
 6    1  0.1028026E-006  0.3370815E+04  0.7818608E-02  0.8145107E-01
         -1   -1    0    0    0  501 -0.00000000000E+00  0.00000000000E+00  0.11591511638E+04  0.11591511638E+04  0.00000000000E+00 0.  1.
          1   -1    0    0  501    0  0.00000000000E+00 -0.00000000000E+00 -0.24505845258E+04  0.24505845258E+04  0.00000000000E+00 0. -1.
         23    2    1    2    0    0  0.46841472656E+03  0.98994435793E+03 -0.20163943149E+04  0.22963543394E+04  0.89414936816E+02 0.  0.
         13    1    3    3    0    0  0.30617138606E+03  0.60106911558E+03 -0.11588073266E+04  0.13408428019E+04  0.00000000000E+00 0. -1.
        -13    1    3    3    0    0  0.16224334050E+03  0.38887524235E+03 -0.85758698832E+03  0.95551153744E+03  0.00000000000E+00 0.  1.
         22    1    1    2    0    0 -0.46841472656E+03 -0.98994435793E+03  0.72496095292E+03  0.13133813502E+04  0.00000000000E+00 0.  1.
<mgrwt>
<rscale>  0 0.33708147E+04</rscale>
<asrwt>0</asrwt>
<pdfrwt beam="1">  1        1 0.37701300E+00 0.33708147E+04</pdfrwt>
<pdfrwt beam="2">  1       -1 0.17833095E+00 0.33708147E+04</pdfrwt>
<totfact> 0.25860953E-01</totfact>
</mgrwt>
</event>
<event>
 6    1  0.1028026E-006  0.1080044E+04  0.7818608E-02  0.9224864E-01
         -2   -1    0    0    0  501 -0.00000000000E+00  0.00000000000E+00  0.17945231368E+04  0.17945231368E+04  0.00000000000E+00 0.  1.
          2   -1    0    0  501    0  0.00000000000E+00 -0.00000000000E+00 -0.16250752568E+03  0.16250752568E+03  0.00000000000E+00 0. -1.
         23    2    1    2    0    0 -0.23372837852E+03 -0.26613961828E+03  0.93995787383E+02  0.37875178043E+03  0.95699800338E+02 0.  0.
         13    1    3    3    0    0 -0.19921319807E+03 -0.16149482687E+03  0.59142999448E+02  0.26318125270E+03  0.00000000000E+00 0.  1.
        -13    1    3    3    0    0 -0.34515180450E+02 -0.10464479141E+03  0.34852787935E+02  0.11557052772E+03  0.00000000000E+00 0. -1.
         22    1    1    2    0    0  0.23372837852E+03  0.26613961828E+03  0.15380198238E+04  0.15782788821E+04  0.00000000000E+00 0.  1.
<mgrwt>
<rscale>  0 0.10800435E+04</rscale>
<asrwt>0</asrwt>
<pdfrwt beam="1">  1        2 0.25001159E-01 0.10800435E+04</pdfrwt>
<pdfrwt beam="2">  1       -2 0.27608047E+00 0.10800435E+04</pdfrwt>
<totfact> 0.97837546E+00</totfact>
</mgrwt>
</event>
<event>
 6    1  0.1028026E-006  0.4067007E+04  0.7818608E-02  0.7991164E-01
         -1   -1    0    0    0  501 -0.00000000000E+00  0.00000000000E+00  0.15440607264E+04  0.15440607264E+04  0.00000000000E+00 0.  1.
          1   -1    0    0  501    0  0.00000000000E+00 -0.00000000000E+00 -0.26780920660E+04  0.26780920660E+04  0.00000000000E+00 0. -1.
         23    2    1    2    0    0  0.18394455350E+03 -0.10421949480E+04  0.12340952172E+04  0.16283082911E+04  0.91602277816E+02 0.  0.
         11    1    3    3    0    0  0.78149264724E+02 -0.62524411122E+03  0.78186718228E+03  0.10041682115E+04  0.00000000000E+00 0.  1.
        -11    1    3    3    0    0  0.10579528878E+03 -0.41695083676E+03  0.45222803490E+03  0.62414007959E+03  0.00000000000E+00 0. -1.
         22    1    1    2    0    0 -0.18394455350E+03  0.10421949480E+04 -0.23681265568E+04  0.25938445014E+04  0.00000000000E+00 0. -1.
<mgrwt>
<rscale>  0 0.40670071E+04</rscale>
<asrwt>0</asrwt>
<pdfrwt beam="1">  1        1 0.41201416E+00 0.40670071E+04</pdfrwt>
<pdfrwt beam="2">  1       -1 0.23754780E+00 0.40670071E+04</pdfrwt>
<totfact> 0.66599711E-02</totfact>
</mgrwt>
</event>
<event>
 6    1  0.1028026E-006  0.1749391E+04  0.7818608E-02  0.8733685E-01
          1   -1    0    0  501    0  0.00000000000E+00  0.00000000000E+00  0.87518633482E+03  0.87518633482E+03  0.00000000000E+00 0. -1.
         -1   -1    0    0    0  501 -0.00000000000E+00 -0.00000000000E+00 -0.87420535379E+03  0.87420535379E+03  0.00000000000E+00 0.  1.
         23    2    1    2    0    0  0.37796777099E+03 -0.76481402553E+03  0.18280487662E+03  0.87711876197E+03  0.90108657389E+02 0.  0.
         11    1    3    3    0    0  0.15715601615E+03 -0.28787138510E+03  0.27756952262E+02  0.32914798521E+03  0.00000000000E+00 0. -1.
        -11    1    3    3    0    0  0.22081175484E+03 -0.47694264042E+03  0.15504792435E+03  0.54797077675E+03  0.00000000000E+00 0.  1.
         22    1    1    2    0    0 -0.37796777099E+03  0.76481402553E+03 -0.18182389559E+03  0.87227292664E+03  0.00000000000E+00 0.  1.
<mgrwt>
<rscale>  0 0.17493914E+04</rscale>
<asrwt>0</asrwt>
<pdfrwt beam="1">  1        1 0.13464405E+00 0.17493914E+04</pdfrwt>
<pdfrwt beam="2">  1       -1 0.13449313E+00 0.17493914E+04</pdfrwt>
<totfact> 0.84098413E+00</totfact>
</mgrwt>
</event>
<event>
 6    1  0.1028026E-006  0.1524981E+04  0.7818608E-02  0.8868009E-01
         -1   -1    0    0    0  501 -0.00000000000E+00  0.00000000000E+00  0.10272754850E+04  0.10272754850E+04  0.00000000000E+00 0.  1.
          1   -1    0    0  501    0  0.00000000000E+00 -0.00000000000E+00 -0.56595500816E+03  0.56595500816E+03  0.00000000000E+00 0. -1.
         23    2    1    2    0    0  0.31076610953E+03  0.28066943013E+03  0.89379931826E+03  0.99124307455E+03  0.91294620216E+02 0.  0.
         13    1    3    3    0    0  0.14456519779E+03  0.74321691849E+02  0.30627675141E+03  0.34673946811E+03  0.00000000000E+00 0. -1.
        -13    1    3    3    0    0  0.16620091175E+03  0.20634773828E+03  0.58752256685E+03  0.64450360644E+03  0.00000000000E+00 0.  1.
         22    1    1    2    0    0 -0.31076610953E+03 -0.28066943013E+03 -0.43247884144E+03  0.60198741859E+03  0.00000000000E+00 0. -1.
<mgrwt>
<rscale>  0 0.15249809E+04</rscale>
<asrwt>0</asrwt>
<pdfrwt beam="1">  1        1 0.87070002E-01 0.15249809E+04</pdfrwt>
<pdfrwt beam="2">  1       -1 0.15804238E+00 0.15249809E+04</pdfrwt>
<totfact> 0.10874980E+01</totfact>
</mgrwt>
</event>
<event>
 6    1  0.1028026E-006  0.1763547E+04  0.7818608E-02  0.8725928E-01
         -1   -1    0    0    0  501 -0.00000000000E+00  0.00000000000E+00  0.33710042542E+03  0.33710042542E+03  0.00000000000E+00 0.  1.
          1   -1    0    0  501    0  0.00000000000E+00 -0.00000000000E+00 -0.23065082988E+04  0.23065082988E+04  0.00000000000E+00 0. -1.
         23    2    1    2    0    0 -0.49429882981E+03  0.20769955205E+03 -0.20322394121E+04  0.21037770473E+04  0.91708230998E+02 0.  0.
         13    1    3    3    0    0 -0.34653445513E+03  0.16135282802E+03 -0.15865155129E+04  0.16319167676E+04  0.00000000000E+00 0.  1.
        -13    1    3    3    0    0 -0.14776437468E+03  0.46346724038E+02 -0.44572389924E+03  0.47186027975E+03  0.00000000000E+00 0. -1.
         22    1    1    2    0    0  0.49429882981E+03 -0.20769955205E+03  0.62831538769E+02  0.53983167686E+03  0.00000000000E+00 0.  1.
<mgrwt>
<rscale>  0 0.17635475E+04</rscale>
<asrwt>0</asrwt>
<pdfrwt beam="1">  1        1 0.35484743E+00 0.17635475E+04</pdfrwt>
<pdfrwt beam="2">  1       -1 0.51861604E-01 0.17635475E+04</pdfrwt>
<totfact> 0.65305669E+00</totfact>
</mgrwt>
</event>
<event>
 6    1  0.1028026E-006  0.5804586E+03  0.7818608E-02  0.9946799E-01
          1   -1    0    0  501    0  0.00000000000E+00  0.00000000000E+00  0.36406745017E+03  0.36406745017E+03  0.00000000000E+00 0. -1.
         -1   -1    0    0    0  501 -0.00000000000E+00 -0.00000000000E+00 -0.23136656031E+03  0.23136656031E+03  0.00000000000E+00 0.  1.
         23    2    1    2    0    0  0.81507171607E+02  0.76734558847E+02  0.33482863652E+03  0.36437722629E+03  0.90160610347E+02 0.  0.
         11    1    3    3    0    0  0.49303171311E+02  0.52925304498E+02  0.30749812488E+03  0.31589078391E+03  0.00000000000E+00 0. -1.
        -11    1    3    3    0    0  0.32204000297E+02  0.23809254349E+02  0.27330511648E+02  0.48486442381E+02  0.00000000000E+00 0.  1.
         22    1    1    2    0    0 -0.81507171607E+02 -0.76734558847E+02 -0.20212774666E+03  0.23105678418E+03  0.00000000000E+00 0.  1.
<mgrwt>
<rscale>  0 0.58045856E+03</rscale>
<asrwt>0</asrwt>
<pdfrwt beam="1">  1        1 0.56010377E-01 0.58045856E+03</pdfrwt>
<pdfrwt beam="2">  1       -1 0.35594855E-01 0.58045856E+03</pdfrwt>
<totfact> 0.51728770E+02</totfact>
</mgrwt>
</event>
<event>
 6    1  0.1028026E-006  0.2993037E+03  0.7818608E-02  0.1085589E+00
          1   -1    0    0  501    0  0.00000000000E+00  0.00000000000E+00  0.50355218135E+02  0.50355218135E+02  0.00000000000E+00 0. -1.
         -1   -1    0    0    0  501 -0.00000000000E+00 -0.00000000000E+00 -0.44475370258E+03  0.44475370258E+03  0.00000000000E+00 0.  1.
         23    2    1    2    0    0  0.39759085032E+02 -0.10871174423E+03 -0.10108779162E+03  0.17978338940E+03  0.93296823701E+02 0.  0.
         11    1    3    3    0    0 -0.11692369563E+02 -0.85257442254E+02 -0.85086938077E+02  0.12101789123E+03  0.00000000000E+00 0.  1.
        -11    1    3    3    0    0  0.51451454595E+02 -0.23454301974E+02 -0.16000853542E+02  0.58765498170E+02  0.00000000000E+00 0. -1.
         22    1    1    2    0    0 -0.39759085032E+02  0.10871174423E+03 -0.29331069283E+03  0.31532553132E+03  0.00000000000E+00 0.  1.
<mgrwt>
<rscale>  0 0.29930366E+03</rscale>
<asrwt>0</asrwt>
<pdfrwt beam="1">  1        1 0.77469565E-02 0.29930366E+03</pdfrwt>
<pdfrwt beam="2">  1       -1 0.68423648E-01 0.29930366E+03</pdfrwt>
<totfact> 0.20399131E+03</totfact>
</mgrwt>
</event>
<event>
 6    1  0.1028026E-006  0.2495268E+04  0.7818608E-02  0.8404673E-01
         -1   -1    0    0    0  501 -0.00000000000E+00  0.00000000000E+00  0.57292518769E+03  0.57292518769E+03  0.00000000000E+00 0.  1.
          1   -1    0    0  501    0  0.00000000000E+00 -0.00000000000E+00 -0.27169180913E+04  0.27169180913E+04  0.00000000000E+00 0. -1.
         23    2    1    2    0    0 -0.10598716157E+04 -0.17381820098E+03 -0.19061651431E+04  0.21897966198E+04  0.90570827072E+02 0.  0.
         13    1    3    3    0    0 -0.42294115781E+03 -0.33768867149E+02 -0.80656607578E+03  0.91135525124E+03  0.00000000000E+00 0.  1.
        -13    1    3    3    0    0 -0.63693045786E+03 -0.14004933384E+03 -0.10995990673E+04  0.12784413686E+04  0.00000000000E+00 0. -1.
         22    1    1    2    0    0  0.10598716157E+04  0.17381820098E+03 -0.23782776053E+03  0.11000466592E+04  0.00000000000E+00 0.  1.
<mgrwt>
<rscale>  0 0.24952682E+04</rscale>
<asrwt>0</asrwt>
<pdfrwt beam="1">  1        1 0.41798739E+00 0.24952682E+04</pdfrwt>
<pdfrwt beam="2">  1       -1 0.88142338E-01 0.24952682E+04</pdfrwt>
<totfact> 0.10729057E+00</totfact>
</mgrwt>
</event>
<event>
 6    1  0.1028026E-006  0.1086485E+04  0.7818608E-02  0.9218466E-01
          1   -1    0    0  501    0  0.00000000000E+00  0.00000000000E+00  0.12584866235E+04  0.12584866235E+04  0.00000000000E+00 0. -1.
         -1   -1    0    0    0  501 -0.00000000000E+00 -0.00000000000E+00 -0.23449781228E+03  0.23449781228E+03  0.00000000000E+00 0.  1.
         23    2    1    2    0    0 -0.28173289657E+03  0.40837547135E+03  0.80634949741E+03  0.95121804562E+03  0.92045139620E+02 0.  0.
         11    1    3    3    0    0 -0.13573755947E+03  0.25598282543E+03  0.52320631964E+03  0.59807754086E+03  0.00000000000E+00 0. -1.
        -11    1    3    3    0    0 -0.14599533710E+03  0.15239264592E+03  0.28314317776E+03  0.35314050476E+03  0.00000000000E+00 0.  1.
         22    1    1    2    0    0  0.28173289657E+03 -0.40837547135E+03  0.21763931385E+03  0.54176639019E+03  0.00000000000E+00 0.  1.
<mgrwt>
<rscale>  0 0.10864849E+04</rscale>
<asrwt>0</asrwt>
<pdfrwt beam="1">  1        1 0.19361332E+00 0.10864849E+04</pdfrwt>
<pdfrwt beam="2">  1       -1 0.36076587E-01 0.10864849E+04</pdfrwt>
<totfact> 0.70953979E+01</totfact>
</mgrwt>
</event>
<event>
 6    1  0.1028026E-006  0.7668327E+03  0.7818608E-02  0.9609306E-01
          2   -1    0    0  501    0  0.00000000000E+00  0.00000000000E+00  0.19132793071E+04  0.19132793071E+04  0.00000000000E+00 0. -1.
         -2   -1    0    0    0  501 -0.00000000000E+00 -0.00000000000E+00 -0.76835675244E+02  0.76835675244E+02  0.00000000000E+00 0.  1.
         23    2    1    2    0    0 -0.27156950476E+03  0.68393093191E+02  0.27129336784E+03  0.40010776221E+03  0.89769253282E+02 0.  0.
         13    1    3    3    0    0 -0.10533438190E+03  0.18797856317E+02  0.47803303403E+02  0.11719149810E+03  0.00000000000E+00 0. -1.
        -13    1    3    3    0    0 -0.16623512287E+03  0.49595236874E+02  0.22349006443E+03  0.28291626411E+03  0.00000000000E+00 0.  1.
         22    1    1    2    0    0  0.27156950476E+03 -0.68393093191E+02  0.15651502640E+04  0.15900072201E+04  0.00000000000E+00 0. -1.
<mgrwt>
<rscale>  0 0.76683273E+03</rscale>
<asrwt>0</asrwt>
<pdfrwt beam="1">  1        2 0.29435063E+00 0.76683273E+03</pdfrwt>
<pdfrwt beam="2">  1       -2 0.11820875E-01 0.76683273E+03</pdfrwt>
<totfact> 0.39737770E+02</totfact>
</mgrwt>
</event>
<event>
 6    1  0.1028026E-006  0.1329148E+04  0.7818608E-02  0.9006765E-01
         -2   -1    0    0    0  501 -0.00000000000E+00  0.00000000000E+00  0.41976337409E+03  0.41976337409E+03  0.00000000000E+00 0.  1.
          2   -1    0    0  501    0  0.00000000000E+00 -0.00000000000E+00 -0.10521610586E+04  0.10521610586E+04  0.00000000000E+00 0. -1.
         23    2    1    2    0    0 -0.58358826341E+03  0.19873207193E+02 -0.66189937225E+03  0.88725311040E+03  0.90205861136E+02 0.  0.
         13    1    3    3    0    0 -0.36719111398E+03 -0.34059662222E+01 -0.47488121089E+03  0.60029416060E+03  0.00000000000E+00 0. -1.
        -13    1    3    3    0    0 -0.21639714942E+03  0.23279173415E+02 -0.18701816137E+03  0.28695894981E+03  0.00000000000E+00 0.  1.
         22    1    1    2    0    0  0.58358826341E+03 -0.19873207193E+02  0.29501687721E+02  0.58467132231E+03  0.00000000000E+00 0.  1.
<mgrwt>
<rscale>  0 0.13291481E+04</rscale>
<asrwt>0</asrwt>
<pdfrwt beam="1">  1        2 0.16187093E+00 0.13291481E+04</pdfrwt>
<pdfrwt beam="2">  1       -2 0.64578982E-01 0.13291481E+04</pdfrwt>
<totfact> 0.50542627E+01</totfact>
</mgrwt>
</event>
<event>
 6    1  0.1028026E-006  0.9104729E+03  0.7818608E-02  0.9412584E-01
          2   -1    0    0  501    0  0.00000000000E+00  0.00000000000E+00  0.78193263297E+03  0.78193263297E+03  0.00000000000E+00 0. -1.
         -2   -1    0    0    0  501 -0.00000000000E+00 -0.00000000000E+00 -0.26503592875E+03  0.26503592875E+03  0.00000000000E+00 0.  1.
         23    2    1    2    0    0  0.11365044263E+03 -0.84233168776E+02 -0.23099479481E+03  0.28581591990E+03  0.91216747411E+02 0.  0.
         11    1    3    3    0    0  0.69867883309E+02 -0.20445711884E+02 -0.17723747606E+03  0.19160550924E+03  0.00000000000E+00 0. -1.
        -11    1    3    3    0    0  0.43782559321E+02 -0.63787456891E+02 -0.53757318753E+02  0.94210410660E+02  0.00000000000E+00 0.  1.
         22    1    1    2    0    0 -0.11365044263E+03  0.84233168776E+02  0.74789149903E+03  0.76115264182E+03  0.00000000000E+00 0. -1.
<mgrwt>
<rscale>  0 0.91047294E+03</rscale>
<asrwt>0</asrwt>
<pdfrwt beam="1">  1        2 0.12029733E+00 0.91047294E+03</pdfrwt>
<pdfrwt beam="2">  1       -2 0.40774759E-01 0.91047294E+03</pdfrwt>
<totfact> 0.20261572E+02</totfact>
</mgrwt>
</event>
<event>
 6    1  0.1028026E-006  0.2757239E+04  0.7818608E-02  0.8316668E-01
         -1   -1    0    0    0  501 -0.00000000000E+00  0.00000000000E+00  0.18590618331E+04  0.18590618331E+04  0.00000000000E+00 0.  1.
          1   -1    0    0  501    0  0.00000000000E+00 -0.00000000000E+00 -0.10223393024E+04  0.10223393024E+04  0.00000000000E+00 0. -1.
         23    2    1    2    0    0  0.19635977004E+03 -0.23643057276E+03  0.18214355650E+04  0.18498409894E+04  0.99134221268E+02 0.  0.
         11    1    3    3    0    0  0.54177530369E+02 -0.11588343191E+03  0.54163159808E+03  0.55653298431E+03  0.00000000000E+00 0. -1.
        -11    1    3    3    0    0  0.14218223967E+03 -0.12054714085E+03  0.12798039669E+04  0.12933080051E+04  0.00000000000E+00 0.  1.
         22    1    1    2    0    0 -0.19635977004E+03  0.23643057276E+03 -0.98471303429E+03  0.10315601461E+04  0.00000000000E+00 0. -1.
<mgrwt>
<rscale>  0 0.27572392E+04</rscale>
<asrwt>0</asrwt>
<pdfrwt beam="1">  1        1 0.15728297E+00 0.27572392E+04</pdfrwt>
<pdfrwt beam="2">  1       -1 0.28600951E+00 0.27572392E+04</pdfrwt>
<totfact> 0.51393841E-01</totfact>
</mgrwt>
</event>
<event>
 6    1  0.1028026E-006  0.1337855E+04  0.7818608E-02  0.9000073E-01
         -1   -1    0    0    0  501 -0.00000000000E+00  0.00000000000E+00  0.35042331064E+03  0.35042331064E+03  0.00000000000E+00 0.  1.
          1   -1    0    0  501    0  0.00000000000E+00 -0.00000000000E+00 -0.12769242619E+04  0.12769242619E+04  0.00000000000E+00 0. -1.
         23    2    1    2    0    0 -0.27541627462E+03 -0.33959315173E+03  0.14537477861E+03  0.46972275711E+03  0.91257927120E+02 0.  0.
         13    1    3    3    0    0 -0.14889945195E+03 -0.11224522249E+03  0.58899327343E+02  0.19554837643E+03  0.00000000000E+00 0.  1.
        -13    1    3    3    0    0 -0.12651682267E+03 -0.22734792924E+03  0.86475451270E+02  0.27417438068E+03  0.00000000000E+00 0. -1.
         22    1    1    2    0    0  0.27541627462E+03  0.33959315173E+03 -0.10718757299E+04  0.11576248154E+04  0.00000000000E+00 0. -1.
<mgrwt>
<rscale>  0 0.13378550E+04</rscale>
<asrwt>0</asrwt>
<pdfrwt beam="1">  1        1 0.19644989E+00 0.13378550E+04</pdfrwt>
<pdfrwt beam="2">  1       -1 0.53911279E-01 0.13378550E+04</pdfrwt>
<totfact> 0.31971999E+01</totfact>
</mgrwt>
</event>
<event>
 6    1  0.1028026E-006  0.1319194E+04  0.7818608E-02  0.9014481E-01
          2   -1    0    0  501    0  0.00000000000E+00  0.00000000000E+00  0.89647638739E+03  0.89647638739E+03  0.00000000000E+00 0. -1.
         -2   -1    0    0    0  501 -0.00000000000E+00 -0.00000000000E+00 -0.48530919262E+03  0.48530919262E+03  0.00000000000E+00 0.  1.
         23    2    1    2    0    0 -0.21583929735E+03 -0.54003295578E+03 -0.11264695285E+03  0.59909569452E+03  0.89465745435E+02 0.  0.
         13    1    3    3    0    0 -0.13959340727E+03 -0.23120037470E+03 -0.60087377266E+02  0.27667747563E+03  0.00000000000E+00 0.  1.
        -13    1    3    3    0    0 -0.76245890076E+02 -0.30883258108E+03 -0.52559575584E+02  0.32241821889E+03  0.00000000000E+00 0. -1.
         22    1    1    2    0    0  0.21583929735E+03  0.54003295578E+03  0.52381414761E+03  0.78268988549E+03  0.00000000000E+00 0. -1.
<mgrwt>
<rscale>  0 0.13191940E+04</rscale>
<asrwt>0</asrwt>
<pdfrwt beam="1">  1        2 0.13791944E+00 0.13191940E+04</pdfrwt>
<pdfrwt beam="2">  1       -2 0.74662953E-01 0.13191940E+04</pdfrwt>
<totfact> 0.46563912E+01</totfact>
</mgrwt>
</event>
<event>
 6    1  0.1028026E-006  0.2035662E+04  0.7818608E-02  0.8590127E-01
          2   -1    0    0  501    0  0.00000000000E+00  0.00000000000E+00  0.69242852070E+03  0.69242852070E+03  0.00000000000E+00 0. -1.
         -2   -1    0    0    0  501 -0.00000000000E+00 -0.00000000000E+00 -0.14961544515E+04  0.14961544515E+04  0.00000000000E+00 0.  1.
         23    2    1    2    0    0  0.64132403443E+03 -0.55163269375E+03 -0.10072693385E+04  0.13185110989E+04  0.91021160745E+02 0.  0.
         13    1    3    3    0    0  0.29664163364E+03 -0.19603468371E+03 -0.42469791360E+03  0.55389003768E+03  0.00000000000E+00 0. -1.
        -13    1    3    3    0    0  0.34468240079E+03 -0.35559801004E+03 -0.58257142489E+03  0.76462106122E+03  0.00000000000E+00 0.  1.
         22    1    1    2    0    0 -0.64132403443E+03  0.55163269375E+03  0.20354340766E+03  0.87007187333E+03  0.00000000000E+00 0. -1.
<mgrwt>
<rscale>  0 0.20356621E+04</rscale>
<asrwt>0</asrwt>
<pdfrwt beam="1">  1        2 0.10652747E+00 0.20356621E+04</pdfrwt>
<pdfrwt beam="2">  1       -2 0.23017761E+00 0.20356621E+04</pdfrwt>
<totfact> 0.32803936E+00</totfact>
</mgrwt>
</event>
<event>
 6    1  0.1028026E-006  0.2121300E+04  0.7818608E-02  0.8551918E-01
          1   -1    0    0  501    0  0.00000000000E+00  0.00000000000E+00  0.23382559140E+04  0.23382559140E+04  0.00000000000E+00 0. -1.
         -1   -1    0    0    0  501 -0.00000000000E+00 -0.00000000000E+00 -0.48111854836E+03  0.48111854836E+03  0.00000000000E+00 0.  1.
         23    2    1    2    0    0 -0.44339462163E+03  0.10035431294E+03  0.22010552784E+04  0.22493312102E+04  0.90425528258E+02 0.  0.
         13    1    3    3    0    0 -0.10314762744E+02  0.16161219732E+02  0.51173475353E+02  0.54647085315E+02  0.00000000000E+00 0.  1.
        -13    1    3    3    0    0 -0.43307985889E+03  0.84193093205E+02  0.21498818030E+04  0.21946841249E+04  0.00000000000E+00 0. -1.
         22    1    1    2    0    0  0.44339462163E+03 -0.10035431294E+03 -0.34391791274E+03  0.57004325215E+03  0.00000000000E+00 0.  1.
<mgrwt>
<rscale>  0 0.21212999E+04</rscale>
<asrwt>0</asrwt>
<pdfrwt beam="1">  1        1 0.35973167E+00 0.21212999E+04</pdfrwt>
<pdfrwt beam="2">  1       -1 0.74018240E-01 0.21212999E+04</pdfrwt>
<totfact> 0.29558761E+00</totfact>
</mgrwt>
</event>
<event>
 6    1  0.1028026E-006  0.3029764E+04  0.7818608E-02  0.8235282E-01
         -2   -1    0    0    0  501 -0.00000000000E+00  0.00000000000E+00  0.11696189495E+04  0.11696189495E+04  0.00000000000E+00 0.  1.
          2   -1    0    0  501    0  0.00000000000E+00 -0.00000000000E+00 -0.19620641196E+04  0.19620641196E+04  0.00000000000E+00 0. -1.
         23    2    1    2    0    0  0.97572859623E+03  0.97155008031E+03  0.25297271324E+03  0.14028527122E+04  0.89692175767E+02 0.  0.
         13    1    3    3    0    0  0.71059848531E+03  0.73618877043E+03  0.22181090107E+03  0.10469594972E+04  0.00000000000E+00 0. -1.
        -13    1    3    3    0    0  0.26513011092E+03  0.23536130988E+03  0.31161812163E+02  0.35589321494E+03  0.00000000000E+00 0.  1.
         22    1    1    2    0    0 -0.97572859623E+03 -0.97155008031E+03 -0.10454178833E+04  0.17288303569E+04  0.00000000000E+00 0. -1.
<mgrwt>
<rscale>  0 0.30297639E+04</rscale>
<asrwt>0</asrwt>
<pdfrwt beam="1">  1        2 0.30185602E+00 0.30297639E+04</pdfrwt>
<pdfrwt beam="2">  1       -2 0.17994138E+00 0.30297639E+04</pdfrwt>
<totfact> 0.10871516E+00</totfact>
</mgrwt>
</event>
<event>
 6    1  0.1028026E-006  0.1914213E+04  0.7818608E-02  0.8647814E-01
          2   -1    0    0  501    0  0.00000000000E+00  0.00000000000E+00  0.20703399008E+04  0.20703399008E+04  0.00000000000E+00 0. -1.
         -2   -1    0    0    0  501 -0.00000000000E+00 -0.00000000000E+00 -0.44246517683E+03  0.44246517683E+03  0.00000000000E+00 0.  1.
         23    2    1    2    0    0  0.24701722821E+02  0.24672979801E+03  0.20262997688E+04  0.20435202125E+04  0.92727220657E+02 0.  0.
         13    1    3    3    0    0 -0.21129629913E+02  0.28491437800E+02  0.46841031559E+03  0.46975147370E+03  0.00000000000E+00 0.  1.
        -13    1    3    3    0    0  0.45831352734E+02  0.21823836021E+03  0.15578894532E+04  0.15737687388E+04  0.00000000000E+00 0. -1.
         22    1    1    2    0    0 -0.24701722821E+02 -0.24672979801E+03 -0.39842504482E+03  0.46928486517E+03  0.00000000000E+00 0.  1.
<mgrwt>
<rscale>  0 0.19142135E+04</rscale>
<asrwt>0</asrwt>
<pdfrwt beam="1">  1        2 0.31851383E+00 0.19142135E+04</pdfrwt>
<pdfrwt beam="2">  1       -2 0.68071567E-01 0.19142135E+04</pdfrwt>
<totfact> 0.11282077E+01</totfact>
</mgrwt>
</event>
<event>
 6    1  0.1028026E-006  0.3060584E+04  0.7818608E-02  0.8226639E-01
          2   -1    0    0  501    0  0.00000000000E+00  0.00000000000E+00  0.15931779900E+04  0.15931779900E+04  0.00000000000E+00 0. -1.
         -2   -1    0    0    0  501 -0.00000000000E+00 -0.00000000000E+00 -0.14698881565E+04  0.14698881565E+04  0.00000000000E+00 0.  1.
         23    2    1    2    0    0  0.95958442244E+03  0.28027826967E+02  0.12525697682E+04  0.15808849855E+04  0.93158414622E+02 0.  0.
         11    1    3    3    0    0  0.83090158770E+03  0.21699404348E+02  0.10280701772E+04  0.13220425870E+04  0.00000000000E+00 0.  1.
        -11    1    3    3    0    0  0.12868283474E+03  0.63284226186E+01  0.22449959099E+03  0.25884239847E+03  0.00000000000E+00 0. -1.
         22    1    1    2    0    0 -0.95958442244E+03 -0.28027826967E+02 -0.11292799348E+04  0.14821811610E+04  0.00000000000E+00 0.  1.
<mgrwt>
<rscale>  0 0.30605839E+04</rscale>
<asrwt>0</asrwt>
<pdfrwt beam="1">  1        2 0.24510431E+00 0.30605839E+04</pdfrwt>
<pdfrwt beam="2">  1       -2 0.22613664E+00 0.30605839E+04</pdfrwt>
<totfact> 0.86638572E-01</totfact>
</mgrwt>
</event>
<event>
 6    1  0.1028026E-006  0.3300341E+04  0.7818608E-02  0.8162809E-01
          1   -1    0    0  501    0  0.00000000000E+00  0.00000000000E+00  0.30942719777E+04  0.30942719777E+04  0.00000000000E+00 0. -1.
         -1   -1    0    0    0  501 -0.00000000000E+00 -0.00000000000E+00 -0.88003351305E+03  0.88003351305E+03  0.00000000000E+00 0.  1.
         23    2    1    2    0    0  0.11300887454E+04  0.94585644802E+03  0.21725706203E+03  0.14924352856E+04  0.91746705907E+02 0.  0.
         11    1    3    3    0    0  0.62651355023E+03  0.46967453875E+03  0.13379673886E+03  0.79436450594E+03  0.00000000000E+00 0. -1.
        -11    1    3    3    0    0  0.50357519516E+03  0.47618190927E+03  0.83460323175E+02  0.69807077968E+03  0.00000000000E+00 0.  1.
         22    1    1    2    0    0 -0.11300887454E+04 -0.94585644802E+03  0.19969814026E+04  0.24818702051E+04  0.00000000000E+00 0. -1.
<mgrwt>
<rscale>  0 0.33003412E+04</rscale>
<asrwt>0</asrwt>
<pdfrwt beam="1">  1        1 0.47604184E+00 0.33003412E+04</pdfrwt>
<pdfrwt beam="2">  1       -1 0.13538977E+00 0.33003412E+04</pdfrwt>
<totfact> 0.19312767E-01</totfact>
</mgrwt>
</event>
<event>
 6    1  0.1028026E-006  0.3111745E+04  0.7818608E-02  0.8212522E-01
          2   -1    0    0  501    0  0.00000000000E+00  0.00000000000E+00  0.11462198552E+04  0.11462198552E+04  0.00000000000E+00 0. -1.
         -2   -1    0    0    0  501 -0.00000000000E+00 -0.00000000000E+00 -0.21119324997E+04  0.21119324997E+04  0.00000000000E+00 0.  1.
         23    2    1    2    0    0  0.84003414871E+03 -0.64200239142E+03  0.70993088518E+03  0.12768382254E+04  0.92138756585E+02 0.  0.
         13    1    3    3    0    0  0.27576965977E+03 -0.17543970182E+03  0.18118019208E+03  0.37370343353E+03  0.00000000000E+00 0. -1.
        -13    1    3    3    0    0  0.56426448894E+03 -0.46656268959E+03  0.52875069310E+03  0.90313479185E+03  0.00000000000E+00 0.  1.
         22    1    1    2    0    0 -0.84003414871E+03  0.64200239142E+03 -0.16756435296E+04  0.19813141295E+04  0.00000000000E+00 0.  1.
<mgrwt>
<rscale>  0 0.31117448E+04</rscale>
<asrwt>0</asrwt>
<pdfrwt beam="1">  1        2 0.17634152E+00 0.31117448E+04</pdfrwt>
<pdfrwt beam="2">  1       -2 0.32491269E+00 0.31117448E+04</pdfrwt>
<totfact> 0.38640610E-01</totfact>
</mgrwt>
</event>
<event>
 6    1  0.1028026E-006  0.3535212E+04  0.7818608E-02  0.8105495E-01
          2   -1    0    0  501    0  0.00000000000E+00  0.00000000000E+00  0.17242442263E+04  0.17242442263E+04  0.00000000000E+00 0. -1.
         -2   -1    0    0    0  501 -0.00000000000E+00 -0.00000000000E+00 -0.18120582930E+04  0.18120582930E+04  0.00000000000E+00 0.  1.
         23    2    1    2    0    0  0.29018717692E+03 -0.36616963068E+03  0.16601440099E+04  0.17269804823E+04  0.89970309466E+02 0.  0.
         11    1    3    3    0    0  0.16368493944E+03 -0.21736446795E+03  0.80240337833E+03  0.84728463510E+03  0.00000000000E+00 0. -1.
        -11    1    3    3    0    0  0.12650223748E+03 -0.14880516273E+03  0.85774063160E+03  0.87969584723E+03  0.00000000000E+00 0.  1.
         22    1    1    2    0    0 -0.29018717692E+03  0.36616963068E+03 -0.17479580766E+04  0.18093220370E+04  0.00000000000E+00 0.  1.
<mgrwt>
<rscale>  0 0.35352120E+04</rscale>
<asrwt>0</asrwt>
<pdfrwt beam="1">  1        2 0.26526834E+00 0.35352120E+04</pdfrwt>
<pdfrwt beam="2">  1       -2 0.27877820E+00 0.35352120E+04</pdfrwt>
<totfact> 0.33371506E-01</totfact>
</mgrwt>
</event>
<event>
 6    1  0.1028026E-006  0.1776815E+04  0.7818608E-02  0.8718727E-01
         -2   -1    0    0    0  501 -0.00000000000E+00  0.00000000000E+00  0.36500238538E+03  0.36500238538E+03  0.00000000000E+00 0.  1.
          2   -1    0    0  501    0  0.00000000000E+00 -0.00000000000E+00 -0.21623633671E+04  0.21623633671E+04  0.00000000000E+00 0. -1.
         23    2    1    2    0    0 -0.98073401942E+02 -0.89090124171E+02 -0.21472256571E+04  0.21532524896E+04  0.91448449405E+02 0.  0.
         11    1    3    3    0    0  0.11961597375E+02 -0.36669833100E+02 -0.44472574704E+03  0.44639528061E+03  0.00000000000E+00 0.  1.
        -11    1    3    3    0    0 -0.11003499932E+03 -0.52420291071E+02 -0.17024999101E+04  0.17068572090E+04  0.00000000000E+00 0. -1.
         22    1    1    2    0    0  0.98073401942E+02  0.89090124171E+02  0.34986467539E+03  0.37411326290E+03  0.00000000000E+00 0.  1.
<mgrwt>
<rscale>  0 0.17768149E+04</rscale>
<asrwt>0</asrwt>
<pdfrwt beam="1">  1        2 0.33267129E+00 0.17768149E+04</pdfrwt>
<pdfrwt beam="2">  1       -2 0.56154213E-01 0.17768149E+04</pdfrwt>
<totfact> 0.15270452E+01</totfact>
</mgrwt>
</event>
<event>
 6    1  0.1028026E-006  0.2000745E+04  0.7818608E-02  0.8606272E-01
         -2   -1    0    0    0  501 -0.00000000000E+00  0.00000000000E+00  0.11166713522E+04  0.11166713522E+04  0.00000000000E+00 0.  1.
          2   -1    0    0  501    0  0.00000000000E+00 -0.00000000000E+00 -0.89618630925E+03  0.89618630925E+03  0.00000000000E+00 0. -1.
         23    2    1    2    0    0 -0.26374365208E+02 -0.78181814445E+03  0.73440373531E+03  0.10768834949E+04  0.91618759466E+02 0.  0.
         11    1    3    3    0    0 -0.47453044246E+02 -0.44234898549E+03  0.37255882450E+03  0.58027966886E+03  0.00000000000E+00 0. -1.
        -11    1    3    3    0    0  0.21078679038E+02 -0.33946915895E+03  0.36184491081E+03  0.49660382607E+03  0.00000000000E+00 0.  1.
         22    1    1    2    0    0  0.26374365208E+02  0.78181814445E+03 -0.51391869233E+03  0.93597416655E+03  0.00000000000E+00 0. -1.
<mgrwt>
<rscale>  0 0.20007454E+04</rscale>
<asrwt>0</asrwt>
<pdfrwt beam="1">  1        2 0.13787482E+00 0.20007454E+04</pdfrwt>
<pdfrwt beam="2">  1       -2 0.17179559E+00 0.20007454E+04</pdfrwt>
<totfact> 0.56695727E+00</totfact>
</mgrwt>
</event>
<event>
 6    1  0.1028026E-006  0.3552127E+04  0.7818608E-02  0.8101546E-01
         -1   -1    0    0    0  501 -0.00000000000E+00  0.00000000000E+00  0.12714374328E+04  0.12714374328E+04  0.00000000000E+00 0.  1.
          1   -1    0    0  501    0  0.00000000000E+00 -0.00000000000E+00 -0.24809723585E+04  0.24809723585E+04  0.00000000000E+00 0. -1.
         23    2    1    2    0    0  0.82781657860E+03 -0.53087949733E+03 -0.21661130034E+04  0.23804932679E+04  0.87116739752E+02 0.  0.
         11    1    3    3    0    0  0.70337991574E+03 -0.44866160841E+03 -0.19072148092E+04  0.20817081623E+04  0.00000000000E+00 0.  1.
        -11    1    3    3    0    0  0.12443666286E+03 -0.82217888920E+02 -0.25889819425E+03  0.29878510557E+03  0.00000000000E+00 0. -1.
         22    1    1    2    0    0 -0.82781657860E+03  0.53087949733E+03  0.95657807768E+03  0.13719165234E+04  0.00000000000E+00 0.  1.
<mgrwt>
<rscale>  0 0.35521268E+04</rscale>
<asrwt>0</asrwt>
<pdfrwt beam="1">  1        1 0.38168806E+00 0.35521268E+04</pdfrwt>
<pdfrwt beam="2">  1       -1 0.19560576E+00 0.35521268E+04</pdfrwt>
<totfact> 0.18311915E-01</totfact>
</mgrwt>
</event>
<event>
 6    1  0.1028026E-006  0.1420110E+04  0.7818608E-02  0.8939389E-01
          2   -1    0    0  501    0  0.00000000000E+00  0.00000000000E+00  0.38731638648E+04  0.38731638648E+04  0.00000000000E+00 0. -1.
         -2   -1    0    0    0  501 -0.00000000000E+00 -0.00000000000E+00 -0.13017216187E+03  0.13017216187E+03  0.00000000000E+00 0.  1.
         23    2    1    2    0    0 -0.26893644420E+03 -0.61146505393E+03  0.12270146551E+04  0.14001923832E+04  0.93581103868E+02 0.  0.
         11    1    3    3    0    0 -0.22342219966E+03 -0.40972940980E+03  0.81391292645E+03  0.93821635053E+03  0.00000000000E+00 0.  1.
        -11    1    3    3    0    0 -0.45514244536E+02 -0.20173564413E+03  0.41310172860E+03  0.46197603265E+03  0.00000000000E+00 0. -1.
         22    1    1    2    0    0  0.26893644420E+03  0.61146505393E+03  0.25159770479E+04  0.26031436435E+04  0.00000000000E+00 0. -1.
<mgrwt>
<rscale>  0 0.14201100E+04</rscale>
<asrwt>0</asrwt>
<pdfrwt beam="1">  1        2 0.59587128E+00 0.14201100E+04</pdfrwt>
<pdfrwt beam="2">  1       -2 0.20026489E-01 0.14201100E+04</pdfrwt>
<totfact> 0.91609784E+00</totfact>
</mgrwt>
</event>
<event>
 6    1  0.1028026E-006  0.2499670E+04  0.7818608E-02  0.8403103E-01
          1   -1    0    0  501    0  0.00000000000E+00  0.00000000000E+00  0.10043702255E+04  0.10043702255E+04  0.00000000000E+00 0. -1.
         -1   -1    0    0    0  501 -0.00000000000E+00 -0.00000000000E+00 -0.15552903390E+04  0.15552903390E+04  0.00000000000E+00 0.  1.
         23    2    1    2    0    0  0.79749621427E+03 -0.30476009242E+03 -0.12082346690E+04  0.14821906807E+04  0.90439331840E+02 0.  0.
         13    1    3    3    0    0  0.73358465348E+02 -0.44843812233E+02 -0.86493715097E+02  0.12195734781E+03  0.00000000000E+00 0. -1.
        -13    1    3    3    0    0  0.72413774892E+03 -0.25991628019E+03 -0.11217409539E+04  0.13602333329E+04  0.00000000000E+00 0.  1.
         22    1    1    2    0    0 -0.79749621427E+03  0.30476009242E+03  0.65731455546E+03  0.10774698838E+04  0.00000000000E+00 0. -1.
<mgrwt>
<rscale>  0 0.24996698E+04</rscale>
<asrwt>0</asrwt>
<pdfrwt beam="1">  1        1 0.15451850E+00 0.24996698E+04</pdfrwt>
<pdfrwt beam="2">  1       -1 0.23927544E+00 0.24996698E+04</pdfrwt>
<totfact> 0.10931980E+00</totfact>
</mgrwt>
</event>
<event>
 6    1  0.1028026E-006  0.1294379E+04  0.7818608E-02  0.9034035E-01
         -1   -1    0    0    0  501 -0.00000000000E+00  0.00000000000E+00  0.83165402537E+03  0.83165402537E+03  0.00000000000E+00 0.  1.
          1   -1    0    0  501    0  0.00000000000E+00 -0.00000000000E+00 -0.50363974006E+03  0.50363974006E+03  0.00000000000E+00 0. -1.
         23    2    1    2    0    0  0.21097994313E+03 -0.50152053992E+03  0.52038548263E+03  0.75819579634E+03  0.89579164352E+02 0.  0.
         13    1    3    3    0    0  0.19063174476E+03 -0.39280040395E+03  0.37521883931E+03  0.57569244986E+03  0.00000000000E+00 0. -1.
        -13    1    3    3    0    0  0.20348198366E+02 -0.10872013597E+03  0.14516664332E+03  0.18250334647E+03  0.00000000000E+00 0.  1.
         22    1    1    2    0    0 -0.21097994313E+03  0.50152053992E+03 -0.19237119732E+03  0.57709796909E+03  0.00000000000E+00 0.  1.
<mgrwt>
<rscale>  0 0.12943786E+04</rscale>
<asrwt>0</asrwt>
<pdfrwt beam="1">  1        1 0.77483037E-01 0.12943786E+04</pdfrwt>
<pdfrwt beam="2">  1       -1 0.12794677E+00 0.12943786E+04</pdfrwt>
<totfact> 0.22776605E+01</totfact>
</mgrwt>
</event>
<event>
 6    1  0.1028026E-006  0.2332972E+04  0.7818608E-02  0.8465033E-01
         -2   -1    0    0    0  501 -0.00000000000E+00  0.00000000000E+00  0.67552929841E+03  0.67552929841E+03  0.00000000000E+00 0.  1.
          2   -1    0    0  501    0  0.00000000000E+00 -0.00000000000E+00 -0.20142570544E+04  0.20142570544E+04  0.00000000000E+00 0. -1.
         23    2    1    2    0    0 -0.56870252392E+03  0.74516891079E+03  0.12689081063E+03  0.95003434486E+03  0.88117604740E+02 0.  0.
         11    1    3    3    0    0 -0.26192931591E+03  0.34869452243E+03  0.14848955739E+02  0.43636604816E+03  0.00000000000E+00 0. -1.
        -11    1    3    3    0    0 -0.30677320801E+03  0.39647438837E+03  0.11204185489E+03  0.51366829670E+03  0.00000000000E+00 0.  1.
         22    1    1    2    0    0  0.56870252392E+03 -0.74516891079E+03 -0.14656185666E+04  0.17397520079E+04  0.00000000000E+00 0. -1.
<mgrwt>
<rscale>  0 0.23329721E+04</rscale>
<asrwt>0</asrwt>
<pdfrwt beam="1">  1        2 0.30988570E+00 0.23329721E+04</pdfrwt>
<pdfrwt beam="2">  1       -2 0.10392759E+00 0.23329721E+04</pdfrwt>
<totfact> 0.44687179E+00</totfact>
</mgrwt>
</event>
<event>
 6    1  0.1028026E-006  0.2696151E+04  0.7818608E-02  0.8336255E-01
          1   -1    0    0  501    0  0.00000000000E+00  0.00000000000E+00  0.34092895772E+04  0.34092895772E+04  0.00000000000E+00 0. -1.
         -1   -1    0    0    0  501 -0.00000000000E+00 -0.00000000000E+00 -0.53304594100E+03  0.53304594100E+03  0.00000000000E+00 0.  1.
         23    2    1    2    0    0  0.10666138310E+04  0.65740806950E+03  0.21611759213E+04  0.24997086534E+04  0.89507288077E+02 0.  0.
         11    1    3    3    0    0  0.82086389708E+03  0.48300850694E+03  0.15741408967E+04  0.18398462756E+04  0.00000000000E+00 0. -1.
        -11    1    3    3    0    0  0.24574993389E+03  0.17439956256E+03  0.58703502465E+03  0.65986237777E+03  0.00000000000E+00 0.  1.
         22    1    1    2    0    0 -0.10666138310E+04 -0.65740806950E+03  0.71506771491E+03  0.14426268649E+04  0.00000000000E+00 0.  1.
<mgrwt>
<rscale>  0 0.26961513E+04</rscale>
<asrwt>0</asrwt>
<pdfrwt beam="1">  1        1 0.52450608E+00 0.26961513E+04</pdfrwt>
<pdfrwt beam="2">  1       -1 0.82007070E-01 0.26961513E+04</pdfrwt>
<totfact> 0.38018329E-01</totfact>
</mgrwt>
</event>
<event>
 6    1  0.1028026E-006  0.4567184E+04  0.7818608E-02  0.7898979E-01
         -2   -1    0    0    0  501 -0.00000000000E+00  0.00000000000E+00  0.17496754288E+04  0.17496754288E+04  0.00000000000E+00 0.  1.
          2   -1    0    0  501    0  0.00000000000E+00 -0.00000000000E+00 -0.29804337934E+04  0.29804337934E+04  0.00000000000E+00 0. -1.
         23    2    1    2    0    0  0.66097792422E+03 -0.11536245343E+04 -0.25373109729E+04  0.28660220192E+04  0.91618006397E+02 0.  0.
         13    1    3    3    0    0  0.36125854039E+03 -0.65046237812E+03 -0.13236248239E+04  0.15184175028E+04  0.00000000000E+00 0.  1.
        -13    1    3    3    0    0  0.29971938383E+03 -0.50316215620E+03 -0.12136861489E+04  0.13476045164E+04  0.00000000000E+00 0. -1.
         22    1    1    2    0    0 -0.66097792422E+03  0.11536245343E+04  0.13065526082E+04  0.18640872031E+04  0.00000000000E+00 0.  1.
<mgrwt>
<rscale>  0 0.45671837E+04</rscale>
<asrwt>0</asrwt>
<pdfrwt beam="1">  1        2 0.45852827E+00 0.45671837E+04</pdfrwt>
<pdfrwt beam="2">  1       -2 0.26918084E+00 0.45671837E+04</pdfrwt>
<totfact> 0.66141249E-02</totfact>
</mgrwt>
</event>
<event>
 6    1  0.1028026E-006  0.3016567E+04  0.7818608E-02  0.8239016E-01
         -2   -1    0    0    0  501 -0.00000000000E+00  0.00000000000E+00  0.96626037819E+03  0.96626037819E+03  0.00000000000E+00 0.  1.
          2   -1    0    0  501    0  0.00000000000E+00 -0.00000000000E+00 -0.23543534193E+04  0.23543534193E+04  0.00000000000E+00 0. -1.
         23    2    1    2    0    0 -0.46470402554E+03 -0.17359710673E+03  0.87168660229E+03  0.10070257133E+04  0.90429352135E+02 0.  0.
         11    1    3    3    0    0 -0.25441481546E+03 -0.10495206502E+03  0.39395412441E+03  0.48056392542E+03  0.00000000000E+00 0. -1.
        -11    1    3    3    0    0 -0.21028921008E+03 -0.68645041707E+02  0.47773247788E+03  0.52646178783E+03  0.00000000000E+00 0.  1.
         22    1    1    2    0    0  0.46470402554E+03  0.17359710673E+03 -0.22597796434E+04  0.23135880843E+04  0.00000000000E+00 0. -1.
<mgrwt>
<rscale>  0 0.30165665E+04</rscale>
<asrwt>0</asrwt>
<pdfrwt beam="1">  1        2 0.36220821E+00 0.30165665E+04</pdfrwt>
<pdfrwt beam="2">  1       -2 0.14865544E+00 0.30165665E+04</pdfrwt>
<totfact> 0.11073381E+00</totfact>
</mgrwt>
</event>
<event>
 6    1  0.1028026E-006  0.1400085E+04  0.7818608E-02  0.8953757E-01
          2   -1    0    0  501    0  0.00000000000E+00  0.00000000000E+00  0.20167427659E+04  0.20167427659E+04  0.00000000000E+00 0. -1.
         -2   -1    0    0    0  501 -0.00000000000E+00 -0.00000000000E+00 -0.24299570397E+03  0.24299570397E+03  0.00000000000E+00 0.  1.
         23    2    1    2    0    0  0.51341194238E+03  0.30599389148E+03  0.31181556247E+03  0.68035004604E+03  0.91777753020E+02 0.  0.
         11    1    3    3    0    0  0.17759087923E+03  0.13729022567E+03  0.77501817326E+02  0.23747348934E+03  0.00000000000E+00 0.  1.
        -11    1    3    3    0    0  0.33582106315E+03  0.16870366581E+03  0.23431374514E+03  0.44287655670E+03  0.00000000000E+00 0. -1.
         22    1    1    2    0    0 -0.51341194238E+03 -0.30599389148E+03  0.14619314995E+04  0.15793884239E+04  0.00000000000E+00 0. -1.
<mgrwt>
<rscale>  0 0.14000855E+04</rscale>
<asrwt>0</asrwt>
<pdfrwt beam="1">  1        2 0.31026811E+00 0.14000855E+04</pdfrwt>
<pdfrwt beam="2">  1       -2 0.37383956E-01 0.14000855E+04</pdfrwt>
<totfact> 0.42975305E+01</totfact>
</mgrwt>
</event>
<event>
 6    1  0.1028026E-006  0.1583611E+04  0.7818608E-02  0.8830680E-01
          2   -1    0    0  501    0  0.00000000000E+00  0.00000000000E+00  0.18710859372E+04  0.18710859372E+04  0.00000000000E+00 0. -1.
         -2   -1    0    0    0  501 -0.00000000000E+00 -0.00000000000E+00 -0.33507610634E+03  0.33507610634E+03  0.00000000000E+00 0.  1.
         23    2    1    2    0    0  0.57968648996E+03  0.53105795578E+03  0.67398135093E+03  0.10394778192E+04  0.90577570470E+02 0.  0.
         11    1    3    3    0    0  0.50650573432E+03  0.48068364547E+03  0.56085469680E+03  0.89563542630E+03  0.00000000000E+00 0. -1.
        -11    1    3    3    0    0  0.73180755638E+02  0.50374310316E+02  0.11312665413E+03  0.14384239295E+03  0.00000000000E+00 0.  1.
         22    1    1    2    0    0 -0.57968648996E+03 -0.53105795578E+03  0.86202847997E+03  0.11666842243E+04  0.00000000000E+00 0. -1.
<mgrwt>
<rscale>  0 0.15836113E+04</rscale>
<asrwt>0</asrwt>
<pdfrwt beam="1">  1        2 0.28785937E+00 0.15836113E+04</pdfrwt>
<pdfrwt beam="2">  1       -2 0.51550171E-01 0.15836113E+04</pdfrwt>
<totfact> 0.26892933E+01</totfact>
</mgrwt>
</event>
<event>
 6    1  0.1028026E-006  0.3873502E+04  0.7818608E-02  0.8030563E-01
         -2   -1    0    0    0  501 -0.00000000000E+00  0.00000000000E+00  0.16355927011E+04  0.16355927011E+04  0.00000000000E+00 0.  1.
          2   -1    0    0  501    0  0.00000000000E+00 -0.00000000000E+00 -0.22933609496E+04  0.22933609496E+04  0.00000000000E+00 0. -1.
         23    2    1    2    0    0 -0.52437185483E+03  0.94443688655E+03  0.12999389636E+04  0.16929875500E+04  0.97152768315E+02 0.  0.
         13    1    3    3    0    0 -0.15150665476E+03  0.34458076427E+03  0.50019979024E+03  0.62601118177E+03  0.00000000000E+00 0. -1.
        -13    1    3    3    0    0 -0.37286520006E+03  0.59985612228E+03  0.79973917341E+03  0.10669763682E+04  0.00000000000E+00 0.  1.
         22    1    1    2    0    0  0.52437185483E+03 -0.94443688655E+03 -0.19577072122E+04  0.22359661007E+04  0.00000000000E+00 0. -1.
<mgrwt>
<rscale>  0 0.38735020E+04</rscale>
<asrwt>0</asrwt>
<pdfrwt beam="1">  1        2 0.35282476E+00 0.38735020E+04</pdfrwt>
<pdfrwt beam="2">  1       -2 0.25162965E+00 0.38735020E+04</pdfrwt>
<totfact> 0.22888914E-01</totfact>
</mgrwt>
</event>
<event>
 6    1  0.1028026E-006  0.9641145E+03  0.7818608E-02  0.9348803E-01
         -1   -1    0    0    0  501 -0.00000000000E+00  0.00000000000E+00  0.10661956049E+03  0.10661956049E+03  0.00000000000E+00 0.  1.
          1   -1    0    0  501    0  0.00000000000E+00 -0.00000000000E+00 -0.21795174738E+04  0.21795174738E+04  0.00000000000E+00 0. -1.
         23    2    1    2    0    0  0.46725854511E+03  0.82948723800E+02 -0.11721258230E+04  0.12680007971E+04  0.93466773673E+02 0.  0.
         13    1    3    3    0    0  0.58995050390E+02  0.15352149750E+02 -0.24917336763E+03  0.25652187355E+03  0.00000000000E+00 0. -1.
        -13    1    3    3    0    0  0.40826349473E+03  0.67596574050E+02 -0.92295245535E+03  0.10114789235E+04  0.00000000000E+00 0.  1.
         22    1    1    2    0    0 -0.46725854511E+03 -0.82948723800E+02 -0.90077209037E+03  0.10181362372E+04  0.00000000000E+00 0.  1.
<mgrwt>
<rscale>  0 0.96411451E+03</rscale>
<asrwt>0</asrwt>
<pdfrwt beam="1">  1        1 0.33531037E+00 0.96411451E+03</pdfrwt>
<pdfrwt beam="2">  1       -1 0.16403010E-01 0.96411451E+03</pdfrwt>
<totfact> 0.64795175E+01</totfact>
</mgrwt>
</event>
<event>
 6    1  0.1028026E-006  0.2697676E+04  0.7818608E-02  0.8335760E-01
         -2   -1    0    0    0  501 -0.00000000000E+00  0.00000000000E+00  0.14293888196E+04  0.14293888196E+04  0.00000000000E+00 0.  1.
          2   -1    0    0  501    0  0.00000000000E+00 -0.00000000000E+00 -0.12728261661E+04  0.12728261661E+04  0.00000000000E+00 0. -1.
         23    2    1    2    0    0  0.93107747656E+03 -0.17768641151E+03 -0.88072476643E+03  0.12970662678E+04  0.90703145241E+02 0.  0.
         13    1    3    3    0    0  0.50378401369E+03 -0.13177569976E+03 -0.52119463981E+03  0.73675438245E+03  0.00000000000E+00 0.  1.
        -13    1    3    3    0    0  0.42729346288E+03 -0.45910711752E+02 -0.35953012662E+03  0.56031188531E+03  0.00000000000E+00 0. -1.
         22    1    1    2    0    0 -0.93107747656E+03  0.17768641151E+03  0.10372874199E+04  0.14051487180E+04  0.00000000000E+00 0.  1.
<mgrwt>
<rscale>  0 0.26976757E+04</rscale>
<asrwt>0</asrwt>
<pdfrwt beam="1">  1        2 0.19581941E+00 0.26976757E+04</pdfrwt>
<pdfrwt beam="2">  1       -2 0.21990597E+00 0.26976757E+04</pdfrwt>
<totfact> 0.14892496E+00</totfact>
</mgrwt>
</event>
<event>
 6    1  0.1028026E-006  0.5296789E+03  0.7818608E-02  0.1006310E+00
          2   -1    0    0  501    0  0.00000000000E+00  0.00000000000E+00  0.59506402014E+03  0.59506402014E+03  0.00000000000E+00 0. -1.
         -2   -1    0    0    0  501 -0.00000000000E+00 -0.00000000000E+00 -0.11786957590E+03  0.11786957590E+03  0.00000000000E+00 0.  1.
         23    2    1    2    0    0 -0.13580814785E+03  0.82309597725E+02  0.51780692982E+03  0.54901868860E+03  0.89882039137E+02 0.  0.
         13    1    3    3    0    0 -0.62151918332E+02  0.33771187024E+02  0.37152227848E+03  0.37819592466E+03  0.00000000000E+00 0.  1.
        -13    1    3    3    0    0 -0.73656229518E+02  0.48538410701E+02  0.14628465134E+03  0.17082276393E+03  0.00000000000E+00 0. -1.
         22    1    1    2    0    0  0.13580814785E+03 -0.82309597725E+02 -0.40612485579E+02  0.16391490745E+03  0.00000000000E+00 0.  1.
<mgrwt>
<rscale>  0 0.52967894E+03</rscale>
<asrwt>0</asrwt>
<pdfrwt beam="1">  1        2 0.91548309E-01 0.52967894E+03</pdfrwt>
<pdfrwt beam="2">  1       -2 0.18133781E-01 0.52967894E+03</pdfrwt>
<totfact> 0.12702353E+03</totfact>
</mgrwt>
</event>
<event>
 6    1  0.1028026E-006  0.2478499E+04  0.7818608E-02  0.8410686E-01
         -1   -1    0    0    0  501 -0.00000000000E+00  0.00000000000E+00  0.81689593478E+03  0.81689593478E+03  0.00000000000E+00 0.  1.
          1   -1    0    0  501    0  0.00000000000E+00 -0.00000000000E+00 -0.18799695733E+04  0.18799695733E+04  0.00000000000E+00 0. -1.
         23    2    1    2    0    0  0.98828200292E+03 -0.50288345357E+02  0.27642963439E+03  0.10314828934E+04  0.91177748006E+02 0.  0.
         13    1    3    3    0    0  0.47720721428E+03  0.19964118160E+02  0.14438510640E+03  0.49897129209E+03  0.00000000000E+00 0. -1.
        -13    1    3    3    0    0  0.51107478864E+03 -0.70252463517E+02  0.13204452799E+03  0.53251160136E+03  0.00000000000E+00 0.  1.
         22    1    1    2    0    0 -0.98828200292E+03  0.50288345357E+02 -0.13395032729E+04  0.16653826146E+04  0.00000000000E+00 0.  1.
<mgrwt>
<rscale>  0 0.24784991E+04</rscale>
<asrwt>0</asrwt>
<pdfrwt beam="1">  1        1 0.28922609E+00 0.24784991E+04</pdfrwt>
<pdfrwt beam="2">  1       -1 0.12567630E+00 0.24784991E+04</pdfrwt>
<totfact> 0.17664845E+00</totfact>
</mgrwt>
</event>
<event>
 6    1  0.1028026E-006  0.2702259E+04  0.7818608E-02  0.8334272E-01
         -2   -1    0    0    0  501 -0.00000000000E+00  0.00000000000E+00  0.80444187759E+03  0.80444187759E+03  0.00000000000E+00 0.  1.
          2   -1    0    0  501    0  0.00000000000E+00 -0.00000000000E+00 -0.22693393255E+04  0.22693393255E+04  0.00000000000E+00 0. -1.
         23    2    1    2    0    0 -0.78256158059E+02 -0.11241076784E+04  0.11150949577E+03  0.11360503262E+04  0.91836142770E+02 0.  0.
         13    1    3    3    0    0 -0.72999343854E+02 -0.50027426780E+03  0.75252832042E+02  0.51114208979E+03  0.00000000000E+00 0. -1.
        -13    1    3    3    0    0 -0.52568142058E+01 -0.62383341064E+03  0.36256663725E+02  0.62490823646E+03  0.00000000000E+00 0.  1.
         22    1    1    2    0    0  0.78256158059E+02  0.11241076784E+04 -0.15764069437E+04  0.19377308769E+04  0.00000000000E+00 0. -1.
<mgrwt>
<rscale>  0 0.27022595E+04</rscale>
<asrwt>0</asrwt>
<pdfrwt beam="1">  1        2 0.34912912E+00 0.27022595E+04</pdfrwt>
<pdfrwt beam="2">  1       -2 0.12376029E+00 0.27022595E+04</pdfrwt>
<totfact> 0.20345860E+00</totfact>
</mgrwt>
</event>
<event>
 6    1  0.1028026E-006  0.2592004E+04  0.7818608E-02  0.8370922E-01
          1   -1    0    0  501    0  0.00000000000E+00  0.00000000000E+00  0.14839589761E+04  0.14839589761E+04  0.00000000000E+00 0. -1.
         -1   -1    0    0    0  501 -0.00000000000E+00 -0.00000000000E+00 -0.11318515264E+04  0.11318515264E+04  0.00000000000E+00 0.  1.
         23    2    1    2    0    0  0.78066349322E+03  0.57710072439E+03  0.10402472357E+04  0.14258453346E+04  0.91868771207E+02 0.  0.
         11    1    3    3    0    0  0.12646515286E+03  0.63735409992E+02  0.18475761063E+03  0.23278963049E+03  0.00000000000E+00 0.  1.
        -11    1    3    3    0    0  0.65419834035E+03  0.51336531440E+03  0.85548962503E+03  0.11930557041E+04  0.00000000000E+00 0. -1.
         22    1    1    2    0    0 -0.78066349322E+03 -0.57710072439E+03 -0.68813978605E+03  0.11899651679E+04  0.00000000000E+00 0.  1.
<mgrwt>
<rscale>  0 0.25920040E+04</rscale>
<asrwt>0</asrwt>
<pdfrwt beam="1">  1        1 0.22830138E+00 0.25920040E+04</pdfrwt>
<pdfrwt beam="2">  1       -1 0.17413100E+00 0.25920040E+04</pdfrwt>
<totfact> 0.13577133E+00</totfact>
</mgrwt>
</event>
<event>
 6    1  0.1028026E-006  0.2741453E+04  0.7818608E-02  0.8321679E-01
          2   -1    0    0  501    0  0.00000000000E+00  0.00000000000E+00  0.64903090607E+03  0.64903090607E+03  0.00000000000E+00 0. -1.
         -2   -1    0    0    0  501 -0.00000000000E+00 -0.00000000000E+00 -0.28949179774E+04  0.28949179774E+04  0.00000000000E+00 0.  1.
         23    2    1    2    0    0 -0.54303745499E+03 -0.30092716157E+02  0.50018775983E+03  0.74453426119E+03  0.91368604620E+02 0.  0.
         11    1    3    3    0    0 -0.33377381388E+03  0.25430427874E+02  0.31456115075E+03  0.45934778007E+03  0.00000000000E+00 0.  1.
        -11    1    3    3    0    0 -0.20926364111E+03 -0.55523144031E+02  0.18562660908E+03  0.28518648112E+03  0.00000000000E+00 0. -1.
         22    1    1    2    0    0  0.54303745499E+03  0.30092716157E+02 -0.27460748312E+04  0.27994146223E+04  0.00000000000E+00 0.  1.
<mgrwt>
<rscale>  0 0.27414531E+04</rscale>
<asrwt>0</asrwt>
<pdfrwt beam="1">  1        2 0.99850909E-01 0.27414531E+04</pdfrwt>
<pdfrwt beam="2">  1       -2 0.44537199E+00 0.27414531E+04</pdfrwt>
<totfact> 0.14650537E-01</totfact>
</mgrwt>
</event>
<event>
 6    1  0.1028026E-006  0.1910118E+04  0.7818608E-02  0.8649836E-01
         -2   -1    0    0    0  501 -0.00000000000E+00  0.00000000000E+00  0.27744154401E+03  0.27744154401E+03  0.00000000000E+00 0.  1.
          2   -1    0    0  501    0  0.00000000000E+00 -0.00000000000E+00 -0.32876751424E+04  0.32876751424E+04  0.00000000000E+00 0. -1.
         23    2    1    2    0    0  0.39724989859E+03  0.71951254606E+03 -0.60847586571E+03  0.10266238280E+04  0.90597015180E+02 0.  0.
         11    1    3    3    0    0  0.37782399426E+03  0.64073461375E+03 -0.56828979196E+03  0.93607964594E+03  0.00000000000E+00 0. -1.
        -11    1    3    3    0    0  0.19425904324E+02  0.78777932305E+02 -0.40186073748E+02  0.90544182035E+02  0.00000000000E+00 0.  1.
         22    1    1    2    0    0 -0.39724989859E+03 -0.71951254606E+03 -0.24017577326E+04  0.25384928584E+04  0.00000000000E+00 0. -1.
<mgrwt>
<rscale>  0 0.19101180E+04</rscale>
<asrwt>0</asrwt>
<pdfrwt beam="1">  1        2 0.50579618E+00 0.19101180E+04</pdfrwt>
<pdfrwt beam="2">  1       -2 0.42683314E-01 0.19101180E+04</pdfrwt>
<totfact> 0.55547913E+00</totfact>
</mgrwt>
</event>
<event>
 6    1  0.1028026E-006  0.2284039E+04  0.7818608E-02  0.8484241E-01
         -2   -1    0    0    0  501 -0.00000000000E+00  0.00000000000E+00  0.14473554449E+04  0.14473554449E+04  0.00000000000E+00 0.  1.
          2   -1    0    0  501    0  0.00000000000E+00 -0.00000000000E+00 -0.90109744635E+03  0.90109744635E+03  0.00000000000E+00 0. -1.
         23    2    1    2    0    0 -0.66198075515E+03 -0.27753770355E+03  0.11844602248E+04  0.13879593834E+04  0.90771849359E+02 0.  0.
         13    1    3    3    0    0 -0.47374263706E+03 -0.21494275436E+03  0.92629150630E+03  0.10623786653E+04  0.00000000000E+00 0.  1.
        -13    1    3    3    0    0 -0.18823811808E+03 -0.62594949189E+02  0.25816871851E+03  0.32558071807E+03  0.00000000000E+00 0. -1.
         22    1    1    2    0    0  0.66198075515E+03  0.27753770355E+03 -0.63820222626E+03  0.96049350788E+03  0.00000000000E+00 0. -1.
<mgrwt>
<rscale>  0 0.22840388E+04</rscale>
<asrwt>0</asrwt>
<pdfrwt beam="1">  1        2 0.13863038E+00 0.22840388E+04</pdfrwt>
<pdfrwt beam="2">  1       -2 0.22267007E+00 0.22840388E+04</pdfrwt>
<totfact> 0.25253671E+00</totfact>
</mgrwt>
</event>
<event>
 6    1  0.1028026E-006  0.2608264E+04  0.7818608E-02  0.8365399E-01
          1   -1    0    0  501    0  0.00000000000E+00  0.00000000000E+00  0.11933607088E+04  0.11933607088E+04  0.00000000000E+00 0. -1.
         -1   -1    0    0    0  501 -0.00000000000E+00 -0.00000000000E+00 -0.14251857810E+04  0.14251857810E+04  0.00000000000E+00 0.  1.
         23    2    1    2    0    0 -0.62812471357E+03 -0.11090326450E+04  0.15334265941E+03  0.12870630146E+04  0.92321009873E+02 0.  0.
         13    1    3    3    0    0 -0.31604132075E+03 -0.62028451671E+03  0.11810614307E+03  0.70610484995E+03  0.00000000000E+00 0. -1.
        -13    1    3    3    0    0 -0.31208339282E+03 -0.48874812829E+03  0.35236516339E+02  0.58095816464E+03  0.00000000000E+00 0.  1.
         22    1    1    2    0    0  0.62812471357E+03  0.11090326450E+04 -0.38516773158E+03  0.13314834753E+04  0.00000000000E+00 0. -1.
<mgrwt>
<rscale>  0 0.26082643E+04</rscale>
<asrwt>0</asrwt>
<pdfrwt beam="1">  1        1 0.18359396E+00 0.26082643E+04</pdfrwt>
<pdfrwt beam="2">  1       -1 0.21925935E+00 0.26082643E+04</pdfrwt>
<totfact> 0.10586811E+00</totfact>
</mgrwt>
</event>
<event>
 6    1  0.1028026E-006  0.1211465E+04  0.7818608E-02  0.9102880E-01
          2   -1    0    0  501    0  0.00000000000E+00  0.00000000000E+00  0.10950788188E+04  0.10950788188E+04  0.00000000000E+00 0. -1.
         -2   -1    0    0    0  501 -0.00000000000E+00 -0.00000000000E+00 -0.33505525931E+03  0.33505525931E+03  0.00000000000E+00 0.  1.
         23    2    1    2    0    0  0.42637665312E+03  0.35354812126E+03  0.10625489198E+03  0.57327539956E+03  0.10276797800E+03 0.  0.
         11    1    3    3    0    0  0.27999807870E+03  0.29065700565E+03  0.65931739617E+02  0.40893448534E+03  0.00000000000E+00 0. -1.
        -11    1    3    3    0    0  0.14637857442E+03  0.62891115610E+02  0.40323152366E+02  0.16434091423E+03  0.00000000000E+00 0.  1.
         22    1    1    2    0    0 -0.42637665312E+03 -0.35354812126E+03  0.65376866750E+03  0.85685867854E+03  0.00000000000E+00 0. -1.
<mgrwt>
<rscale>  0 0.12114651E+04</rscale>
<asrwt>0</asrwt>
<pdfrwt beam="1">  1        2 0.16847366E+00 0.12114651E+04</pdfrwt>
<pdfrwt beam="2">  1       -2 0.51546963E-01 0.12114651E+04</pdfrwt>
<totfact> 0.76893806E+01</totfact>
</mgrwt>
</event>
<event>
 6    1  0.1028026E-006  0.2495446E+04  0.7818608E-02  0.8404610E-01
         -2   -1    0    0    0  501 -0.00000000000E+00  0.00000000000E+00  0.46149717586E+03  0.46149717586E+03  0.00000000000E+00 0.  1.
          2   -1    0    0  501    0  0.00000000000E+00 -0.00000000000E+00 -0.33733963277E+04  0.33733963277E+04  0.00000000000E+00 0. -1.
         23    2    1    2    0    0  0.19684090836E+03  0.58361769571E+03 -0.31224927800E+04  0.31839667533E+04  0.91253311679E+02 0.  0.
         13    1    3    3    0    0  0.16221071444E+03  0.39571464479E+03 -0.19861642874E+04  0.20316867309E+04  0.00000000000E+00 0.  1.
        -13    1    3    3    0    0  0.34630193919E+02  0.18790305091E+03 -0.11363284927E+04  0.11522800224E+04  0.00000000000E+00 0. -1.
         22    1    1    2    0    0 -0.19684090836E+03 -0.58361769571E+03  0.21059362819E+03  0.65092675024E+03  0.00000000000E+00 0.  1.
<mgrwt>
<rscale>  0 0.24954462E+04</rscale>
<asrwt>0</asrwt>
<pdfrwt beam="1">  1        2 0.51898405E+00 0.24954462E+04</pdfrwt>
<pdfrwt beam="2">  1       -2 0.70999566E-01 0.24954462E+04</pdfrwt>
<totfact> 0.15997816E+00</totfact>
</mgrwt>
</event>
<event>
 6    1  0.1028026E-006  0.3553849E+04  0.7818608E-02  0.8101146E-01
          2   -1    0    0  501    0  0.00000000000E+00  0.00000000000E+00  0.18839573752E+04  0.18839573752E+04  0.00000000000E+00 0. -1.
         -2   -1    0    0    0  501 -0.00000000000E+00 -0.00000000000E+00 -0.16759722869E+04  0.16759722869E+04  0.00000000000E+00 0.  1.
         23    2    1    2    0    0 -0.15518634832E+04 -0.16101447303E+03 -0.74543009988E+03  0.17314859380E+04  0.90396839083E+02 0.  0.
         11    1    3    3    0    0 -0.98874586039E+03 -0.14621688670E+03 -0.47683186438E+03  0.11074142772E+04  0.00000000000E+00 0. -1.
        -11    1    3    3    0    0 -0.56311762283E+03 -0.14797586331E+02 -0.26859823550E+03  0.62407166080E+03  0.00000000000E+00 0.  1.
         22    1    1    2    0    0  0.15518634832E+04  0.16101447303E+03  0.95341518825E+03  0.18284437241E+04  0.00000000000E+00 0. -1.
<mgrwt>
<rscale>  0 0.35538488E+04</rscale>
<asrwt>0</asrwt>
<pdfrwt beam="1">  1        2 0.28983959E+00 0.35538488E+04</pdfrwt>
<pdfrwt beam="2">  1       -2 0.25784189E+00 0.35538488E+04</pdfrwt>
<totfact> 0.36473310E-01</totfact>
</mgrwt>
</event>
<event>
 6    1  0.1028026E-006  0.3547713E+04  0.7818608E-02  0.8102575E-01
          2   -1    0    0  501    0  0.00000000000E+00  0.00000000000E+00  0.28614362000E+04  0.28614362000E+04  0.00000000000E+00 0. -1.
         -2   -1    0    0    0  501 -0.00000000000E+00 -0.00000000000E+00 -0.10996459200E+04  0.10996459200E+04  0.00000000000E+00 0.  1.
         23    2    1    2    0    0  0.13255406673E+04 -0.72259024613E+03  0.19186962831E+04  0.24432500416E+04  0.94237012963E+02 0.  0.
         13    1    3    3    0    0  0.11549138213E+04 -0.59768060803E+03  0.16225025076E+04  0.20793177802E+04  0.00000000000E+00 0.  1.
        -13    1    3    3    0    0  0.17062684605E+03 -0.12490963810E+03  0.29619377547E+03  0.36393226143E+03  0.00000000000E+00 0. -1.
         22    1    1    2    0    0 -0.13255406673E+04  0.72259024613E+03 -0.15690600310E+03  0.15178320785E+04  0.00000000000E+00 0.  1.
<mgrwt>
<rscale>  0 0.35477129E+04</rscale>
<asrwt>0</asrwt>
<pdfrwt beam="1">  1        2 0.44022095E+00 0.35477129E+04</pdfrwt>
<pdfrwt beam="2">  1       -2 0.16917630E+00 0.35477129E+04</pdfrwt>
<totfact> 0.37498003E-01</totfact>
</mgrwt>
</event>
<event>
 6    1  0.1028026E-006  0.2314376E+04  0.7818608E-02  0.8472274E-01
          1   -1    0    0  501    0  0.00000000000E+00  0.00000000000E+00  0.91952119227E+03  0.91952119227E+03  0.00000000000E+00 0. -1.
         -1   -1    0    0    0  501 -0.00000000000E+00 -0.00000000000E+00 -0.14562845879E+04  0.14562845879E+04  0.00000000000E+00 0.  1.
         23    2    1    2    0    0 -0.65048983362E+03  0.87875850790E+03  0.11538858000E+03  0.11027560018E+04  0.86039155372E+02 0.  0.
         11    1    3    3    0    0 -0.36398052431E+02  0.52308948653E+02  0.27435727429E+02  0.69381290486E+02  0.00000000000E+00 0.  1.
        -11    1    3    3    0    0 -0.61409178119E+03  0.82644955925E+03  0.87952852572E+02  0.10333747113E+04  0.00000000000E+00 0. -1.
         22    1    1    2    0    0  0.65048983362E+03 -0.87875850790E+03 -0.65215197559E+03  0.12730497783E+04  0.00000000000E+00 0.  1.
<mgrwt>
<rscale>  0 0.23143764E+04</rscale>
<asrwt>0</asrwt>
<pdfrwt beam="1">  1        1 0.14146480E+00 0.23143764E+04</pdfrwt>
<pdfrwt beam="2">  1       -1 0.22404378E+00 0.23143764E+04</pdfrwt>
<totfact> 0.16373188E+00</totfact>
</mgrwt>
</event>
<event>
 6    1  0.1028026E-006  0.3142024E+04  0.7818608E-02  0.8204299E-01
         -2   -1    0    0    0  501 -0.00000000000E+00  0.00000000000E+00  0.10370985837E+04  0.10370985837E+04  0.00000000000E+00 0.  1.
          2   -1    0    0  501    0  0.00000000000E+00 -0.00000000000E+00 -0.23797914131E+04  0.23797914131E+04  0.00000000000E+00 0. -1.
         23    2    1    2    0    0 -0.65003865538E+03 -0.12344002858E+04  0.11040793259E+03  0.14024927808E+04  0.92205040572E+02 0.  0.
         11    1    3    3    0    0 -0.52403447718E+03 -0.10317272485E+04  0.12177475846E+03  0.11635730919E+04  0.00000000000E+00 0. -1.
        -11    1    3    3    0    0 -0.12600417820E+03 -0.20267303733E+03 -0.11366825863E+02  0.23891968884E+03  0.00000000000E+00 0.  1.
         22    1    1    2    0    0  0.65003865538E+03  0.12344002858E+04 -0.14531007620E+04  0.20143972160E+04  0.00000000000E+00 0. -1.
<mgrwt>
<rscale>  0 0.31420237E+04</rscale>
<asrwt>0</asrwt>
<pdfrwt beam="1">  1        2 0.36612175E+00 0.31420237E+04</pdfrwt>
<pdfrwt beam="2">  1       -2 0.15955363E+00 0.31420237E+04</pdfrwt>
<totfact> 0.87670856E-01</totfact>
</mgrwt>
</event>
<event>
 6    1  0.1028026E-006  0.3427530E+04  0.7818608E-02  0.8131182E-01
         -2   -1    0    0    0  501 -0.00000000000E+00  0.00000000000E+00  0.11270859659E+04  0.11270859659E+04  0.00000000000E+00 0.  1.
          2   -1    0    0  501    0  0.00000000000E+00 -0.00000000000E+00 -0.26058263244E+04  0.26058263244E+04  0.00000000000E+00 0. -1.
         23    2    1    2    0    0 -0.12104039609E+04  0.13774196591E+03  0.57130587765E+03  0.13482235961E+04  0.85240023019E+02 0.  0.
         11    1    3    3    0    0 -0.10441221560E+04  0.89344879302E+02  0.48503807797E+03  0.11547447862E+04  0.00000000000E+00 0.  1.
        -11    1    3    3    0    0 -0.16628180494E+03  0.48397086607E+02  0.86267799685E+02  0.19347880997E+03  0.00000000000E+00 0. -1.
         22    1    1    2    0    0  0.12104039609E+04 -0.13774196591E+03 -0.20500462361E+04  0.23846886941E+04  0.00000000000E+00 0. -1.
<mgrwt>
<rscale>  0 0.34275299E+04</rscale>
<asrwt>0</asrwt>
<pdfrwt beam="1">  1        2 0.40089636E+00 0.34275299E+04</pdfrwt>
<pdfrwt beam="2">  1       -2 0.17339784E+00 0.34275299E+04</pdfrwt>
<totfact> 0.50314929E-01</totfact>
</mgrwt>
</event>
<event>
 6    1  0.1028026E-006  0.2643313E+04  0.7818608E-02  0.8353636E-01
         -2   -1    0    0    0  501 -0.00000000000E+00  0.00000000000E+00  0.10320409064E+04  0.10320409064E+04  0.00000000000E+00 0.  1.
          2   -1    0    0  501    0  0.00000000000E+00 -0.00000000000E+00 -0.16925451517E+04  0.16925451517E+04  0.00000000000E+00 0. -1.
         23    2    1    2    0    0  0.58809215683E+03 -0.44485800029E+03 -0.14592480763E+04  0.16375061470E+04  0.90941783080E+02 0.  0.
         13    1    3    3    0    0  0.55777092244E+03 -0.40276928401E+03 -0.13129726914E+04  0.14823052271E+04  0.00000000000E+00 0. -1.
        -13    1    3    3    0    0  0.30321234392E+02 -0.42088716281E+02 -0.14627538496E+03  0.15520091990E+03  0.00000000000E+00 0.  1.
         22    1    1    2    0    0 -0.58809215683E+03  0.44485800029E+03  0.79874383108E+03  0.10870799111E+04  0.00000000000E+00 0.  1.
<mgrwt>
<rscale>  0 0.26433129E+04</rscale>
<asrwt>0</asrwt>
<pdfrwt beam="1">  1        2 0.26039156E+00 0.26433129E+04</pdfrwt>
<pdfrwt beam="2">  1       -2 0.15877553E+00 0.26433129E+04</pdfrwt>
<totfact> 0.22450443E+00</totfact>
</mgrwt>
</event>
<event>
 6    1  0.1028026E-006  0.2825984E+04  0.7818608E-02  0.8295247E-01
         -2   -1    0    0    0  501 -0.00000000000E+00  0.00000000000E+00  0.13929559840E+04  0.13929559840E+04  0.00000000000E+00 0.  1.
          2   -1    0    0  501    0  0.00000000000E+00 -0.00000000000E+00 -0.14333161153E+04  0.14333161153E+04  0.00000000000E+00 0. -1.
         23    2    1    2    0    0 -0.11740654969E+03 -0.13991701191E+04  0.12425892871E+03  0.14125674784E+04  0.91898201874E+02 0.  0.
         11    1    3    3    0    0 -0.40448823422E+02 -0.92567034532E+03  0.58918704693E+02  0.92842506928E+03  0.00000000000E+00 0. -1.
        -11    1    3    3    0    0 -0.76957726270E+02 -0.47349977381E+03  0.65340224017E+02  0.48414240912E+03  0.00000000000E+00 0.  1.
         22    1    1    2    0    0  0.11740654969E+03  0.13991701191E+04 -0.16461906009E+03  0.14137046209E+04  0.00000000000E+00 0. -1.
<mgrwt>
<rscale>  0 0.28259839E+04</rscale>
<asrwt>0</asrwt>
<pdfrwt beam="1">  1        2 0.22051017E+00 0.28259839E+04</pdfrwt>
<pdfrwt beam="2">  1       -2 0.21430092E+00 0.28259839E+04</pdfrwt>
<totfact> 0.12922927E+00</totfact>
</mgrwt>
</event>
<event>
 6    1  0.1028026E-006  0.4781978E+04  0.7818608E-02  0.7863048E-01
          1   -1    0    0  501    0  0.00000000000E+00  0.00000000000E+00  0.42673385456E+04  0.42673385456E+04  0.00000000000E+00 0. -1.
         -1   -1    0    0    0  501 -0.00000000000E+00 -0.00000000000E+00 -0.13396709334E+04  0.13396709334E+04  0.00000000000E+00 0.  1.
         23    2    1    2    0    0  0.14820504044E+04  0.17812211441E+04  0.77729174971E+03  0.24457852675E+04  0.91983398180E+02 0.  0.
         13    1    3    3    0    0  0.43714608506E+03  0.51226404097E+03  0.18298524692E+03  0.69785008988E+03  0.00000000000E+00 0. -1.
        -13    1    3    3    0    0  0.10449043193E+04  0.12689571031E+04  0.59430650280E+03  0.17479351776E+04  0.00000000000E+00 0.  1.
         22    1    1    2    0    0 -0.14820504044E+04 -0.17812211441E+04  0.21503758625E+04  0.31612242115E+04  0.00000000000E+00 0. -1.
<mgrwt>
<rscale>  0 0.47819784E+04</rscale>
<asrwt>0</asrwt>
<pdfrwt beam="1">  1        1 0.65651362E+00 0.47819784E+04</pdfrwt>
<pdfrwt beam="2">  1       -1 0.20610322E+00 0.47819784E+04</pdfrwt>
<totfact> 0.54583079E-03</totfact>
</mgrwt>
</event>
<event>
 6    1  0.1028026E-006  0.3110314E+04  0.7818608E-02  0.8212913E-01
         -1   -1    0    0    0  501 -0.00000000000E+00  0.00000000000E+00  0.16859483257E+04  0.16859483257E+04  0.00000000000E+00 0.  1.
          1   -1    0    0  501    0  0.00000000000E+00 -0.00000000000E+00 -0.14345121745E+04  0.14345121745E+04  0.00000000000E+00 0. -1.
         23    2    1    2    0    0  0.12601269056E+04  0.58321294976E+03  0.82544571522E+03  0.16179478904E+04  0.91310373207E+02 0.  0.
         13    1    3    3    0    0  0.91753874164E+03  0.39903318713E+03  0.63311822826E+03  0.11840369579E+04  0.00000000000E+00 0.  1.
        -13    1    3    3    0    0  0.34258816398E+03  0.18417976263E+03  0.19232748696E+03  0.43391093246E+03  0.00000000000E+00 0. -1.
         22    1    1    2    0    0 -0.12601269056E+04 -0.58321294976E+03 -0.57400956401E+03  0.15025126098E+04  0.00000000000E+00 0. -1.
<mgrwt>
<rscale>  0 0.31103141E+04</rscale>
<asrwt>0</asrwt>
<pdfrwt beam="1">  1        1 0.22069418E+00 0.31103141E+04</pdfrwt>
<pdfrwt beam="2">  1       -1 0.25937667E+00 0.31103141E+04</pdfrwt>
<totfact> 0.37101250E-01</totfact>
</mgrwt>
</event>
<event>
 6    1  0.1028026E-006  0.1419765E+04  0.7818608E-02  0.8939635E-01
          1   -1    0    0  501    0  0.00000000000E+00  0.00000000000E+00  0.30261786751E+03  0.30261786751E+03  0.00000000000E+00 0. -1.
         -1   -1    0    0    0  501 -0.00000000000E+00 -0.00000000000E+00 -0.16652451239E+04  0.16652451239E+04  0.00000000000E+00 0.  1.
         23    2    1    2    0    0  0.50152820284E+03  0.33495184557E+03 -0.17218275978E+03  0.63336631603E+03  0.88219671363E+02 0.  0.
         13    1    3    3    0    0  0.11373378741E+03  0.36329747792E+02 -0.22090527886E+02  0.12142164714E+03  0.00000000000E+00 0. -1.
        -13    1    3    3    0    0  0.38779441544E+03  0.29862209778E+03 -0.15009223189E+03  0.51194466888E+03  0.00000000000E+00 0.  1.
         22    1    1    2    0    0 -0.50152820284E+03 -0.33495184557E+03 -0.11904444966E+04  0.13344966754E+04  0.00000000000E+00 0.  1.
<mgrwt>
<rscale>  0 0.14197647E+04</rscale>
<asrwt>0</asrwt>
<pdfrwt beam="1">  1        1 0.46556594E-01 0.14197647E+04</pdfrwt>
<pdfrwt beam="2">  1       -1 0.25619156E+00 0.14197647E+04</pdfrwt>
<totfact> 0.53672666E+00</totfact>
</mgrwt>
</event>
<event>
 6    1  0.1028026E-006  0.2256824E+04  0.7818608E-02  0.8495142E-01
         -1   -1    0    0    0  501 -0.00000000000E+00  0.00000000000E+00  0.93093267242E+03  0.93093267242E+03  0.00000000000E+00 0.  1.
          1   -1    0    0  501    0  0.00000000000E+00 -0.00000000000E+00 -0.13677826649E+04  0.13677826649E+04  0.00000000000E+00 0. -1.
         23    2    1    2    0    0 -0.70054455390E+03 -0.85623759786E+03 -0.43571195056E+03  0.11924121279E+04  0.89979347675E+02 0.  0.
         11    1    3    3    0    0 -0.51259666242E+03 -0.67814833922E+03 -0.31289248241E+03  0.90583785186E+03  0.00000000000E+00 0.  1.
        -11    1    3    3    0    0 -0.18794789148E+03 -0.17808925864E+03 -0.12281946814E+03  0.28657427607E+03  0.00000000000E+00 0. -1.
         22    1    1    2    0    0  0.70054455390E+03  0.85623759786E+03 -0.11380419308E+01  0.11063032094E+04  0.00000000000E+00 0.  1.
<mgrwt>
<rscale>  0 0.22568239E+04</rscale>
<asrwt>0</asrwt>
<pdfrwt beam="1">  1        1 0.21042810E+00 0.22568239E+04</pdfrwt>
<pdfrwt beam="2">  1       -1 0.14322041E+00 0.22568239E+04</pdfrwt>
<totfact> 0.28998247E+00</totfact>
</mgrwt>
</event>
<event>
 6    1  0.1028026E-006  0.2424314E+04  0.7818608E-02  0.8430457E-01
          1   -1    0    0  501    0  0.00000000000E+00  0.00000000000E+00  0.13802771122E+04  0.13802771122E+04  0.00000000000E+00 0. -1.
         -1   -1    0    0    0  501 -0.00000000000E+00 -0.00000000000E+00 -0.10645138908E+04  0.10645138908E+04  0.00000000000E+00 0.  1.
         23    2    1    2    0    0  0.13794575765E+03 -0.72420051416E+03  0.11263942794E+04  0.13490637883E+04  0.87827191335E+02 0.  0.
         13    1    3    3    0    0  0.58861416065E+02 -0.51680154614E+03  0.77097686839E+03  0.93002894363E+03  0.00000000000E+00 0.  1.
        -13    1    3    3    0    0  0.79084341586E+02 -0.20739896802E+03  0.35541741100E+03  0.41903484469E+03  0.00000000000E+00 0. -1.
         22    1    1    2    0    0 -0.13794575765E+03  0.72420051416E+03 -0.81063105806E+03  0.10957272147E+04  0.00000000000E+00 0.  1.
<mgrwt>
<rscale>  0 0.24243136E+04</rscale>
<asrwt>0</asrwt>
<pdfrwt beam="1">  1        1 0.21235033E+00 0.24243136E+04</pdfrwt>
<pdfrwt beam="2">  1       -1 0.16377137E+00 0.24243136E+04</pdfrwt>
<totfact> 0.19417786E+00</totfact>
</mgrwt>
</event>
<event>
 6    1  0.1028026E-006  0.4610022E+04  0.7818608E-02  0.7891653E-01
         -2   -1    0    0    0  501 -0.00000000000E+00  0.00000000000E+00  0.21093434235E+04  0.21093434235E+04  0.00000000000E+00 0.  1.
          2   -1    0    0  501    0  0.00000000000E+00 -0.00000000000E+00 -0.25188293825E+04  0.25188293825E+04  0.00000000000E+00 0. -1.
         23    2    1    2    0    0  0.97693135323E+03 -0.20576612248E+04 -0.55383247673E+03  0.23458055038E+04  0.87797861759E+02 0.  0.
         11    1    3    3    0    0  0.43895941520E+03 -0.99248496228E+03 -0.29751572744E+03  0.11252676911E+04  0.00000000000E+00 0.  1.
        -11    1    3    3    0    0  0.53797193803E+03 -0.10651762625E+04 -0.25631674929E+03  0.12205378127E+04  0.00000000000E+00 0. -1.
         22    1    1    2    0    0 -0.97693135323E+03  0.20576612248E+04  0.14434651776E+03  0.22823673022E+04  0.00000000000E+00 0.  1.
<mgrwt>
<rscale>  0 0.46100222E+04</rscale>
<asrwt>0</asrwt>
<pdfrwt beam="1">  1        2 0.38751221E+00 0.46100222E+04</pdfrwt>
<pdfrwt beam="2">  1       -2 0.32451437E+00 0.46100222E+04</pdfrwt>
<totfact> 0.57237815E-02</totfact>
</mgrwt>
</event>
<event>
 6    1  0.1028026E-006  0.2919489E+04  0.7818608E-02  0.8267103E-01
         -2   -1    0    0    0  501 -0.00000000000E+00  0.00000000000E+00  0.25407422604E+04  0.25407422604E+04  0.00000000000E+00 0.  1.
          2   -1    0    0  501    0  0.00000000000E+00 -0.00000000000E+00 -0.83867362968E+03  0.83867362968E+03  0.00000000000E+00 0. -1.
         23    2    1    2    0    0 -0.11213569800E+04  0.92825234019E+03  0.75133892674E+03  0.16407437376E+04  0.91847405745E+02 0.  0.
         13    1    3    3    0    0 -0.75548552432E+03  0.57332070265E+03  0.46883506739E+03  0.10579514762E+04  0.00000000000E+00 0.  1.
        -13    1    3    3    0    0 -0.36587145569E+03  0.35493163754E+03  0.28250385936E+03  0.58279226142E+03  0.00000000000E+00 0. -1.
         22    1    1    2    0    0  0.11213569800E+04 -0.92825234019E+03  0.95072970395E+03  0.17386721524E+04  0.00000000000E+00 0. -1.
<mgrwt>
<rscale>  0 0.29194887E+04</rscale>
<asrwt>0</asrwt>
<pdfrwt beam="1">  1        2 0.12902671E+00 0.29194887E+04</pdfrwt>
<pdfrwt beam="2">  1       -2 0.39088342E+00 0.29194887E+04</pdfrwt>
<totfact> 0.23696372E-01</totfact>
</mgrwt>
</event>
<event>
 6    1  0.1028026E-006  0.4642276E+04  0.7818608E-02  0.7886191E-01
         -1   -1    0    0    0  501 -0.00000000000E+00  0.00000000000E+00  0.13070621937E+04  0.13070621937E+04  0.00000000000E+00 0.  1.
          1   -1    0    0  501    0  0.00000000000E+00 -0.00000000000E+00 -0.41219771384E+04  0.41219771384E+04  0.00000000000E+00 0. -1.
         23    2    1    2    0    0 -0.15689605783E+04 -0.86247514240E+03 -0.31339313373E+04  0.36104486343E+04  0.91175910261E+02 0.  0.
         11    1    3    3    0    0 -0.59716263562E+03 -0.36124632061E+03 -0.12895626219E+04  0.14663130203E+04  0.00000000000E+00 0. -1.
        -11    1    3    3    0    0 -0.97179794267E+03 -0.50122882179E+03 -0.18443687154E+04  0.21441356141E+04  0.00000000000E+00 0.  1.
         22    1    1    2    0    0  0.15689605783E+04  0.86247514240E+03  0.31901639260E+03  0.18185906978E+04  0.00000000000E+00 0.  1.
<mgrwt>
<rscale>  0 0.46422755E+04</rscale>
<asrwt>0</asrwt>
<pdfrwt beam="1">  1        1 0.63415032E+00 0.46422755E+04</pdfrwt>
<pdfrwt beam="2">  1       -1 0.20108649E+00 0.46422755E+04</pdfrwt>
<totfact> 0.81649511E-03</totfact>
</mgrwt>
</event>
<event>
 6    1  0.1028026E-006  0.3123037E+04  0.7818608E-02  0.8209444E-01
          2   -1    0    0  501    0  0.00000000000E+00  0.00000000000E+00  0.17304245508E+04  0.17304245508E+04  0.00000000000E+00 0. -1.
         -2   -1    0    0    0  501 -0.00000000000E+00 -0.00000000000E+00 -0.14090997062E+04  0.14090997062E+04  0.00000000000E+00 0.  1.
         23    2    1    2    0    0 -0.25960702842E+03 -0.20469385698E+03 -0.13719764547E+04  0.14142519091E+04  0.92161194834E+02 0.  0.
         11    1    3    3    0    0 -0.88391531379E+02 -0.81765462516E+02 -0.33274637879E+03  0.35386269410E+03  0.00000000000E+00 0.  1.
        -11    1    3    3    0    0 -0.17121549704E+03 -0.12292839447E+03 -0.10392300759E+04  0.10603892150E+04  0.00000000000E+00 0. -1.
         22    1    1    2    0    0  0.25960702842E+03  0.20469385698E+03  0.16933012993E+04  0.17252723479E+04  0.00000000000E+00 0. -1.
<mgrwt>
<rscale>  0 0.31230374E+04</rscale>
<asrwt>0</asrwt>
<pdfrwt beam="1">  1        2 0.26621916E+00 0.31230374E+04</pdfrwt>
<pdfrwt beam="2">  1       -2 0.21678457E+00 0.31230374E+04</pdfrwt>
<totfact> 0.82810866E-01</totfact>
</mgrwt>
</event>
<event>
 6    1  0.1028026E-006  0.4230803E+04  0.7818608E-02  0.7959539E-01
         -2   -1    0    0    0  501 -0.00000000000E+00  0.00000000000E+00  0.15559998737E+04  0.15559998737E+04  0.00000000000E+00 0.  1.
          2   -1    0    0  501    0  0.00000000000E+00 -0.00000000000E+00 -0.28759153934E+04  0.28759153934E+04  0.00000000000E+00 0. -1.
         23    2    1    2    0    0 -0.11975310735E+03 -0.14831902140E+04 -0.22339219018E+04  0.26856043886E+04  0.88712181460E+02 0.  0.
         11    1    3    3    0    0 -0.12551771526E+03 -0.11044543791E+04 -0.16418742342E+04  0.19827569627E+04  0.00000000000E+00 0. -1.
        -11    1    3    3    0    0  0.57646079078E+01 -0.37873583496E+03 -0.59204766760E+03  0.70284742590E+03  0.00000000000E+00 0.  1.
         22    1    1    2    0    0  0.11975310735E+03  0.14831902140E+04  0.91400638213E+03  0.17463108785E+04  0.00000000000E+00 0.  1.
<mgrwt>
<rscale>  0 0.42308032E+04</rscale>
<asrwt>0</asrwt>
<pdfrwt beam="1">  1        2 0.44244852E+00 0.42308032E+04</pdfrwt>
<pdfrwt beam="2">  1       -2 0.23938460E+00 0.42308032E+04</pdfrwt>
<totfact> 0.12024438E-01</totfact>
</mgrwt>
</event>
<event>
 6    1  0.1028026E-006  0.1491001E+04  0.7818608E-02  0.8890460E-01
         -2   -1    0    0    0  501 -0.00000000000E+00  0.00000000000E+00  0.28009092515E+03  0.28009092515E+03  0.00000000000E+00 0.  1.
          2   -1    0    0  501    0  0.00000000000E+00 -0.00000000000E+00 -0.19842511223E+04  0.19842511223E+04  0.00000000000E+00 0. -1.
         23    2    1    2    0    0 -0.70198194099E+03  0.25805135996E+02 -0.12215110686E+04  0.14120541080E+04  0.91449234433E+02 0.  0.
         11    1    3    3    0    0 -0.33440165011E+03  0.80108139718E+01 -0.49145826887E+03  0.59449126720E+03  0.00000000000E+00 0. -1.
        -11    1    3    3    0    0 -0.36758029088E+03  0.17794322024E+02 -0.73005279977E+03  0.81756284076E+03  0.00000000000E+00 0.  1.
         22    1    1    2    0    0  0.70198194099E+03 -0.25805135996E+02 -0.48264912847E+03  0.85228793945E+03  0.00000000000E+00 0.  1.
<mgrwt>
<rscale>  0 0.14910006E+04</rscale>
<asrwt>0</asrwt>
<pdfrwt beam="1">  1        2 0.30526940E+00 0.14910006E+04</pdfrwt>
<pdfrwt beam="2">  1       -2 0.43090912E-01 0.14910006E+04</pdfrwt>
<totfact> 0.33668822E+01</totfact>
</mgrwt>
</event>
<event>
 6    1  0.1028026E-006  0.4278397E+04  0.7818608E-02  0.7950625E-01
         -2   -1    0    0    0  501 -0.00000000000E+00  0.00000000000E+00  0.17318840241E+04  0.17318840241E+04  0.00000000000E+00 0.  1.
          2   -1    0    0  501    0  0.00000000000E+00 -0.00000000000E+00 -0.26423072549E+04  0.26423072549E+04  0.00000000000E+00 0. -1.
         23    2    1    2    0    0  0.26867690483E+03  0.21065502669E+04 -0.71032138939E+03  0.22411694663E+04  0.92427238970E+02 0.  0.
         11    1    3    3    0    0  0.26464380195E+03  0.19370263652E+04 -0.67228961132E+03  0.20673850156E+04  0.00000000000E+00 0. -1.
        -11    1    3    3    0    0  0.40331028798E+01  0.16952390169E+03 -0.38031778074E+02  0.17378445070E+03  0.00000000000E+00 0.  1.
         22    1    1    2    0    0 -0.26867690483E+03 -0.21065502669E+04 -0.20010184143E+03  0.21330218126E+04  0.00000000000E+00 0. -1.
<mgrwt>
<rscale>  0 0.42783968E+04</rscale>
<asrwt>0</asrwt>
<pdfrwt beam="1">  1        2 0.40650881E+00 0.42783968E+04</pdfrwt>
<pdfrwt beam="2">  1       -2 0.26644370E+00 0.42783968E+04</pdfrwt>
<totfact> 0.11293016E-01</totfact>
</mgrwt>
</event>
<event>
 6    1  0.1028026E-006  0.2705883E+04  0.7818608E-02  0.8333099E-01
          2   -1    0    0  501    0  0.00000000000E+00  0.00000000000E+00  0.23427101200E+04  0.23427101200E+04  0.00000000000E+00 0. -1.
         -2   -1    0    0    0  501 -0.00000000000E+00 -0.00000000000E+00 -0.78133918256E+03  0.78133918256E+03  0.00000000000E+00 0.  1.
         23    2    1    2    0    0  0.19587596601E+03  0.59652680555E+03 -0.60012716595E+03  0.87320819871E+03  0.90157191549E+02 0.  0.
         13    1    3    3    0    0  0.11122816213E+03  0.36155871821E+03 -0.30029165898E+03  0.48298187463E+03  0.00000000000E+00 0. -1.
        -13    1    3    3    0    0  0.84647803880E+02  0.23496808733E+03 -0.29983550697E+03  0.39022632408E+03  0.00000000000E+00 0.  1.
         22    1    1    2    0    0 -0.19587596601E+03 -0.59652680555E+03  0.21614981034E+04  0.22508411039E+04  0.00000000000E+00 0. -1.
<mgrwt>
<rscale>  0 0.27058834E+04</rscale>
<asrwt>0</asrwt>
<pdfrwt beam="1">  1        2 0.36041694E+00 0.27058834E+04</pdfrwt>
<pdfrwt beam="2">  1       -2 0.12020603E+00 0.27058834E+04</pdfrwt>
<totfact> 0.19872797E+00</totfact>
</mgrwt>
</event>
<event>
 6    1  0.1028026E-006  0.7501153E+04  0.7818608E-02  0.7527849E-01
         -1   -1    0    0    0  501 -0.00000000000E+00  0.00000000000E+00  0.34536309465E+04  0.34536309465E+04  0.00000000000E+00 0.  1.
          1   -1    0    0  501    0  0.00000000000E+00 -0.00000000000E+00 -0.40730531960E+04  0.40730531960E+04  0.00000000000E+00 0. -1.
         23    2    1    2    0    0  0.21219989906E+04  0.30891246257E+04 -0.17882469728E+03  0.37531318543E+04  0.91922651350E+02 0.  0.
         13    1    3    3    0    0  0.12047560350E+04  0.18293751744E+04 -0.11944158637E+03  0.21936993698E+04  0.00000000000E+00 0. -1.
        -13    1    3    3    0    0  0.91724295565E+03  0.12597494514E+04 -0.59383110911E+02  0.15594324845E+04  0.00000000000E+00 0.  1.
         22    1    1    2    0    0 -0.21219989906E+04 -0.30891246257E+04 -0.44059755222E+03  0.37735522883E+04  0.00000000000E+00 0. -1.
<mgrwt>
<rscale>  0 0.75011526E+04</rscale>
<asrwt>0</asrwt>
<pdfrwt beam="1">  1        1 0.62662357E+00 0.75011526E+04</pdfrwt>
<pdfrwt beam="2">  1       -1 0.53132784E+00 0.75011526E+04</pdfrwt>
<totfact> 0.47951444E-05</totfact>
</mgrwt>
</event>
<event>
 6    1  0.1950981E-006  0.2582254E+04  0.7818608E-02  0.8374254E-01
          1   -1    0    0  501    0  0.00000000000E+00  0.00000000000E+00  0.78984486331E+03  0.78984486331E+03  0.00000000000E+00 0. -1.
         -1   -1    0    0    0  501 -0.00000000000E+00 -0.00000000000E+00 -0.21105526781E+04  0.21105526781E+04  0.00000000000E+00 0.  1.
         23    2    1    2    0    0  0.51566041270E+02  0.12875863256E+04 -0.60700667254E+03  0.14273371479E+04  0.91085842853E+02 0.  0.
         13    1    3    3    0    0 -0.10080031903E+02  0.78700776389E+03 -0.35254845679E+03  0.86242289038E+03  0.00000000000E+00 0.  1.
        -13    1    3    3    0    0  0.61646073173E+02  0.50057856172E+03 -0.25445821575E+03  0.56491425753E+03  0.00000000000E+00 0. -1.
         22    1    1    2    0    0 -0.51566041270E+02 -0.12875863256E+04 -0.71370114230E+03  0.14730603935E+04  0.00000000000E+00 0. -1.
<mgrwt>
<rscale>  0 0.25822542E+04</rscale>
<asrwt>0</asrwt>
<pdfrwt beam="1">  1        1 0.12151460E+00 0.25822542E+04</pdfrwt>
<pdfrwt beam="2">  1       -1 0.32470041E+00 0.25822542E+04</pdfrwt>
<totfact> 0.45398969E-01</totfact>
</mgrwt>
</event>
<event>
 6    1  0.1028026E-006  0.3226710E+04  0.7818608E-02  0.8181799E-01
          2   -1    0    0  501    0  0.00000000000E+00  0.00000000000E+00  0.31843893727E+04  0.31843893727E+04  0.00000000000E+00 0. -1.
         -2   -1    0    0    0  501 -0.00000000000E+00 -0.00000000000E+00 -0.81739804421E+03  0.81739804421E+03  0.00000000000E+00 0.  1.
         23    2    1    2    0    0  0.25476634787E+03 -0.98071880433E+03 -0.37198225748E+03  0.10813950512E+04  0.65796593008E+02 0.  0.
         11    1    3    3    0    0  0.38231850654E+02 -0.26196977231E+03 -0.97579351235E+02  0.28215521578E+03  0.00000000000E+00 0. -1.
        -11    1    3    3    0    0  0.21653449721E+03 -0.71874903202E+03 -0.27440290625E+03  0.79923983539E+03  0.00000000000E+00 0.  1.
         22    1    1    2    0    0 -0.25476634787E+03  0.98071880433E+03  0.27389735860E+04  0.29203923658E+04  0.00000000000E+00 0. -1.
<mgrwt>
<rscale>  0 0.32267096E+04</rscale>
<asrwt>0</asrwt>
<pdfrwt beam="1">  1        2 0.48990605E+00 0.32267096E+04</pdfrwt>
<pdfrwt beam="2">  1       -2 0.12575355E+00 0.32267096E+04</pdfrwt>
<totfact> 0.52628976E-01</totfact>
</mgrwt>
</event>
<event>
 6    1  0.1028026E-006  0.6064968E+04  0.7818608E-02  0.7682398E-01
         -2   -1    0    0    0  501 -0.00000000000E+00  0.00000000000E+00  0.24923051953E+04  0.24923051953E+04  0.00000000000E+00 0.  1.
          2   -1    0    0  501    0  0.00000000000E+00 -0.00000000000E+00 -0.36897407046E+04  0.36897407046E+04  0.00000000000E+00 0. -1.
         23    2    1    2    0    0 -0.63220554344E+03  0.90197743823E+03 -0.34780153515E+04  0.36494007283E+04  0.91037039453E+02 0.  0.
         11    1    3    3    0    0 -0.34990232438E+03  0.42665093429E+03 -0.16766868744E+04  0.17651463200E+04  0.00000000000E+00 0.  1.
        -11    1    3    3    0    0 -0.28230321906E+03  0.47532650394E+03 -0.18013284771E+04  0.18842544084E+04  0.00000000000E+00 0. -1.
         22    1    1    2    0    0  0.63220554344E+03 -0.90197743823E+03  0.22805798422E+04  0.25326451715E+04  0.00000000000E+00 0.  1.
<mgrwt>
<rscale>  0 0.60649682E+04</rscale>
<asrwt>0</asrwt>
<pdfrwt beam="1">  1        2 0.56765241E+00 0.60649682E+04</pdfrwt>
<pdfrwt beam="2">  1       -2 0.38343157E+00 0.60649682E+04</pdfrwt>
<totfact> 0.37754554E-03</totfact>
</mgrwt>
</event>
<event>
 6    1  0.1028026E-006  0.4062378E+04  0.7818608E-02  0.7992080E-01
         -2   -1    0    0    0  501 -0.00000000000E+00  0.00000000000E+00  0.11716125119E+04  0.11716125119E+04  0.00000000000E+00 0.  1.
          2   -1    0    0  501    0  0.00000000000E+00 -0.00000000000E+00 -0.35214108524E+04  0.35214108524E+04  0.00000000000E+00 0. -1.
         23    2    1    2    0    0 -0.16532305398E+04 -0.81881720400E+03 -0.19662767570E+03  0.18575733571E+04  0.91013750395E+02 0.  0.
         11    1    3    3    0    0 -0.31257082631E+03 -0.16826808585E+03 -0.39583344170E+01  0.35500751906E+03  0.00000000000E+00 0. -1.
        -11    1    3    3    0    0 -0.13406597135E+04 -0.65054911815E+03 -0.19266934128E+03  0.15025658380E+04  0.00000000000E+00 0.  1.
         22    1    1    2    0    0  0.16532305398E+04  0.81881720400E+03 -0.21531706648E+04  0.28354500072E+04  0.00000000000E+00 0. -1.
<mgrwt>
<rscale>  0 0.40623781E+04</rscale>
<asrwt>0</asrwt>
<pdfrwt beam="1">  1        2 0.54175552E+00 0.40623781E+04</pdfrwt>
<pdfrwt beam="2">  1       -2 0.18024808E+00 0.40623781E+04</pdfrwt>
<totfact> 0.11111894E-01</totfact>
</mgrwt>
</event>
<event>
 6    1  0.1028026E-006  0.2932614E+04  0.7818608E-02  0.8263240E-01
         -2   -1    0    0    0  501 -0.00000000000E+00  0.00000000000E+00  0.14329553033E+04  0.14329553033E+04  0.00000000000E+00 0.  1.
          2   -1    0    0  501    0  0.00000000000E+00 -0.00000000000E+00 -0.15004346413E+04  0.15004346413E+04  0.00000000000E+00 0. -1.
         23    2    1    2    0    0  0.36793300576E+03  0.99649155928E+02  0.13809856407E+04  0.14356064337E+04  0.92411263649E+02 0.  0.
         11    1    3    3    0    0  0.70547062759E+02 -0.15398282815E+02  0.21469911076E+03  0.22651645269E+03  0.00000000000E+00 0. -1.
        -11    1    3    3    0    0  0.29738594300E+03  0.11504743874E+03  0.11662865300E+04  0.12090899811E+04  0.00000000000E+00 0.  1.
         22    1    1    2    0    0 -0.36793300576E+03 -0.99649155928E+02 -0.14484649787E+04  0.14977835109E+04  0.00000000000E+00 0. -1.
<mgrwt>
<rscale>  0 0.29326137E+04</rscale>
<asrwt>0</asrwt>
<pdfrwt beam="1">  1        2 0.23083610E+00 0.29326137E+04</pdfrwt>
<pdfrwt beam="2">  1       -2 0.22045466E+00 0.29326137E+04</pdfrwt>
<totfact> 0.10722341E+00</totfact>
</mgrwt>
</event>
<event>
 6    1  0.1028026E-006  0.1781959E+04  0.7818608E-02  0.8715953E-01
         -2   -1    0    0    0  501 -0.00000000000E+00  0.00000000000E+00  0.40500882746E+03  0.40500882746E+03  0.00000000000E+00 0.  1.
          2   -1    0    0  501    0  0.00000000000E+00 -0.00000000000E+00 -0.19600667289E+04  0.19600667289E+04  0.00000000000E+00 0. -1.
         23    2    1    2    0    0 -0.53453166105E+03 -0.33258290769E+03 -0.16119754568E+04  0.17329560303E+04  0.91303024905E+02 0.  0.
         11    1    3    3    0    0 -0.52763474209E+02 -0.91775408590E+01 -0.18266961551E+03  0.19035860868E+03  0.00000000000E+00 0.  1.
        -11    1    3    3    0    0 -0.48176818684E+03 -0.32340536683E+03 -0.14293058413E+04  0.15425974216E+04  0.00000000000E+00 0. -1.
         22    1    1    2    0    0  0.53453166105E+03  0.33258290769E+03  0.56917555370E+02  0.63211952609E+03  0.00000000000E+00 0.  1.
<mgrwt>
<rscale>  0 0.17819588E+04</rscale>
<asrwt>0</asrwt>
<pdfrwt beam="1">  1        2 0.30154873E+00 0.17819588E+04</pdfrwt>
<pdfrwt beam="2">  1       -2 0.62309051E-01 0.17819588E+04</pdfrwt>
<totfact> 0.15889830E+01</totfact>
</mgrwt>
</event>
<event>
 6    1  0.1028026E-006  0.3476898E+04  0.7818608E-02  0.8119287E-01
          1   -1    0    0  501    0  0.00000000000E+00  0.00000000000E+00  0.57394137810E+03  0.57394137810E+03  0.00000000000E+00 0. -1.
         -1   -1    0    0    0  501 -0.00000000000E+00 -0.00000000000E+00 -0.52657016434E+04  0.52657016434E+04  0.00000000000E+00 0.  1.
         23    2    1    2    0    0  0.98461277534E+03 -0.13444806938E+04 -0.15239001586E+04  0.22601977699E+04  0.95559470243E+02 0.  0.
         13    1    3    3    0    0  0.50883989745E+03 -0.71677449530E+03 -0.86576732250E+03  0.12337895992E+04  0.00000000000E+00 0.  1.
        -13    1    3    3    0    0  0.47577287789E+03 -0.62770619854E+03 -0.65813283609E+03  0.10264081707E+04  0.00000000000E+00 0. -1.
         22    1    1    2    0    0 -0.98461277534E+03  0.13444806938E+04 -0.31678601067E+04  0.35794452516E+04  0.00000000000E+00 0.  1.
<mgrwt>
<rscale>  0 0.34768975E+04</rscale>
<asrwt>0</asrwt>
<pdfrwt beam="1">  1        1 0.88298671E-01 0.34768975E+04</pdfrwt>
<pdfrwt beam="2">  1       -1 0.81010797E+00 0.34768975E+04</pdfrwt>
<totfact> 0.18014876E-03</totfact>
</mgrwt>
</event>
<event>
 6    1  0.1028026E-006  0.2602476E+04  0.7818608E-02  0.8367361E-01
          2   -1    0    0  501    0  0.00000000000E+00  0.00000000000E+00  0.19966428410E+04  0.19966428410E+04  0.00000000000E+00 0. -1.
         -2   -1    0    0    0  501 -0.00000000000E+00 -0.00000000000E+00 -0.84803383187E+03  0.84803383187E+03  0.00000000000E+00 0.  1.
         23    2    1    2    0    0  0.31283425128E+03  0.72704459555E+03  0.17017988715E+04  0.18790275976E+04  0.90367034659E+02 0.  0.
         11    1    3    3    0    0  0.26921078235E+03  0.57129702999E+03  0.12811695937E+04  0.14283732949E+04  0.00000000000E+00 0. -1.
        -11    1    3    3    0    0  0.43623468928E+02  0.15574756556E+03  0.42062927777E+03  0.45065430269E+03  0.00000000000E+00 0.  1.
         22    1    1    2    0    0 -0.31283425128E+03 -0.72704459555E+03 -0.55318986236E+03  0.96564907524E+03  0.00000000000E+00 0.  1.
<mgrwt>
<rscale>  0 0.26024763E+04</rscale>
<asrwt>0</asrwt>
<pdfrwt beam="1">  1        2 0.30717582E+00 0.26024763E+04</pdfrwt>
<pdfrwt beam="2">  1       -2 0.13046674E+00 0.26024763E+04</pdfrwt>
<totfact> 0.25540071E+00</totfact>
</mgrwt>
</event>
<event>
 6    1  0.1028026E-006  0.2029339E+04  0.7818608E-02  0.8593025E-01
          1   -1    0    0  501    0  0.00000000000E+00  0.00000000000E+00  0.19377487755E+04  0.19377487755E+04  0.00000000000E+00 0. -1.
         -1   -1    0    0    0  501 -0.00000000000E+00 -0.00000000000E+00 -0.53131481107E+03  0.53131481107E+03  0.00000000000E+00 0.  1.
         23    2    1    2    0    0  0.60640098581E+03  0.55002800626E+03  0.14294724313E+04  0.16500497075E+04  0.94971795245E+02 0.  0.
         11    1    3    3    0    0  0.58601942631E+03  0.54895672329E+03  0.13813796633E+04  0.15978053780E+04  0.00000000000E+00 0.  1.
        -11    1    3    3    0    0  0.20381559502E+02  0.10712829771E+01  0.48092768093E+02  0.52244329432E+02  0.00000000000E+00 0. -1.
         22    1    1    2    0    0 -0.60640098581E+03 -0.55002800626E+03 -0.23038466871E+02  0.81901387914E+03  0.00000000000E+00 0.  1.
<mgrwt>
<rscale>  0 0.20293394E+04</rscale>
<asrwt>0</asrwt>
<pdfrwt beam="1">  1        1 0.29811519E+00 0.20293394E+04</pdfrwt>
<pdfrwt beam="2">  1       -1 0.81740741E-01 0.20293394E+04</pdfrwt>
<totfact> 0.45269298E+00</totfact>
</mgrwt>
</event>
<event>
 6    1  0.1028026E-006  0.8318534E+03  0.7818608E-02  0.9515022E-01
         -2   -1    0    0    0  501 -0.00000000000E+00  0.00000000000E+00  0.37853670211E+03  0.37853670211E+03  0.00000000000E+00 0.  1.
          2   -1    0    0  501    0  0.00000000000E+00 -0.00000000000E+00 -0.45700984395E+03  0.45700984395E+03  0.00000000000E+00 0. -1.
         23    2    1    2    0    0 -0.22678129543E+03 -0.50354277017E+01  0.30404832936E+03  0.39082439974E+03  0.94038361070E+02 0.  0.
         11    1    3    3    0    0 -0.15308580710E+03 -0.15865481629E+02  0.12983691115E+03  0.20135690040E+03  0.00000000000E+00 0.  1.
        -11    1    3    3    0    0 -0.73695488331E+02  0.10830053927E+02  0.17421141821E+03  0.18946749933E+03  0.00000000000E+00 0. -1.
         22    1    1    2    0    0  0.22678129543E+03  0.50354277017E+01 -0.38252147121E+03  0.44472214632E+03  0.00000000000E+00 0. -1.
<mgrwt>
<rscale>  0 0.83185335E+03</rscale>
<asrwt>0</asrwt>
<pdfrwt beam="1">  1        2 0.70309207E-01 0.83185335E+03</pdfrwt>
<pdfrwt beam="2">  1       -2 0.58236416E-01 0.83185335E+03</pdfrwt>
<totfact> 0.18969304E+02</totfact>
</mgrwt>
</event>
<event>
 6    1  0.1028026E-006  0.1987813E+04  0.7818608E-02  0.8612340E-01
         -2   -1    0    0    0  501 -0.00000000000E+00  0.00000000000E+00  0.13728956221E+04  0.13728956221E+04  0.00000000000E+00 0.  1.
          2   -1    0    0  501    0  0.00000000000E+00 -0.00000000000E+00 -0.71953745359E+03  0.71953745359E+03  0.00000000000E+00 0. -1.
         23    2    1    2    0    0 -0.36190480652E+03  0.16781548814E+03  0.12832563391E+04  0.13468401356E+04  0.89968838919E+02 0.  0.
         13    1    3    3    0    0 -0.21113510621E+03  0.62594294830E+02  0.59484281979E+03  0.63429808378E+03  0.00000000000E+00 0. -1.
        -13    1    3    3    0    0 -0.15076970031E+03  0.10522119331E+03  0.68841351934E+03  0.71254205186E+03  0.00000000000E+00 0.  1.
         22    1    1    2    0    0  0.36190480652E+03 -0.16781548814E+03 -0.62989817057E+03  0.74559294011E+03  0.00000000000E+00 0. -1.
<mgrwt>
<rscale>  0 0.19878127E+04</rscale>
<asrwt>0</asrwt>
<pdfrwt beam="1">  1        2 0.11069807E+00 0.19878127E+04</pdfrwt>
<pdfrwt beam="2">  1       -2 0.21121471E+00 0.19878127E+04</pdfrwt>
<totfact> 0.41352205E+00</totfact>
</mgrwt>
</event>
<event>
 6    1  0.1028026E-006  0.2283708E+04  0.7818608E-02  0.8484373E-01
         -2   -1    0    0    0  501 -0.00000000000E+00  0.00000000000E+00  0.12088453451E+04  0.12088453451E+04  0.00000000000E+00 0.  1.
          2   -1    0    0  501    0  0.00000000000E+00 -0.00000000000E+00 -0.10785751820E+04  0.10785751820E+04  0.00000000000E+00 0. -1.
         23    2    1    2    0    0  0.36315645765E+03 -0.52190517005E+03 -0.88237626589E+03  0.10917113613E+04  0.94753377039E+02 0.  0.
         13    1    3    3    0    0  0.35159985125E+03 -0.48184194443E+03 -0.78604021423E+03  0.98673873604E+03  0.00000000000E+00 0. -1.
        -13    1    3    3    0    0  0.11556606401E+02 -0.40063225613E+02 -0.96336051652E+02  0.10497262522E+03  0.00000000000E+00 0.  1.
         22    1    1    2    0    0 -0.36315645765E+03  0.52190517005E+03  0.10126464290E+04  0.11957091659E+04  0.00000000000E+00 0.  1.
<mgrwt>
<rscale>  0 0.22837080E+04</rscale>
<asrwt>0</asrwt>
<pdfrwt beam="1">  1        2 0.16593464E+00 0.22837080E+04</pdfrwt>
<pdfrwt beam="2">  1       -2 0.18597621E+00 0.22837080E+04</pdfrwt>
<totfact> 0.33645570E+00</totfact>
</mgrwt>
</event>
<event>
 6    1  0.1028026E-006  0.1830839E+04  0.7818608E-02  0.8690069E-01
         -1   -1    0    0    0  501 -0.00000000000E+00  0.00000000000E+00  0.66489875839E+03  0.66489875839E+03  0.00000000000E+00 0.  1.
          1   -1    0    0  501    0  0.00000000000E+00 -0.00000000000E+00 -0.12603314452E+04  0.12603314452E+04  0.00000000000E+00 0. -1.
         23    2    1    2    0    0 -0.98929270584E+02 -0.59165167933E+03  0.42550032499E+03  0.74110904221E+03  0.91396803296E+02 0.  0.
         13    1    3    3    0    0 -0.69801732229E+02 -0.49326220091E+03  0.38949262140E+03  0.63236412200E+03  0.00000000000E+00 0. -1.
        -13    1    3    3    0    0 -0.29127538355E+02 -0.98389478416E+02  0.36007703588E+02  0.10874492021E+03  0.00000000000E+00 0.  1.
         22    1    1    2    0    0  0.98929270584E+02  0.59165167933E+03 -0.10209330118E+04  0.11841211613E+04  0.00000000000E+00 0. -1.
<mgrwt>
<rscale>  0 0.18308389E+04</rscale>
<asrwt>0</asrwt>
<pdfrwt beam="1">  1        1 0.19389714E+00 0.18308389E+04</pdfrwt>
<pdfrwt beam="2">  1       -1 0.10229212E+00 0.18308389E+04</pdfrwt>
<totfact> 0.82243530E+00</totfact>
</mgrwt>
</event>
<event>
 6    1  0.1028026E-006  0.8656565E+03  0.7818608E-02  0.9469561E-01
         -2   -1    0    0    0  501 -0.00000000000E+00  0.00000000000E+00  0.92713091012E+03  0.92713091012E+03  0.00000000000E+00 0.  1.
          2   -1    0    0  501    0  0.00000000000E+00 -0.00000000000E+00 -0.20206457022E+03  0.20206457022E+03  0.00000000000E+00 0. -1.
         23    2    1    2    0    0  0.13410028676E+03 -0.18746116507E+02  0.89618519231E+03  0.91098465237E+03  0.91710600015E+02 0.  0.
         11    1    3    3    0    0  0.11437856549E+03  0.92517579708E+01  0.48562837878E+03  0.49900197750E+03  0.00000000000E+00 0. -1.
        -11    1    3    3    0    0  0.19721721273E+02 -0.27997874478E+02  0.41055681353E+03  0.41198267488E+03  0.00000000000E+00 0.  1.
         22    1    1    2    0    0 -0.13410028676E+03  0.18746116507E+02 -0.17111885240E+03  0.21821082796E+03  0.00000000000E+00 0. -1.
<mgrwt>
<rscale>  0 0.86565653E+03</rscale>
<asrwt>0</asrwt>
<pdfrwt beam="1">  1        2 0.31086858E-01 0.86565653E+03</pdfrwt>
<pdfrwt beam="2">  1       -2 0.14263552E+00 0.86565653E+03</pdfrwt>
<totfact> 0.58758102E+01</totfact>
</mgrwt>
</event>
<event>
 6    1  0.1028026E-006  0.2174394E+04  0.7818608E-02  0.8529162E-01
         -1   -1    0    0    0  501 -0.00000000000E+00  0.00000000000E+00  0.89414458773E+03  0.89414458773E+03  0.00000000000E+00 0.  1.
          1   -1    0    0  501    0  0.00000000000E+00 -0.00000000000E+00 -0.13219314192E+04  0.13219314192E+04  0.00000000000E+00 0. -1.
         23    2    1    2    0    0 -0.98006675939E+03  0.46538921968E+03 -0.18773997698E+03  0.11048872421E+04  0.91714449221E+02 0.  0.
         13    1    3    3    0    0 -0.34096434834E+03  0.15527396227E+03 -0.10887494343E+03  0.39015438420E+03  0.00000000000E+00 0. -1.
        -13    1    3    3    0    0 -0.63910241104E+03  0.31011525741E+03 -0.78865033544E+02  0.71473285792E+03  0.00000000000E+00 0.  1.
         22    1    1    2    0    0  0.98006675939E+03 -0.46538921968E+03 -0.24004685448E+03  0.11111887648E+04  0.00000000000E+00 0.  1.
<mgrwt>
<rscale>  0 0.21743945E+04</rscale>
<asrwt>0</asrwt>
<pdfrwt beam="1">  1        1 0.20337406E+00 0.21743945E+04</pdfrwt>
<pdfrwt beam="2">  1       -1 0.13756071E+00 0.21743945E+04</pdfrwt>
<totfact> 0.34989307E+00</totfact>
</mgrwt>
</event>
<event>
 6    1  0.1028026E-006  0.1650115E+04  0.7818608E-02  0.8790338E-01
          2   -1    0    0  501    0  0.00000000000E+00  0.00000000000E+00  0.19827712607E+04  0.19827712607E+04  0.00000000000E+00 0. -1.
         -2   -1    0    0    0  501 -0.00000000000E+00 -0.00000000000E+00 -0.34331748980E+03  0.34331748980E+03  0.00000000000E+00 0.  1.
         23    2    1    2    0    0  0.70753481055E+03 -0.41009917458E+03  0.69713992328E+03  0.10783939847E+04  0.90236758260E+02 0.  0.
         13    1    3    3    0    0  0.55560633910E+03 -0.29865645250E+03  0.57736159687E+03  0.85512601072E+03  0.00000000000E+00 0. -1.
        -13    1    3    3    0    0  0.15192847145E+03 -0.11144272208E+03  0.11977832641E+03  0.22326797401E+03  0.00000000000E+00 0.  1.
         22    1    1    2    0    0 -0.70753481055E+03  0.41009917458E+03  0.94231384764E+03  0.12476947658E+04  0.00000000000E+00 0.  1.
<mgrwt>
<rscale>  0 0.16501152E+04</rscale>
<asrwt>0</asrwt>
<pdfrwt beam="1">  1        2 0.30504172E+00 0.16501152E+04</pdfrwt>
<pdfrwt beam="2">  1       -2 0.52818077E-01 0.16501152E+04</pdfrwt>
<totfact> 0.22063963E+01</totfact>
</mgrwt>
</event>
<event>
 6    1  0.1028026E-006  0.3152832E+03  0.7818608E-02  0.1077841E+00
          3   -1    0    0  501    0  0.00000000000E+00  0.00000000000E+00  0.16300008751E+03  0.16300008751E+03  0.00000000000E+00 0. -1.
         -3   -1    0    0    0  501 -0.00000000000E+00 -0.00000000000E+00 -0.15245930349E+03  0.15245930349E+03  0.00000000000E+00 0.  1.
         23    2    1    2    0    0  0.56803450837E+02 -0.72009489666E+01 -0.12738268618E+03  0.16612296099E+03  0.89955565339E+02 0.  0.
         11    1    3    3    0    0  0.76342621382E+02  0.13943090183E+02 -0.97707848495E+02  0.12477751905E+03  0.00000000000E+00 0. -1.
        -11    1    3    3    0    0 -0.19539170545E+02 -0.21144039149E+02 -0.29674837690E+02  0.41345441938E+02  0.00000000000E+00 0.  1.
         22    1    1    2    0    0 -0.56803450837E+02  0.72009489666E+01  0.13792347021E+03  0.14933643001E+03  0.00000000000E+00 0. -1.
<mgrwt>
<rscale>  0 0.31528324E+03</rscale>
<asrwt>0</asrwt>
<pdfrwt beam="1">  1        3 0.25076937E-01 0.31528324E+03</pdfrwt>
<pdfrwt beam="2">  1       -3 0.23455277E-01 0.31528324E+03</pdfrwt>
<totfact> 0.64853475E+02</totfact>
</mgrwt>
</event>
<event>
 6    1  0.1028026E-006  0.6879712E+03  0.7818608E-02  0.9738027E-01
          2   -1    0    0  501    0  0.00000000000E+00  0.00000000000E+00  0.74879398966E+03  0.74879398966E+03  0.00000000000E+00 0. -1.
         -2   -1    0    0    0  501 -0.00000000000E+00 -0.00000000000E+00 -0.15802220382E+03  0.15802220382E+03  0.00000000000E+00 0.  1.
         23    2    1    2    0    0 -0.23511189586E+02 -0.25512115426E+03  0.59116759797E+03  0.65061366412E+03  0.90440210397E+02 0.  0.
         11    1    3    3    0    0 -0.56319171134E+02 -0.17054602689E+03  0.42270131079E+03  0.45927572815E+03  0.00000000000E+00 0. -1.
        -11    1    3    3    0    0  0.32807981548E+02 -0.84575127363E+02  0.16846628719E+03  0.19133793597E+03  0.00000000000E+00 0.  1.
         22    1    1    2    0    0  0.23511189586E+02  0.25512115426E+03 -0.39581213740E+00  0.25620252936E+03  0.00000000000E+00 0. -1.
<mgrwt>
<rscale>  0 0.68797115E+03</rscale>
<asrwt>0</asrwt>
<pdfrwt beam="1">  1        2 0.11519907E+00 0.68797115E+03</pdfrwt>
<pdfrwt beam="2">  1       -2 0.24311109E-01 0.68797115E+03</pdfrwt>
<totfact> 0.56988444E+02</totfact>
</mgrwt>
</event>
<event>
 6    1  0.1028026E-006  0.1112037E+04  0.7818608E-02  0.9193539E-01
          2   -1    0    0  501    0  0.00000000000E+00  0.00000000000E+00  0.19101456453E+04  0.19101456453E+04  0.00000000000E+00 0. -1.
         -2   -1    0    0    0  501 -0.00000000000E+00 -0.00000000000E+00 -0.16184966699E+03  0.16184966699E+03  0.00000000000E+00 0.  1.
         23    2    1    2    0    0 -0.30971728570E+03 -0.25935969734E+03  0.17826751613E+03  0.45082856526E+03  0.90966138066E+02 0.  0.
         11    1    3    3    0    0 -0.19068702380E+03 -0.13175745336E+03  0.58087678526E+02  0.23894716143E+03  0.00000000000E+00 0.  1.
        -11    1    3    3    0    0 -0.11903026190E+03 -0.12760224398E+03  0.12017983761E+03  0.21188140382E+03  0.00000000000E+00 0. -1.
         22    1    1    2    0    0  0.30971728570E+03  0.25935969734E+03  0.15700284622E+04  0.16211667471E+04  0.00000000000E+00 0.  1.
<mgrwt>
<rscale>  0 0.11120368E+04</rscale>
<asrwt>0</asrwt>
<pdfrwt beam="1">  1        2 0.29386855E+00 0.11120368E+04</pdfrwt>
<pdfrwt beam="2">  1       -2 0.24899950E-01 0.11120368E+04</pdfrwt>
<totfact> 0.10760708E+02</totfact>
</mgrwt>
</event>
<event>
 6    1  0.1028026E-006  0.1787782E+04  0.7818608E-02  0.8712824E-01
         -1   -1    0    0    0  501 -0.00000000000E+00  0.00000000000E+00  0.78851361779E+03  0.78851361779E+03  0.00000000000E+00 0.  1.
          1   -1    0    0  501    0  0.00000000000E+00 -0.00000000000E+00 -0.10133506753E+04  0.10133506753E+04  0.00000000000E+00 0. -1.
         23    2    1    2    0    0 -0.19399755540E+03  0.85725491380E+03 -0.26331935392E+03  0.92209050061E+03  0.91612064894E+02 0.  0.
         13    1    3    3    0    0 -0.10307347384E+03  0.44313501616E+03 -0.88568227852E+02  0.46350524758E+03  0.00000000000E+00 0.  1.
        -13    1    3    3    0    0 -0.90924081557E+02  0.41411989764E+03 -0.17475112607E+03  0.45858525303E+03  0.00000000000E+00 0. -1.
         22    1    1    2    0    0  0.19399755540E+03 -0.85725491380E+03  0.38482296445E+02  0.87977379245E+03  0.00000000000E+00 0.  1.
<mgrwt>
<rscale>  0 0.17877817E+04</rscale>
<asrwt>0</asrwt>
<pdfrwt beam="1">  1        1 0.15590010E+00 0.17877817E+04</pdfrwt>
<pdfrwt beam="2">  1       -1 0.12130979E+00 0.17877817E+04</pdfrwt>
<totfact> 0.84123062E+00</totfact>
</mgrwt>
</event>
<event>
 6    1  0.1028026E-006  0.2936405E+04  0.7818608E-02  0.8262128E-01
          2   -1    0    0  501    0  0.00000000000E+00  0.00000000000E+00  0.35237207726E+04  0.35237207726E+04  0.00000000000E+00 0. -1.
         -2   -1    0    0    0  501 -0.00000000000E+00 -0.00000000000E+00 -0.61174502148E+03  0.61174502148E+03  0.00000000000E+00 0.  1.
         23    2    1    2    0    0  0.48653349427E+03 -0.13374193696E+04  0.19573985991E+04  0.24218080247E+04  0.91320434221E+02 0.  0.
         13    1    3    3    0    0  0.37017203419E+03 -0.10824802012E+04  0.15219239459E+04  0.19039546260E+04  0.00000000000E+00 0. -1.
        -13    1    3    3    0    0  0.11636146008E+03 -0.25493916844E+03  0.43547465320E+03  0.51785339873E+03  0.00000000000E+00 0.  1.
         22    1    1    2    0    0 -0.48653349427E+03  0.13374193696E+04  0.95457715198E+03  0.17136577693E+04  0.00000000000E+00 0. -1.
<mgrwt>
<rscale>  0 0.29364050E+04</rscale>
<asrwt>0</asrwt>
<pdfrwt beam="1">  1        2 0.54211088E+00 0.29364050E+04</pdfrwt>
<pdfrwt beam="2">  1       -2 0.94114621E-01 0.29364050E+04</pdfrwt>
<totfact> 0.64093486E-01</totfact>
</mgrwt>
</event>
<event>
 6    1  0.1028026E-006  0.2245310E+04  0.7818608E-02  0.8499802E-01
         -2   -1    0    0    0  501 -0.00000000000E+00  0.00000000000E+00  0.70315802512E+03  0.70315802512E+03  0.00000000000E+00 0.  1.
          2   -1    0    0  501    0  0.00000000000E+00 -0.00000000000E+00 -0.17924196044E+04  0.17924196044E+04  0.00000000000E+00 0. -1.
         23    2    1    2    0    0 -0.10019141949E+04  0.33878841082E+03 -0.13334145936E+03  0.10699574427E+04  0.91756978918E+02 0.  0.
         13    1    3    3    0    0 -0.56407552278E+03  0.17894912940E+03 -0.30022811176E+02  0.59254143779E+03  0.00000000000E+00 0. -1.
        -13    1    3    3    0    0 -0.43783867216E+03  0.15983928142E+03 -0.10331864818E+03  0.47741600496E+03  0.00000000000E+00 0.  1.
         22    1    1    2    0    0  0.10019141949E+04 -0.33878841082E+03 -0.95592011996E+03  0.14256201868E+04  0.00000000000E+00 0. -1.
<mgrwt>
<rscale>  0 0.22453100E+04</rscale>
<asrwt>0</asrwt>
<pdfrwt beam="1">  1        2 0.27575686E+00 0.22453100E+04</pdfrwt>
<pdfrwt beam="2">  1       -2 0.10817816E+00 0.22453100E+04</pdfrwt>
<totfact> 0.54283023E+00</totfact>
</mgrwt>
</event>
<event>
 6    1  0.1028026E-006  0.2492537E+04  0.7818608E-02  0.8405649E-01
          2   -1    0    0  501    0  0.00000000000E+00  0.00000000000E+00  0.22070199683E+04  0.22070199683E+04  0.00000000000E+00 0. -1.
         -2   -1    0    0    0  501 -0.00000000000E+00 -0.00000000000E+00 -0.70374766481E+03  0.70374766481E+03  0.00000000000E+00 0.  1.
         23    2    1    2    0    0  0.17842797207E+02  0.10490158224E+04 -0.29232050418E+02  0.10535325495E+04  0.91234637053E+02 0.  0.
         13    1    3    3    0    0 -0.37020959436E+02  0.36491103614E+03 -0.14639417915E+02  0.36707618868E+03  0.00000000000E+00 0.  1.
        -13    1    3    3    0    0  0.54863756644E+02  0.68410478627E+03 -0.14592632503E+02  0.68645636082E+03  0.00000000000E+00 0. -1.
         22    1    1    2    0    0 -0.17842797207E+02 -0.10490158224E+04  0.15325043539E+04  0.18572350836E+04  0.00000000000E+00 0. -1.
<mgrwt>
<rscale>  0 0.24925370E+04</rscale>
<asrwt>0</asrwt>
<pdfrwt beam="1">  1        2 0.33954153E+00 0.24925370E+04</pdfrwt>
<pdfrwt beam="2">  1       -2 0.10826887E+00 0.24925370E+04</pdfrwt>
<totfact> 0.31173654E+00</totfact>
</mgrwt>
</event>
<event>
 6    1  0.1028026E-006  0.1316905E+04  0.7818608E-02  0.9016266E-01
         -2   -1    0    0    0  501 -0.00000000000E+00  0.00000000000E+00  0.65642766383E+03  0.65642766383E+03  0.00000000000E+00 0.  1.
          2   -1    0    0  501    0  0.00000000000E+00 -0.00000000000E+00 -0.66048329273E+03  0.66048329273E+03  0.00000000000E+00 0. -1.
         23    2    1    2    0    0  0.21994489938E+03 -0.56633544340E+03 -0.24601654591E+03  0.66295631091E+03  0.99374725706E+02 0.  0.
         13    1    3    3    0    0  0.35925866820E+02 -0.22296759357E+03 -0.82035253653E+02  0.24028108234E+03  0.00000000000E+00 0. -1.
        -13    1    3    3    0    0  0.18401903256E+03 -0.34336784982E+03 -0.16398129226E+03  0.42267522857E+03  0.00000000000E+00 0.  1.
         22    1    1    2    0    0 -0.21994489938E+03  0.56633544340E+03  0.24196091701E+03  0.65395464565E+03  0.00000000000E+00 0.  1.
<mgrwt>
<rscale>  0 0.13169047E+04</rscale>
<asrwt>0</asrwt>
<pdfrwt beam="1">  1        2 0.10161281E+00 0.13169047E+04</pdfrwt>
<pdfrwt beam="2">  1       -2 0.10098887E+00 0.13169047E+04</pdfrwt>
<totfact> 0.34827952E+01</totfact>
</mgrwt>
</event>
<event>
 6    1  0.1028026E-006  0.1327289E+04  0.7818608E-02  0.9008200E-01
          1   -1    0    0  501    0  0.00000000000E+00  0.00000000000E+00  0.55443713526E+03  0.55443713526E+03  0.00000000000E+00 0. -1.
         -1   -1    0    0    0  501 -0.00000000000E+00 -0.00000000000E+00 -0.79436283284E+03  0.79436283284E+03  0.00000000000E+00 0.  1.
         23    2    1    2    0    0 -0.71785665379E+02  0.27801737488E+03 -0.72507118206E+03  0.78505092500E+03  0.90165920970E+02 0.  0.
         13    1    3    3    0    0 -0.66519366530E+02  0.11166568261E+03 -0.38675972178E+03  0.40801609427E+03  0.00000000000E+00 0.  1.
        -13    1    3    3    0    0 -0.52662988494E+01  0.16635169227E+03 -0.33831146028E+03  0.37703483073E+03  0.00000000000E+00 0. -1.
         22    1    1    2    0    0  0.71785665379E+02 -0.27801737488E+03  0.48514548448E+03  0.56374904310E+03  0.00000000000E+00 0. -1.
<mgrwt>
<rscale>  0 0.13272893E+04</rscale>
<asrwt>0</asrwt>
<pdfrwt beam="1">  1        1 0.85298021E-01 0.13272893E+04</pdfrwt>
<pdfrwt beam="2">  1       -1 0.12220967E+00 0.13272893E+04</pdfrwt>
<totfact> 0.22265390E+01</totfact>
</mgrwt>
</event>
<event>
 6    1  0.1028026E-006  0.1153765E+04  0.7818608E-02  0.9154318E-01
          2   -1    0    0  501    0  0.00000000000E+00  0.00000000000E+00  0.27305809531E+04  0.27305809531E+04  0.00000000000E+00 0. -1.
         -2   -1    0    0    0  501 -0.00000000000E+00 -0.00000000000E+00 -0.12187632376E+03  0.12187632376E+03  0.00000000000E+00 0.  1.
         23    2    1    2    0    0  0.15875221945E+03  0.29811655153E+03  0.24557342230E+04  0.24816801326E+04  0.11844813602E+03 0.  0.
         11    1    3    3    0    0  0.17174293139E+03  0.28181821423E+03  0.21441911180E+04  0.21694406401E+04  0.00000000000E+00 0.  1.
        -11    1    3    3    0    0 -0.12990711936E+02  0.16298337302E+02  0.31154310505E+03  0.31223949254E+03  0.00000000000E+00 0. -1.
         22    1    1    2    0    0 -0.15875221945E+03 -0.29811655153E+03  0.15297040626E+03  0.37077714421E+03  0.00000000000E+00 0.  1.
<mgrwt>
<rscale>  0 0.11537646E+04</rscale>
<asrwt>0</asrwt>
<pdfrwt beam="1">  1        2 0.42008933E+00 0.11537646E+04</pdfrwt>
<pdfrwt beam="2">  1       -2 0.18750206E-01 0.11537646E+04</pdfrwt>
<totfact> 0.60978788E+01</totfact>
</mgrwt>
</event>
<event>
 6    1  0.1028026E-006  0.3202375E+04  0.7818608E-02  0.8188190E-01
          2   -1    0    0  501    0  0.00000000000E+00  0.00000000000E+00  0.15701219745E+04  0.15701219745E+04  0.00000000000E+00 0. -1.
         -2   -1    0    0    0  501 -0.00000000000E+00 -0.00000000000E+00 -0.16328681410E+04  0.16328681410E+04  0.00000000000E+00 0.  1.
         23    2    1    2    0    0  0.25597481249E+03 -0.14601052537E+04 -0.63323076309E+03  0.16146314875E+04  0.92861104490E+02 0.  0.
         11    1    3    3    0    0  0.15900690337E+03 -0.73252674988E+03 -0.35833461886E+03  0.83083231381E+03  0.00000000000E+00 0.  1.
        -11    1    3    3    0    0  0.96967909117E+02 -0.72757850378E+03 -0.27489614422E+03  0.78379917368E+03  0.00000000000E+00 0. -1.
         22    1    1    2    0    0 -0.25597481249E+03  0.14601052537E+04  0.57048459661E+03  0.15883586281E+04  0.00000000000E+00 0. -1.
<mgrwt>
<rscale>  0 0.32023755E+04</rscale>
<asrwt>0</asrwt>
<pdfrwt beam="1">  1        2 0.24155723E+00 0.32023755E+04</pdfrwt>
<pdfrwt beam="2">  1       -2 0.25121048E+00 0.32023755E+04</pdfrwt>
<totfact> 0.61641767E-01</totfact>
</mgrwt>
</event>
<event>
 6    1  0.1028026E-006  0.3166965E+04  0.7818608E-02  0.8197596E-01
          2   -1    0    0  501    0  0.00000000000E+00  0.00000000000E+00  0.21834537729E+04  0.21834537729E+04  0.00000000000E+00 0. -1.
         -2   -1    0    0    0  501 -0.00000000000E+00 -0.00000000000E+00 -0.11483719675E+04  0.11483719675E+04  0.00000000000E+00 0.  1.
         23    2    1    2    0    0 -0.75750323992E+03  0.70181979518E+03 -0.74320473716E+03  0.12754538842E+04  0.89817292130E+02 0.  0.
         11    1    3    3    0    0 -0.69705222721E+03  0.60840190473E+03 -0.66743550128E+03  0.11408351474E+04  0.00000000000E+00 0. -1.
        -11    1    3    3    0    0 -0.60451012710E+02  0.93417890449E+02 -0.75769235876E+02  0.13461873680E+03  0.00000000000E+00 0.  1.
         22    1    1    2    0    0  0.75750323992E+03 -0.70181979518E+03  0.17782865425E+04  0.20563718561E+04  0.00000000000E+00 0. -1.
<mgrwt>
<rscale>  0 0.31669652E+04</rscale>
<asrwt>0</asrwt>
<pdfrwt beam="1">  1        2 0.33591596E+00 0.31669652E+04</pdfrwt>
<pdfrwt beam="2">  1       -2 0.17667261E+00 0.31669652E+04</pdfrwt>
<totfact> 0.85192984E-01</totfact>
</mgrwt>
</event>
<event>
 6    1  0.1028026E-006  0.1216837E+04  0.7818608E-02  0.9098245E-01
         -2   -1    0    0    0  501 -0.00000000000E+00  0.00000000000E+00  0.29346855364E+03  0.29346855364E+03  0.00000000000E+00 0.  1.
          2   -1    0    0  501    0  0.00000000000E+00 -0.00000000000E+00 -0.12613722170E+04  0.12613722170E+04  0.00000000000E+00 0. -1.
         23    2    1    2    0    0  0.59889082574E+03  0.68853966444E+02 -0.55225569767E+03  0.82260151928E+03  0.90971501454E+02 0.  0.
         13    1    3    3    0    0  0.27152687698E+03  0.44102246871E+02 -0.19362689121E+03  0.33639742285E+03  0.00000000000E+00 0. -1.
        -13    1    3    3    0    0  0.32736394876E+03  0.24751719573E+02 -0.35862880646E+03  0.48620409644E+03  0.00000000000E+00 0.  1.
         22    1    1    2    0    0 -0.59889082574E+03 -0.68853966444E+02 -0.41564796571E+03  0.73223925137E+03  0.00000000000E+00 0.  1.
<mgrwt>
<rscale>  0 0.12168370E+04</rscale>
<asrwt>0</asrwt>
<pdfrwt beam="1">  1        2 0.19405727E+00 0.12168370E+04</pdfrwt>
<pdfrwt beam="2">  1       -2 0.45149008E-01 0.12168370E+04</pdfrwt>
<totfact> 0.79828622E+01</totfact>
</mgrwt>
</event>
<event>
 6    1  0.1028026E-006  0.2955687E+04  0.7818608E-02  0.8256499E-01
         -2   -1    0    0    0  501 -0.00000000000E+00  0.00000000000E+00  0.14254759563E+04  0.14254759563E+04  0.00000000000E+00 0.  1.
          2   -1    0    0  501    0  0.00000000000E+00 -0.00000000000E+00 -0.15321348864E+04  0.15321348864E+04  0.00000000000E+00 0. -1.
         23    2    1    2    0    0 -0.43884261358E+03 -0.25078182800E+03 -0.14412643341E+04  0.15304997927E+04  0.98551357421E+02 0.  0.
         13    1    3    3    0    0 -0.29430454664E+03 -0.21928512687E+03 -0.10327166819E+04  0.10959949261E+04  0.00000000000E+00 0. -1.
        -13    1    3    3    0    0 -0.14453806694E+03 -0.31496701132E+02 -0.40854765220E+03  0.43450486660E+03  0.00000000000E+00 0.  1.
         22    1    1    2    0    0  0.43884261358E+03  0.25078182800E+03  0.13346054040E+04  0.14271110500E+04  0.00000000000E+00 0.  1.
<mgrwt>
<rscale>  0 0.29556870E+04</rscale>
<asrwt>0</asrwt>
<pdfrwt beam="1">  1        2 0.23571306E+00 0.29556870E+04</pdfrwt>
<pdfrwt beam="2">  1       -2 0.21930399E+00 0.29556870E+04</pdfrwt>
<totfact> 0.10444322E+00</totfact>
</mgrwt>
</event>
<event>
 6    1  0.1028026E-006  0.3239400E+04  0.7818608E-02  0.8178489E-01
          2   -1    0    0  501    0  0.00000000000E+00  0.00000000000E+00  0.12783495041E+04  0.12783495041E+04  0.00000000000E+00 0. -1.
         -2   -1    0    0    0  501 -0.00000000000E+00 -0.00000000000E+00 -0.20521989126E+04  0.20521989126E+04  0.00000000000E+00 0.  1.
         23    2    1    2    0    0 -0.75953824587E+03 -0.74921890087E+03 -0.16384412269E+04  0.19573236278E+04  0.91645085331E+02 0.  0.
         13    1    3    3    0    0 -0.53347224137E+03 -0.55456882623E+03 -0.11131681621E+04  0.13532488952E+04  0.00000000000E+00 0.  1.
        -13    1    3    3    0    0 -0.22606600450E+03 -0.19465007465E+03 -0.52527306479E+03  0.60407473258E+03  0.00000000000E+00 0. -1.
         22    1    1    2    0    0  0.75953824587E+03  0.74921890087E+03  0.86459181838E+03  0.13732247889E+04  0.00000000000E+00 0. -1.
<mgrwt>
<rscale>  0 0.32393996E+04</rscale>
<asrwt>0</asrwt>
<pdfrwt beam="1">  1        2 0.19666916E+00 0.32393996E+04</pdfrwt>
<pdfrwt beam="2">  1       -2 0.31572291E+00 0.32393996E+04</pdfrwt>
<totfact> 0.36343981E-01</totfact>
</mgrwt>
</event>
<event>
 6    1  0.1028026E-006  0.3466997E+04  0.7818608E-02  0.8121656E-01
          1   -1    0    0  501    0  0.00000000000E+00  0.00000000000E+00  0.76619453837E+03  0.76619453837E+03  0.00000000000E+00 0. -1.
         -1   -1    0    0    0  501 -0.00000000000E+00 -0.00000000000E+00 -0.39220035117E+04  0.39220035117E+04  0.00000000000E+00 0.  1.
         23    2    1    2    0    0 -0.10003545020E+04 -0.52348253235E+03 -0.33555930060E+04  0.35416132293E+04  0.90976658309E+02 0.  0.
         13    1    3    3    0    0 -0.50820113846E+03 -0.25399717043E+03 -0.15498638211E+04  0.16507152461E+04  0.00000000000E+00 0. -1.
        -13    1    3    3    0    0 -0.49215336357E+03 -0.26948536193E+03 -0.18057291849E+04  0.18908979832E+04  0.00000000000E+00 0.  1.
         22    1    1    2    0    0  0.10003545020E+04  0.52348253235E+03  0.19978403273E+03  0.11465848207E+04  0.00000000000E+00 0. -1.
<mgrwt>
<rscale>  0 0.34669974E+04</rscale>
<asrwt>0</asrwt>
<pdfrwt beam="1">  1        1 0.11787608E+00 0.34669974E+04</pdfrwt>
<pdfrwt beam="2">  1       -1 0.60338515E+00 0.34669974E+04</pdfrwt>
<totfact> 0.82330614E-03</totfact>
</mgrwt>
</event>
<event>
 6    1  0.1028026E-006  0.2963369E+04  0.7818608E-02  0.8254269E-01
          1   -1    0    0  501    0  0.00000000000E+00  0.00000000000E+00  0.96249848084E+03  0.96249848084E+03  0.00000000000E+00 0. -1.
         -1   -1    0    0    0  501 -0.00000000000E+00 -0.00000000000E+00 -0.22809277810E+04  0.22809277810E+04  0.00000000000E+00 0.  1.
         23    2    1    2    0    0 -0.58016591900E+03  0.13224574732E+04 -0.30375556309E+03  0.14784761054E+04  0.90210254916E+02 0.  0.
         11    1    3    3    0    0 -0.42819073168E+03  0.10348495373E+04 -0.26518355956E+03  0.11509053775E+04  0.00000000000E+00 0. -1.
        -11    1    3    3    0    0 -0.15197518732E+03  0.28760793589E+03 -0.38572003538E+02  0.32757072794E+03  0.00000000000E+00 0.  1.
         22    1    1    2    0    0  0.58016591900E+03 -0.13224574732E+04 -0.10146737371E+04  0.17649501565E+04  0.00000000000E+00 0.  1.
<mgrwt>
<rscale>  0 0.29633694E+04</rscale>
<asrwt>0</asrwt>
<pdfrwt beam="1">  1        1 0.14807669E+00 0.29633694E+04</pdfrwt>
<pdfrwt beam="2">  1       -1 0.35091197E+00 0.29633694E+04</pdfrwt>
<totfact> 0.21184011E-01</totfact>
</mgrwt>
</event>
<event>
 6    1  0.1028026E-006  0.2448282E+04  0.7818608E-02  0.8421645E-01
          1   -1    0    0  501    0  0.00000000000E+00  0.00000000000E+00  0.11446190089E+04  0.11446190089E+04  0.00000000000E+00 0. -1.
         -1   -1    0    0    0  501 -0.00000000000E+00 -0.00000000000E+00 -0.13091879247E+04  0.13091879247E+04  0.00000000000E+00 0.  1.
         23    2    1    2    0    0 -0.34696339603E+03 -0.27973098508E+03 -0.12232919329E+04  0.13051000740E+04  0.90609204285E+02 0.  0.
         11    1    3    3    0    0 -0.20600646000E+03 -0.11697634418E+03 -0.70998314511E+03  0.74846388891E+03  0.00000000000E+00 0. -1.
        -11    1    3    3    0    0 -0.14095693604E+03 -0.16275464090E+03 -0.51330878780E+03  0.55663618512E+03  0.00000000000E+00 0.  1.
         22    1    1    2    0    0  0.34696339603E+03  0.27973098508E+03  0.10587230171E+04  0.11487068595E+04  0.00000000000E+00 0. -1.
<mgrwt>
<rscale>  0 0.24482822E+04</rscale>
<asrwt>0</asrwt>
<pdfrwt beam="1">  1        1 0.17609523E+00 0.24482822E+04</pdfrwt>
<pdfrwt beam="2">  1       -1 0.20141353E+00 0.24482822E+04</pdfrwt>
<totfact> 0.15417878E+00</totfact>
</mgrwt>
</event>
<event>
 6    1  0.1028026E-006  0.2326826E+04  0.7818608E-02  0.8467419E-01
         -2   -1    0    0    0  501 -0.00000000000E+00  0.00000000000E+00  0.73479710858E+03  0.73479710858E+03  0.00000000000E+00 0.  1.
          2   -1    0    0  501    0  0.00000000000E+00 -0.00000000000E+00 -0.18420454616E+04  0.18420454616E+04  0.00000000000E+00 0. -1.
         23    2    1    2    0    0 -0.20062833965E+03  0.10265974836E+03 -0.18165262472E+04  0.18326209058E+04  0.89112417080E+02 0.  0.
         13    1    3    3    0    0 -0.14672333496E+03  0.30234869815E+02 -0.12501999318E+04  0.12591432619E+04  0.00000000000E+00 0.  1.
        -13    1    3    3    0    0 -0.53905004691E+02  0.72424878549E+02 -0.56632631543E+03  0.57347764396E+03  0.00000000000E+00 0. -1.
         22    1    1    2    0    0  0.20062833965E+03 -0.10265974836E+03  0.70927789418E+03  0.74422166441E+03  0.00000000000E+00 0.  1.
<mgrwt>
<rscale>  0 0.23268259E+04</rscale>
<asrwt>0</asrwt>
<pdfrwt beam="1">  1        2 0.28339160E+00 0.23268259E+04</pdfrwt>
<pdfrwt beam="2">  1       -2 0.11304571E+00 0.23268259E+04</pdfrwt>
<totfact> 0.45483416E+00</totfact>
</mgrwt>
</event>
<event>
 6    1  0.1028026E-006  0.4996998E+04  0.7818608E-02  0.7828970E-01
         -2   -1    0    0    0  501 -0.00000000000E+00  0.00000000000E+00  0.25909579509E+04  0.25909579509E+04  0.00000000000E+00 0.  1.
          2   -1    0    0  501    0  0.00000000000E+00 -0.00000000000E+00 -0.24093397281E+04  0.24093397281E+04  0.00000000000E+00 0. -1.
         23    2    1    2    0    0 -0.14123353196E+04 -0.79834050132E+03  0.19910641943E+04  0.25700439197E+04  0.93544173643E+02 0.  0.
         13    1    3    3    0    0 -0.95419976221E+03 -0.58901628897E+03  0.13712333459E+04  0.17713605685E+04  0.00000000000E+00 0. -1.
        -13    1    3    3    0    0 -0.45813555737E+03 -0.20932421235E+03  0.61983084842E+03  0.79868335118E+03  0.00000000000E+00 0.  1.
         22    1    1    2    0    0  0.14123353196E+04  0.79834050132E+03 -0.18094459715E+04  0.24302537594E+04  0.00000000000E+00 0. -1.
<mgrwt>
<rscale>  0 0.49969983E+04</rscale>
<asrwt>0</asrwt>
<pdfrwt beam="1">  1        2 0.37066765E+00 0.49969983E+04</pdfrwt>
<pdfrwt beam="2">  1       -2 0.39860892E+00 0.49969983E+04</pdfrwt>
<totfact> 0.21687898E-02</totfact>
</mgrwt>
</event>
<event>
 6    1  0.1028026E-006  0.1715615E+04  0.7818608E-02  0.8752508E-01
          2   -1    0    0  501    0  0.00000000000E+00  0.00000000000E+00  0.15608078440E+04  0.15608078440E+04  0.00000000000E+00 0. -1.
         -2   -1    0    0    0  501 -0.00000000000E+00 -0.00000000000E+00 -0.47144440828E+03  0.47144440828E+03  0.00000000000E+00 0.  1.
         23    2    1    2    0    0 -0.42335439822E+03 -0.37309797464E+01  0.14266154550E+04  0.14909743281E+04  0.92357587654E+02 0.  0.
         11    1    3    3    0    0 -0.23221914727E+03  0.71140441764E+01  0.93413348982E+03  0.96259114830E+03  0.00000000000E+00 0. -1.
        -11    1    3    3    0    0 -0.19113525095E+03 -0.10845023923E+02  0.49248196517E+03  0.52838317982E+03  0.00000000000E+00 0.  1.
         22    1    1    2    0    0  0.42335439822E+03  0.37309797464E+01 -0.33725201925E+03  0.54127792417E+03  0.00000000000E+00 0.  1.
<mgrwt>
<rscale>  0 0.17156155E+04</rscale>
<asrwt>0</asrwt>
<pdfrwt beam="1">  1        2 0.24012428E+00 0.17156155E+04</pdfrwt>
<pdfrwt beam="2">  1       -2 0.72529910E-01 0.17156155E+04</pdfrwt>
<totfact> 0.19169748E+01</totfact>
</mgrwt>
</event>
<event>
 6    1  0.1028026E-006  0.2127425E+04  0.7818608E-02  0.8549258E-01
          2   -1    0    0  501    0  0.00000000000E+00  0.00000000000E+00  0.12656940709E+04  0.12656940709E+04  0.00000000000E+00 0. -1.
         -2   -1    0    0    0  501 -0.00000000000E+00 -0.00000000000E+00 -0.89396349095E+03  0.89396349095E+03  0.00000000000E+00 0.  1.
         23    2    1    2    0    0 -0.73353306781E+03  0.66318355401E+03  0.57900598131E+03  0.11492881839E+04  0.87933016803E+02 0.  0.
         13    1    3    3    0    0 -0.28879266296E+03  0.24785172498E+03  0.17506424397E+03  0.41890233858E+03  0.00000000000E+00 0.  1.
        -13    1    3    3    0    0 -0.44474040485E+03  0.41533182903E+03  0.40394173735E+03  0.73038584535E+03  0.00000000000E+00 0. -1.
         22    1    1    2    0    0  0.73353306781E+03 -0.66318355401E+03 -0.20727540134E+03  0.10103693779E+04  0.00000000000E+00 0.  1.
<mgrwt>
<rscale>  0 0.21274250E+04</rscale>
<asrwt>0</asrwt>
<pdfrwt beam="1">  1        2 0.19472216E+00 0.21274250E+04</pdfrwt>
<pdfrwt beam="2">  1       -2 0.13753284E+00 0.21274250E+04</pdfrwt>
<totfact> 0.59889448E+00</totfact>
</mgrwt>
</event>
<event>
 6    1  0.1028026E-006  0.2736139E+04  0.7818608E-02  0.8323374E-01
          2   -1    0    0  501    0  0.00000000000E+00  0.00000000000E+00  0.35916805069E+04  0.35916805069E+04  0.00000000000E+00 0. -1.
         -2   -1    0    0    0  501 -0.00000000000E+00 -0.00000000000E+00 -0.52109700945E+03  0.52109700945E+03  0.00000000000E+00 0.  1.
         23    2    1    2    0    0 -0.52004534965E+03 -0.12186496661E+04  0.20399330289E+04  0.24341487418E+04  0.90549214780E+02 0.  0.
         13    1    3    3    0    0 -0.13490342278E+03 -0.39060969210E+03  0.58133028641E+03  0.71324593720E+03  0.00000000000E+00 0. -1.
        -13    1    3    3    0    0 -0.38514192687E+03 -0.82803997402E+03  0.14586027425E+04  0.17209028046E+04  0.00000000000E+00 0.  1.
         22    1    1    2    0    0  0.52004534965E+03  0.12186496661E+04  0.10306504685E+04  0.16786287745E+04  0.00000000000E+00 0.  1.
<mgrwt>
<rscale>  0 0.27361389E+04</rscale>
<asrwt>0</asrwt>
<pdfrwt beam="1">  1        2 0.55256622E+00 0.27361389E+04</pdfrwt>
<pdfrwt beam="2">  1       -2 0.80168773E-01 0.27361389E+04</pdfrwt>
<totfact> 0.84250972E-01</totfact>
</mgrwt>
</event>
<event>
 6    1  0.1028026E-006  0.4438829E+04  0.7818608E-02  0.7921434E-01
         -1   -1    0    0    0  501 -0.00000000000E+00  0.00000000000E+00  0.14716451815E+04  0.14716451815E+04  0.00000000000E+00 0.  1.
          1   -1    0    0  501    0  0.00000000000E+00 -0.00000000000E+00 -0.33471381980E+04  0.33471381980E+04  0.00000000000E+00 0. -1.
         23    2    1    2    0    0 -0.16018981876E+04  0.71457959047E+03 -0.24127044191E+04  0.29843085540E+04  0.90846776491E+02 0.  0.
         11    1    3    3    0    0 -0.64772697788E+03  0.25339023475E+03 -0.90477934332E+03  0.11412197462E+04  0.00000000000E+00 0.  1.
        -11    1    3    3    0    0 -0.95417120975E+03  0.46118935573E+03 -0.15079250758E+04  0.18430888078E+04  0.00000000000E+00 0. -1.
         22    1    1    2    0    0  0.16018981876E+04 -0.71457959047E+03  0.53721140260E+03  0.18344748256E+04  0.00000000000E+00 0.  1.
<mgrwt>
<rscale>  0 0.44388286E+04</rscale>
<asrwt>0</asrwt>
<pdfrwt beam="1">  1        1 0.51494434E+00 0.44388286E+04</pdfrwt>
<pdfrwt beam="2">  1       -1 0.22640695E+00 0.44388286E+04</pdfrwt>
<totfact> 0.24727581E-02</totfact>
</mgrwt>
</event>
<event>
 6    1  0.1028026E-006  0.7122661E+03  0.7818608E-02  0.9696482E-01
         -1   -1    0    0    0  501 -0.00000000000E+00  0.00000000000E+00  0.14006825738E+03  0.14006825738E+03  0.00000000000E+00 0.  1.
          1   -1    0    0  501    0  0.00000000000E+00 -0.00000000000E+00 -0.90549250746E+03  0.90549250746E+03  0.00000000000E+00 0. -1.
         23    2    1    2    0    0 -0.25136974863E+03 -0.22453035755E+03 -0.24938352364E+03  0.42920156492E+03  0.91767148168E+02 0.  0.
         13    1    3    3    0    0 -0.16112747156E+03 -0.88528838526E+02 -0.10772051203E+03  0.21308009304E+03  0.00000000000E+00 0.  1.
        -13    1    3    3    0    0 -0.90242277075E+02 -0.13600151902E+03 -0.14166301161E+03  0.21612147188E+03  0.00000000000E+00 0. -1.
         22    1    1    2    0    0  0.25136974863E+03  0.22453035755E+03 -0.51604072644E+03  0.61635919992E+03  0.00000000000E+00 0.  1.
<mgrwt>
<rscale>  0 0.71226612E+03</rscale>
<asrwt>0</asrwt>
<pdfrwt beam="1">  1        1 0.13930654E+00 0.71226612E+03</pdfrwt>
<pdfrwt beam="2">  1       -1 0.21548962E-01 0.71226612E+03</pdfrwt>
<totfact> 0.32860611E+02</totfact>
</mgrwt>
</event>
<event>
 6    1  0.1028026E-006  0.2728439E+04  0.7818608E-02  0.8325836E-01
          1   -1    0    0  501    0  0.00000000000E+00  0.00000000000E+00  0.77994472039E+03  0.77994472039E+03  0.00000000000E+00 0. -1.
         -1   -1    0    0    0  501 -0.00000000000E+00 -0.00000000000E+00 -0.23861880200E+04  0.23861880200E+04  0.00000000000E+00 0.  1.
         23    2    1    2    0    0  0.10658835563E+04 -0.83615203045E+03 -0.63309610183E+03  0.14981179197E+04  0.91042043353E+02 0.  0.
         13    1    3    3    0    0  0.96441590142E+03 -0.71996066822E+03 -0.56163706869E+03  0.13281105344E+04  0.00000000000E+00 0. -1.
        -13    1    3    3    0    0  0.10146765483E+03 -0.11619136224E+03 -0.71459033143E+02  0.17000738529E+03  0.00000000000E+00 0.  1.
         22    1    1    2    0    0 -0.10658835563E+04  0.83615203045E+03 -0.97314719779E+03  0.16680148207E+04  0.00000000000E+00 0.  1.
<mgrwt>
<rscale>  0 0.27284389E+04</rscale>
<asrwt>0</asrwt>
<pdfrwt beam="1">  1        1 0.11999150E+00 0.27284389E+04</pdfrwt>
<pdfrwt beam="2">  1       -1 0.36710585E+00 0.27284389E+04</pdfrwt>
<totfact> 0.23961903E-01</totfact>
</mgrwt>
</event>
<event>
 6    1  0.1028026E-006  0.1919284E+04  0.7818608E-02  0.8645317E-01
          2   -1    0    0  501    0  0.00000000000E+00  0.00000000000E+00  0.21231389521E+04  0.21231389521E+04  0.00000000000E+00 0. -1.
         -2   -1    0    0    0  501 -0.00000000000E+00 -0.00000000000E+00 -0.43375057257E+03  0.43375057257E+03  0.00000000000E+00 0.  1.
         23    2    1    2    0    0 -0.55468038320E+03 -0.47244481283E+03  0.16749817589E+04  0.18281358081E+04  0.75114656228E+02 0.  0.
         13    1    3    3    0    0 -0.27547964090E+03 -0.28001478198E+03  0.86273121549E+03  0.94794644409E+03  0.00000000000E+00 0.  1.
        -13    1    3    3    0    0 -0.27920074230E+03 -0.19243003085E+03  0.81225054336E+03  0.88018936398E+03  0.00000000000E+00 0. -1.
         22    1    1    2    0    0  0.55468038320E+03  0.47244481283E+03  0.14406620630E+02  0.72875371656E+03  0.00000000000E+00 0.  1.
<mgrwt>
<rscale>  0 0.19192840E+04</rscale>
<asrwt>0</asrwt>
<pdfrwt beam="1">  1        2 0.32663676E+00 0.19192840E+04</pdfrwt>
<pdfrwt beam="2">  1       -2 0.66730858E-01 0.19192840E+04</pdfrwt>
<totfact> 0.11001392E+01</totfact>
</mgrwt>
</event>
<event>
 6    1  0.1028026E-006  0.1272132E+04  0.7818608E-02  0.9051962E-01
         -2   -1    0    0    0  501 -0.00000000000E+00  0.00000000000E+00  0.73022916809E+03  0.73022916809E+03  0.00000000000E+00 0.  1.
          2   -1    0    0  501    0  0.00000000000E+00 -0.00000000000E+00 -0.55404476784E+03  0.55404476784E+03  0.00000000000E+00 0. -1.
         23    2    1    2    0    0  0.15818818005E+02  0.36560553108E+03  0.60982724047E+03  0.71685543762E+03  0.89859979165E+02 0.  0.
         13    1    3    3    0    0  0.37937784939E+02  0.33393915253E+03  0.56749304769E+03  0.65954756636E+03  0.00000000000E+00 0. -1.
        -13    1    3    3    0    0 -0.22118966935E+02  0.31666378558E+02  0.42334192778E+02  0.57307871252E+02  0.00000000000E+00 0.  1.
         22    1    1    2    0    0 -0.15818818005E+02 -0.36560553108E+03 -0.43364284021E+03  0.56741849832E+03  0.00000000000E+00 0. -1.
<mgrwt>
<rscale>  0 0.12721315E+04</rscale>
<asrwt>0</asrwt>
<pdfrwt beam="1">  1        2 0.85237656E-01 0.12721315E+04</pdfrwt>
<pdfrwt beam="2">  1       -2 0.11234295E+00 0.12721315E+04</pdfrwt>
<totfact> 0.33453716E+01</totfact>
</mgrwt>
</event>
<event>
 6    1  0.1028026E-006  0.2053821E+04  0.7818608E-02  0.8581863E-01
         -2   -1    0    0    0  501 -0.00000000000E+00  0.00000000000E+00  0.88570421080E+03  0.88570421080E+03  0.00000000000E+00 0.  1.
          2   -1    0    0  501    0  0.00000000000E+00 -0.00000000000E+00 -0.11906290709E+04  0.11906290709E+04  0.00000000000E+00 0. -1.
         23    2    1    2    0    0 -0.94010117168E+03 -0.24228584928E+03 -0.48547831368E+03  0.10888657150E+04  0.86294301014E+02 0.  0.
         13    1    3    3    0    0 -0.52040617281E+03 -0.16297605725E+03 -0.30837255933E+03  0.62648017948E+03  0.00000000000E+00 0. -1.
        -13    1    3    3    0    0 -0.41969499887E+03 -0.79309792027E+02 -0.17710575436E+03  0.46238553547E+03  0.00000000000E+00 0.  1.
         22    1    1    2    0    0  0.94010117168E+03  0.24228584928E+03  0.18055345359E+03  0.98746756674E+03  0.00000000000E+00 0.  1.
<mgrwt>
<rscale>  0 0.20538210E+04</rscale>
<asrwt>0</asrwt>
<pdfrwt beam="1">  1        2 0.18317370E+00 0.20538210E+04</pdfrwt>
<pdfrwt beam="2">  1       -2 0.13626219E+00 0.20538210E+04</pdfrwt>
<totfact> 0.68379901E+00</totfact>
</mgrwt>
</event>
<event>
 6    1  0.1028026E-006  0.2807539E+04  0.7818608E-02  0.8300932E-01
         -1   -1    0    0    0  501 -0.00000000000E+00  0.00000000000E+00  0.11556256219E+04  0.11556256219E+04  0.00000000000E+00 0.  1.
          1   -1    0    0  501    0  0.00000000000E+00 -0.00000000000E+00 -0.17051965182E+04  0.17051965182E+04  0.00000000000E+00 0. -1.
         23    2    1    2    0    0  0.27020058976E+03 -0.13997968738E+03 -0.16699232418E+04  0.16998776756E+04  0.91311591880E+02 0.  0.
         13    1    3    3    0    0  0.20924737345E+03 -0.14308592934E+03 -0.12401324554E+04  0.12657750801E+04  0.00000000000E+00 0. -1.
        -13    1    3    3    0    0  0.60953216304E+02  0.31062419608E+01 -0.42979078640E+03  0.43410259547E+03  0.00000000000E+00 0.  1.
         22    1    1    2    0    0 -0.27020058976E+03  0.13997968738E+03  0.11203523455E+04  0.11609444645E+04  0.00000000000E+00 0.  1.
<mgrwt>
<rscale>  0 0.28075390E+04</rscale>
<asrwt>0</asrwt>
<pdfrwt beam="1">  1        1 0.26233793E+00 0.28075390E+04</pdfrwt>
<pdfrwt beam="2">  1       -1 0.17778856E+00 0.28075390E+04</pdfrwt>
<totfact> 0.88299979E-01</totfact>
</mgrwt>
</event>
<event>
 6    1  0.1028026E-006  0.2145120E+04  0.7818608E-02  0.8541624E-01
         -2   -1    0    0    0  501 -0.00000000000E+00  0.00000000000E+00  0.13695396378E+04  0.13695396378E+04  0.00000000000E+00 0.  1.
          2   -1    0    0  501    0  0.00000000000E+00 -0.00000000000E+00 -0.83997969651E+03  0.83997969651E+03  0.00000000000E+00 0. -1.
         23    2    1    2    0    0 -0.62010665556E+03 -0.29089058756E+03 -0.58228696293E+03  0.90362763259E+03  0.91297278080E+02 0.  0.
         11    1    3    3    0    0 -0.29045914218E+03 -0.86227896549E+02 -0.25622586878E+03  0.39680405649E+03  0.00000000000E+00 0. -1.
        -11    1    3    3    0    0 -0.32964751338E+03 -0.20466269101E+03 -0.32606109415E+03  0.50682357610E+03  0.00000000000E+00 0.  1.
         22    1    1    2    0    0  0.62010665556E+03  0.29089058756E+03  0.11118469042E+04  0.13058917017E+04  0.00000000000E+00 0.  1.
<mgrwt>
<rscale>  0 0.21451205E+04</rscale>
<asrwt>0</asrwt>
<pdfrwt beam="1">  1        2 0.12922765E+00 0.21451205E+04</pdfrwt>
<pdfrwt beam="2">  1       -2 0.21069841E+00 0.21451205E+04</pdfrwt>
<totfact> 0.33550547E+00</totfact>
</mgrwt>
</event>
<event>
 6    1  0.1028026E-006  0.2331408E+04  0.7818608E-02  0.8465639E-01
         -1   -1    0    0    0  501 -0.00000000000E+00  0.00000000000E+00  0.85251171842E+03  0.85251171842E+03  0.00000000000E+00 0.  1.
          1   -1    0    0  501    0  0.00000000000E+00 -0.00000000000E+00 -0.15939555294E+04  0.15939555294E+04  0.00000000000E+00 0. -1.
         23    2    1    2    0    0  0.98232191383E+03 -0.25723199153E+03  0.22584976341E+03  0.10440473753E+04  0.88894129649E+02 0.  0.
         13    1    3    3    0    0  0.27225916475E+03 -0.73261582887E+02  0.22321612265E+02  0.28282603609E+03  0.00000000000E+00 0. -1.
        -13    1    3    3    0    0  0.71006274908E+03 -0.18397040864E+03  0.20352815115E+03  0.76122133916E+03  0.00000000000E+00 0.  1.
         22    1    1    2    0    0 -0.98232191383E+03  0.25723199153E+03 -0.96729357437E+03  0.14024198725E+04  0.00000000000E+00 0. -1.
<mgrwt>
<rscale>  0 0.23314080E+04</rscale>
<asrwt>0</asrwt>
<pdfrwt beam="1">  1        1 0.24522392E+00 0.23314080E+04</pdfrwt>
<pdfrwt beam="2">  1       -1 0.13115565E+00 0.23314080E+04</pdfrwt>
<totfact> 0.25183866E+00</totfact>
</mgrwt>
</event>
<event>
 6    1  0.1028026E-006  0.2707283E+04  0.7818608E-02  0.8332646E-01
         -2   -1    0    0    0  501 -0.00000000000E+00  0.00000000000E+00  0.62376875573E+03  0.62376875573E+03  0.00000000000E+00 0.  1.
          2   -1    0    0  501    0  0.00000000000E+00 -0.00000000000E+00 -0.29375400369E+04  0.29375400369E+04  0.00000000000E+00 0. -1.
         23    2    1    2    0    0  0.11074398077E+04  0.44389261443E+03 -0.19943374430E+04  0.23261968311E+04  0.10171666264E+03 0.  0.
         13    1    3    3    0    0  0.19613131277E+03  0.10085694877E+03 -0.30613772335E+03  0.37730613780E+03  0.00000000000E+00 0. -1.
        -13    1    3    3    0    0  0.91130849490E+03  0.34303566566E+03 -0.16881997197E+04  0.19488906933E+04  0.00000000000E+00 0.  1.
         22    1    1    2    0    0 -0.11074398077E+04 -0.44389261443E+03 -0.31943383821E+03  0.12351119616E+04  0.00000000000E+00 0.  1.
<mgrwt>
<rscale>  0 0.27072833E+04</rscale>
<asrwt>0</asrwt>
<pdfrwt beam="1">  1        2 0.45192924E+00 0.27072833E+04</pdfrwt>
<pdfrwt beam="2">  1       -2 0.95964424E-01 0.27072833E+04</pdfrwt>
<totfact> 0.15194702E+00</totfact>
</mgrwt>
</event>
<event>
 6    1  0.1028026E-006  0.3117623E+04  0.7818608E-02  0.8210918E-01
          2   -1    0    0  501    0  0.00000000000E+00  0.00000000000E+00  0.34259050884E+04  0.34259050884E+04  0.00000000000E+00 0. -1.
         -2   -1    0    0    0  501 -0.00000000000E+00 -0.00000000000E+00 -0.70927024927E+03  0.70927024927E+03  0.00000000000E+00 0.  1.
         23    2    1    2    0    0 -0.59767501723E+03  0.87124770663E+01  0.32671193816E+04  0.33225717659E+04  0.90126316390E+02 0.  0.
         11    1    3    3    0    0 -0.47444776781E+03 -0.29043314290E+02  0.26106154679E+04  0.26535367568E+04  0.00000000000E+00 0. -1.
        -11    1    3    3    0    0 -0.12322724942E+03  0.37755791356E+02  0.65650391366E+03  0.66903500912E+03  0.00000000000E+00 0.  1.
         22    1    1    2    0    0  0.59767501723E+03 -0.87124770663E+01 -0.55048454238E+03  0.81260357179E+03  0.00000000000E+00 0.  1.
<mgrwt>
<rscale>  0 0.31176225E+04</rscale>
<asrwt>0</asrwt>
<pdfrwt beam="1">  1        2 0.52706231E+00 0.31176225E+04</pdfrwt>
<pdfrwt beam="2">  1       -2 0.10911850E+00 0.31176225E+04</pdfrwt>
<totfact> 0.51925922E-01</totfact>
</mgrwt>
</event>
<event>
 6    1  0.1028026E-006  0.5769430E+04  0.7818608E-02  0.7719666E-01
         -2   -1    0    0    0  501 -0.00000000000E+00  0.00000000000E+00  0.27400289615E+04  0.27400289615E+04  0.00000000000E+00 0.  1.
          2   -1    0    0  501    0  0.00000000000E+00 -0.00000000000E+00 -0.30370416209E+04  0.30370416209E+04  0.00000000000E+00 0. -1.
         23    2    1    2    0    0 -0.22484290236E+04  0.17537782504E+04 -0.58083479888E+03  0.29114596122E+04  0.89759587829E+02 0.  0.
         13    1    3    3    0    0 -0.80906393234E+03  0.67966747964E+03 -0.23584493371E+03  0.10826611484E+04  0.00000000000E+00 0.  1.
        -13    1    3    3    0    0 -0.14393650913E+04  0.10741107708E+04 -0.34498986517E+03  0.18287984638E+04  0.00000000000E+00 0. -1.
         22    1    1    2    0    0  0.22484290236E+04 -0.17537782504E+04  0.28382213948E+03  0.28656109703E+04  0.00000000000E+00 0. -1.
<mgrwt>
<rscale>  0 0.57694305E+04</rscale>
<asrwt>0</asrwt>
<pdfrwt beam="1">  1        2 0.46723717E+00 0.57694305E+04</pdfrwt>
<pdfrwt beam="2">  1       -2 0.42154292E+00 0.57694305E+04</pdfrwt>
<totfact> 0.60657359E-03</totfact>
</mgrwt>
</event>
<event>
 6    1  0.1028026E-006  0.4503700E+04  0.7818608E-02  0.7909989E-01
          2   -1    0    0  501    0  0.00000000000E+00  0.00000000000E+00  0.20635313300E+04  0.20635313300E+04  0.00000000000E+00 0. -1.
         -2   -1    0    0    0  501 -0.00000000000E+00 -0.00000000000E+00 -0.24573543709E+04  0.24573543709E+04  0.00000000000E+00 0.  1.
         23    2    1    2    0    0 -0.19076003241E+04  0.68759643654E+03 -0.11779562398E+04  0.23468128572E+04  0.90674296261E+02 0.  0.
         13    1    3    3    0    0 -0.81615737230E+03  0.34018923720E+03 -0.49911640336E+03  0.10153613926E+04  0.00000000000E+00 0. -1.
        -13    1    3    3    0    0 -0.10914429518E+04  0.34740719933E+03 -0.67883983640E+03  0.13314514646E+04  0.00000000000E+00 0.  1.
         22    1    1    2    0    0  0.19076003241E+04 -0.68759643654E+03  0.78413319888E+03  0.21740728437E+04  0.00000000000E+00 0.  1.
<mgrwt>
<rscale>  0 0.45036997E+04</rscale>
<asrwt>0</asrwt>
<pdfrwt beam="1">  1        2 0.31746636E+00 0.45036997E+04</pdfrwt>
<pdfrwt beam="2">  1       -2 0.37805452E+00 0.45036997E+04</pdfrwt>
<totfact> 0.48072605E-02</totfact>
</mgrwt>
</event>
<event>
 6    1  0.1028026E-006  0.3179093E+04  0.7818608E-02  0.8194361E-01
         -1   -1    0    0    0  501 -0.00000000000E+00  0.00000000000E+00  0.13848088336E+04  0.13848088336E+04  0.00000000000E+00 0.  1.
          1   -1    0    0  501    0  0.00000000000E+00 -0.00000000000E+00 -0.18245531473E+04  0.18245531473E+04  0.00000000000E+00 0. -1.
         23    2    1    2    0    0 -0.51952226286E+03 -0.54510562813E+03 -0.16317619586E+04  0.17994153176E+04  0.90580727047E+02 0.  0.
         11    1    3    3    0    0 -0.30109518607E+03 -0.29329086111E+03 -0.80875428701E+03  0.91146110013E+03  0.00000000000E+00 0.  1.
        -11    1    3    3    0    0 -0.21842707679E+03 -0.25181476702E+03 -0.82300767162E+03  0.88795421746E+03  0.00000000000E+00 0. -1.
         22    1    1    2    0    0  0.51952226286E+03  0.54510562813E+03  0.11920176449E+04  0.14099466633E+04  0.00000000000E+00 0.  1.
<mgrwt>
<rscale>  0 0.31790925E+04</rscale>
<asrwt>0</asrwt>
<pdfrwt beam="1">  1        1 0.28070048E+00 0.31790925E+04</pdfrwt>
<pdfrwt beam="2">  1       -1 0.21304751E+00 0.31790925E+04</pdfrwt>
<totfact> 0.40281976E-01</totfact>
</mgrwt>
</event>
<event>
 6    1  0.1028026E-006  0.2274357E+04  0.7818608E-02  0.8488101E-01
          1   -1    0    0  501    0  0.00000000000E+00  0.00000000000E+00  0.10170285007E+04  0.10170285007E+04  0.00000000000E+00 0. -1.
         -1   -1    0    0    0  501 -0.00000000000E+00 -0.00000000000E+00 -0.12715229332E+04  0.12715229332E+04  0.00000000000E+00 0.  1.
         23    2    1    2    0    0  0.54452885371E+02  0.82963194296E+03 -0.90533271322E+03  0.12326893477E+04  0.92959285747E+02 0.  0.
         11    1    3    3    0    0 -0.77751270898E+01  0.53592119461E+03 -0.59821172266E+03  0.80319938033E+03  0.00000000000E+00 0. -1.
        -11    1    3    3    0    0  0.62228012461E+02  0.29371074834E+03 -0.30712099055E+03  0.42948996736E+03  0.00000000000E+00 0.  1.
         22    1    1    2    0    0 -0.54452885371E+02 -0.82963194296E+03  0.65083828074E+03  0.10558620862E+04  0.00000000000E+00 0. -1.
<mgrwt>
<rscale>  0 0.22743571E+04</rscale>
<asrwt>0</asrwt>
<pdfrwt beam="1">  1        1 0.15646592E+00 0.22743571E+04</pdfrwt>
<pdfrwt beam="2">  1       -1 0.19561891E+00 0.22743571E+04</pdfrwt>
<totfact> 0.21457214E+00</totfact>
</mgrwt>
</event>
<event>
 6    1  0.1028026E-006  0.3746452E+04  0.7818608E-02  0.8057745E-01
         -1   -1    0    0    0  501 -0.00000000000E+00  0.00000000000E+00  0.82408979932E+03  0.82408979932E+03  0.00000000000E+00 0.  1.
          1   -1    0    0  501    0  0.00000000000E+00 -0.00000000000E+00 -0.42580006392E+04  0.42580006392E+04  0.00000000000E+00 0. -1.
         23    2    1    2    0    0  0.18597210759E+04  0.42024050445E+02 -0.20037149720E+04  0.27356487236E+04  0.92583740681E+02 0.  0.
         13    1    3    3    0    0  0.10625018737E+04 -0.12719477785E+02 -0.11032546536E+04  0.15317450334E+04  0.00000000000E+00 0. -1.
        -13    1    3    3    0    0  0.79721920218E+03  0.54743528231E+02 -0.90046031840E+03  0.12039036902E+04  0.00000000000E+00 0.  1.
         22    1    1    2    0    0 -0.18597210759E+04 -0.42024050445E+02 -0.14301958679E+04  0.23464417149E+04  0.00000000000E+00 0.  1.
<mgrwt>
<rscale>  0 0.37464516E+04</rscale>
<asrwt>0</asrwt>
<pdfrwt beam="1">  1        1 0.65507703E+00 0.37464516E+04</pdfrwt>
<pdfrwt beam="2">  1       -1 0.12678304E+00 0.37464516E+04</pdfrwt>
<totfact> 0.23992220E-02</totfact>
</mgrwt>
</event>
<event>
 6    1  0.1048722E-006  0.3685740E+04  0.7818608E-02  0.8071129E-01
          2   -1    0    0  501    0  0.00000000000E+00  0.00000000000E+00  0.25102873641E+04  0.25102873641E+04  0.00000000000E+00 0. -1.
         -2   -1    0    0    0  501 -0.00000000000E+00 -0.00000000000E+00 -0.13529008413E+04  0.13529008413E+04  0.00000000000E+00 0.  1.
         23    2    1    2    0    0 -0.14629222351E+04 -0.46970237236E+03  0.16434555513E+04  0.22516594638E+04  0.90897783787E+02 0.  0.
         11    1    3    3    0    0 -0.59502333271E+03 -0.16637946650E+03  0.71636192024E+03  0.94599645565E+03  0.00000000000E+00 0.  1.
        -11    1    3    3    0    0 -0.86789890235E+03 -0.30332290586E+03  0.92709363110E+03  0.13056630081E+04  0.00000000000E+00 0. -1.
         22    1    1    2    0    0  0.14629222351E+04  0.46970237236E+03 -0.48606902859E+03  0.16115287416E+04  0.00000000000E+00 0. -1.
<mgrwt>
<rscale>  0 0.36857400E+04</rscale>
<asrwt>0</asrwt>
<pdfrwt beam="1">  1        2 0.38619806E+00 0.36857400E+04</pdfrwt>
<pdfrwt beam="2">  1       -2 0.20813859E+00 0.36857400E+04</pdfrwt>
<totfact> 0.32710612E-01</totfact>
</mgrwt>
</event>
<event>
 6    1  0.1028026E-006  0.1268965E+04  0.7818608E-02  0.9054545E-01
          2   -1    0    0  501    0  0.00000000000E+00  0.00000000000E+00  0.13544846076E+04  0.13544846076E+04  0.00000000000E+00 0. -1.
         -2   -1    0    0    0  501 -0.00000000000E+00 -0.00000000000E+00 -0.29721128228E+03  0.29721128228E+03  0.00000000000E+00 0.  1.
         23    2    1    2    0    0 -0.57594734798E+03 -0.19032203991E+01  0.19528600243E+03  0.61499867529E+03  0.91475559446E+02 0.  0.
         13    1    3    3    0    0 -0.21866117331E+03  0.14073361621E+02  0.11887817939E+03  0.24928455579E+03  0.00000000000E+00 0.  1.
        -13    1    3    3    0    0 -0.35728617467E+03 -0.15976582020E+02  0.76407823040E+02  0.36571411950E+03  0.00000000000E+00 0. -1.
         22    1    1    2    0    0  0.57594734798E+03  0.19032203991E+01  0.86198732287E+03  0.10366972146E+04  0.00000000000E+00 0. -1.
<mgrwt>
<rscale>  0 0.12689651E+04</rscale>
<asrwt>0</asrwt>
<pdfrwt beam="1">  1        2 0.20838224E+00 0.12689651E+04</pdfrwt>
<pdfrwt beam="2">  1       -2 0.45724813E-01 0.12689651E+04</pdfrwt>
<totfact> 0.68444470E+01</totfact>
</mgrwt>
</event>
<event>
 6    1  0.1028026E-006  0.2740425E+04  0.7818608E-02  0.8322006E-01
          1   -1    0    0  501    0  0.00000000000E+00  0.00000000000E+00  0.26726790314E+04  0.26726790314E+04  0.00000000000E+00 0. -1.
         -1   -1    0    0    0  501 -0.00000000000E+00 -0.00000000000E+00 -0.70247197460E+03  0.70247197460E+03  0.00000000000E+00 0.  1.
         23    2    1    2    0    0  0.80631950234E+03  0.77439139724E+03  0.19587666039E+04  0.22571330903E+04  0.89721807917E+02 0.  0.
         11    1    3    3    0    0  0.93607684980E+02  0.88089726035E+02  0.17222033940E+03  0.21490007869E+03  0.00000000000E+00 0. -1.
        -11    1    3    3    0    0  0.71271181736E+03  0.68630167121E+03  0.17865462645E+04  0.20422330116E+04  0.00000000000E+00 0.  1.
         22    1    1    2    0    0 -0.80631950234E+03 -0.77439139724E+03  0.11440452967E+02  0.11180179157E+04  0.00000000000E+00 0.  1.
<mgrwt>
<rscale>  0 0.27404249E+04</rscale>
<asrwt>0</asrwt>
<pdfrwt beam="1">  1        1 0.41118139E+00 0.27404249E+04</pdfrwt>
<pdfrwt beam="2">  1       -1 0.10807261E+00 0.27404249E+04</pdfrwt>
<totfact> 0.70996314E-01</totfact>
</mgrwt>
</event>
<event>
 6    1  0.1064817E-006  0.2947630E+04  0.7818608E-02  0.8258846E-01
          1   -1    0    0  501    0  0.00000000000E+00  0.00000000000E+00  0.15751998559E+04  0.15751998559E+04  0.00000000000E+00 0. -1.
         -1   -1    0    0    0  501 -0.00000000000E+00 -0.00000000000E+00 -0.13789555956E+04  0.13789555956E+04  0.00000000000E+00 0.  1.
         23    2    1    2    0    0 -0.11736504863E+04  0.88846388298E+03  0.12989924163E+03  0.14806476651E+04  0.92844816023E+02 0.  0.
         13    1    3    3    0    0 -0.54037558732E+03  0.46551352911E+03  0.74153929208E+02  0.71708257989E+03  0.00000000000E+00 0.  1.
        -13    1    3    3    0    0 -0.63327489896E+03  0.42295035386E+03  0.55745312418E+02  0.76356508520E+03  0.00000000000E+00 0. -1.
         22    1    1    2    0    0  0.11736504863E+04 -0.88846388298E+03  0.66345018682E+02  0.14735077865E+04  0.00000000000E+00 0.  1.
<mgrwt>
<rscale>  0 0.29476300E+04</rscale>
<asrwt>0</asrwt>
<pdfrwt beam="1">  1        1 0.24233844E+00 0.29476300E+04</pdfrwt>
<pdfrwt beam="2">  1       -1 0.21214701E+00 0.29476300E+04</pdfrwt>
<totfact> 0.61682490E-01</totfact>
</mgrwt>
</event>
<event>
 6    1  0.1028026E-006  0.3122065E+04  0.7818608E-02  0.8209708E-01
         -2   -1    0    0    0  501 -0.00000000000E+00  0.00000000000E+00  0.66233304194E+03  0.66233304194E+03  0.00000000000E+00 0.  1.
          2   -1    0    0  501    0  0.00000000000E+00 -0.00000000000E+00 -0.36791489450E+04  0.36791489450E+04  0.00000000000E+00 0. -1.
         23    2    1    2    0    0  0.15463417419E+04 -0.20366160515E+03 -0.14937414312E+04  0.21614804551E+04  0.89908075790E+02 0.  0.
         11    1    3    3    0    0  0.63180324020E+03 -0.83567423643E+02 -0.67195781342E+03  0.92611346586E+03  0.00000000000E+00 0. -1.
        -11    1    3    3    0    0  0.91453850170E+03 -0.12009418151E+03 -0.82178361779E+03  0.12353669892E+04  0.00000000000E+00 0.  1.
         22    1    1    2    0    0 -0.15463417419E+04  0.20366160515E+03 -0.15230744718E+04  0.21800015319E+04  0.00000000000E+00 0.  1.
<mgrwt>
<rscale>  0 0.31220646E+04</rscale>
<asrwt>0</asrwt>
<pdfrwt beam="1">  1        2 0.56602292E+00 0.31220646E+04</pdfrwt>
<pdfrwt beam="2">  1       -2 0.10189739E+00 0.31220646E+04</pdfrwt>
<totfact> 0.40430186E-01</totfact>
</mgrwt>
</event>
<event>
 6    1  0.1028026E-006  0.2992322E+04  0.7818608E-02  0.8245927E-01
         -1   -1    0    0    0  501 -0.00000000000E+00  0.00000000000E+00  0.12375641573E+04  0.12375641573E+04  0.00000000000E+00 0.  1.
          1   -1    0    0  501    0  0.00000000000E+00 -0.00000000000E+00 -0.18087935330E+04  0.18087935330E+04  0.00000000000E+00 0. -1.
         23    2    1    2    0    0  0.75711111501E+03  0.85157310908E+03 -0.12707891131E+04  0.17092795973E+04  0.91311396530E+02 0.  0.
         13    1    3    3    0    0  0.45781612233E+03  0.53219153937E+03 -0.71770609418E+03  0.10039549163E+04  0.00000000000E+00 0.  1.
        -13    1    3    3    0    0  0.29929499268E+03  0.31938156971E+03 -0.55308301894E+03  0.70532468095E+03  0.00000000000E+00 0. -1.
         22    1    1    2    0    0 -0.75711111501E+03 -0.85157310908E+03  0.69955973739E+03  0.13370780930E+04  0.00000000000E+00 0.  1.
<mgrwt>
<rscale>  0 0.29923222E+04</rscale>
<asrwt>0</asrwt>
<pdfrwt beam="1">  1        1 0.27827593E+00 0.29923222E+04</pdfrwt>
<pdfrwt beam="2">  1       -1 0.19039448E+00 0.29923222E+04</pdfrwt>
<totfact> 0.60085850E-01</totfact>
</mgrwt>
</event>
<event>
 6    1  0.1028026E-006  0.2176053E+04  0.7818608E-02  0.8528462E-01
          2   -1    0    0  501    0  0.00000000000E+00  0.00000000000E+00  0.93532547329E+03  0.93532547329E+03  0.00000000000E+00 0. -1.
         -2   -1    0    0    0  501 -0.00000000000E+00 -0.00000000000E+00 -0.12656574983E+04  0.12656574983E+04  0.00000000000E+00 0.  1.
         23    2    1    2    0    0 -0.12244977497E+03  0.10567290152E+04 -0.38659753229E+03  0.11356961716E+04  0.93155693868E+02 0.  0.
         13    1    3    3    0    0 -0.51186445972E+02  0.64767095638E+03 -0.27685133006E+03  0.70621836492E+03  0.00000000000E+00 0. -1.
        -13    1    3    3    0    0 -0.71263329001E+02  0.40905805879E+03 -0.10974620223E+03  0.42947780668E+03  0.00000000000E+00 0.  1.
         22    1    1    2    0    0  0.12244977497E+03 -0.10567290152E+04  0.56265507284E+02  0.10652868000E+04  0.00000000000E+00 0. -1.
<mgrwt>
<rscale>  0 0.21760530E+04</rscale>
<asrwt>0</asrwt>
<pdfrwt beam="1">  1        2 0.14389623E+00 0.21760530E+04</pdfrwt>
<pdfrwt beam="2">  1       -2 0.19471654E+00 0.21760530E+04</pdfrwt>
<totfact> 0.36640330E+00</totfact>
</mgrwt>
</event>
<event>
 6    1  0.1028026E-006  0.7017146E+03  0.7818608E-02  0.9714305E-01
          2   -1    0    0  501    0  0.00000000000E+00  0.00000000000E+00  0.19965049266E+04  0.19965049266E+04  0.00000000000E+00 0. -1.
         -2   -1    0    0    0  501 -0.00000000000E+00 -0.00000000000E+00 -0.61658168383E+02  0.61658168383E+02  0.00000000000E+00 0.  1.
         23    2    1    2    0    0 -0.31877300325E+03  0.12956177266E+03  0.10579629161E+04  0.11161823345E+04  0.90415659524E+02 0.  0.
         13    1    3    3    0    0 -0.15961609911E+03  0.20890159427E+02  0.54210329356E+03  0.56549949491E+03  0.00000000000E+00 0. -1.
        -13    1    3    3    0    0 -0.15915690414E+03  0.10867161324E+03  0.51585962252E+03  0.55068283958E+03  0.00000000000E+00 0.  1.
         22    1    1    2    0    0  0.31877300325E+03 -0.12956177266E+03  0.87688384213E+03  0.94198076048E+03  0.00000000000E+00 0. -1.
<mgrwt>
<rscale>  0 0.70171458E+03</rscale>
<asrwt>0</asrwt>
<pdfrwt beam="1">  1        2 0.30715455E+00 0.70171458E+03</pdfrwt>
<pdfrwt beam="2">  1       -2 0.94858736E-02 0.70171458E+03</pdfrwt>
<totfact> 0.51543180E+02</totfact>
</mgrwt>
</event>
<event>
 6    1  0.1028026E-006  0.8382198E+03  0.7818608E-02  0.9506286E-01
         -1   -1    0    0    0  501 -0.00000000000E+00  0.00000000000E+00  0.29007231651E+03  0.29007231651E+03  0.00000000000E+00 0.  1.
          1   -1    0    0  501    0  0.00000000000E+00 -0.00000000000E+00 -0.60554937177E+03  0.60554937177E+03  0.00000000000E+00 0. -1.
         23    2    1    2    0    0 -0.16927109568E+03  0.97008539819E+02 -0.54991759142E+03  0.59062049874E+03  0.91432245676E+02 0.  0.
         13    1    3    3    0    0 -0.13123670885E+03  0.57710340120E+02 -0.27300510625E+03  0.30835911717E+03  0.00000000000E+00 0.  1.
        -13    1    3    3    0    0 -0.38034386837E+02  0.39298199698E+02 -0.27691248517E+03  0.28226138157E+03  0.00000000000E+00 0. -1.
         22    1    1    2    0    0  0.16927109568E+03 -0.97008539819E+02  0.23444053616E+03  0.30500118955E+03  0.00000000000E+00 0.  1.
<mgrwt>
<rscale>  0 0.83821980E+03</rscale>
<asrwt>0</asrwt>
<pdfrwt beam="1">  1        1 0.93161441E-01 0.83821980E+03</pdfrwt>
<pdfrwt beam="2">  1       -1 0.44626511E-01 0.83821980E+03</pdfrwt>
<totfact> 0.16974154E+02</totfact>
</mgrwt>
</event>
<event>
 6    1  0.1028026E-006  0.2308613E+04  0.7818608E-02  0.8474533E-01
          2   -1    0    0  501    0  0.00000000000E+00  0.00000000000E+00  0.11018865417E+04  0.11018865417E+04  0.00000000000E+00 0. -1.
         -2   -1    0    0    0  501 -0.00000000000E+00 -0.00000000000E+00 -0.12092202782E+04  0.12092202782E+04  0.00000000000E+00 0.  1.
         23    2    1    2    0    0  0.70285533138E+03  0.41960687255E+03  0.75855266631E+03  0.11195386066E+04  0.88820041461E+02 0.  0.
         13    1    3    3    0    0  0.66184161869E+03  0.38130340114E+03  0.73004401669E+03  0.10565939988E+04  0.00000000000E+00 0. -1.
        -13    1    3    3    0    0  0.41013712696E+02  0.38303471415E+02  0.28508649622E+02  0.62944607830E+02  0.00000000000E+00 0.  1.
         22    1    1    2    0    0 -0.70285533138E+03 -0.41960687255E+03 -0.86588640286E+03  0.11915682133E+04  0.00000000000E+00 0.  1.
<mgrwt>
<rscale>  0 0.23086130E+04</rscale>
<asrwt>0</asrwt>
<pdfrwt beam="1">  1        2 0.16952101E+00 0.23086130E+04</pdfrwt>
<pdfrwt beam="2">  1       -2 0.18603389E+00 0.23086130E+04</pdfrwt>
<totfact> 0.32449398E+00</totfact>
</mgrwt>
</event>
<event>
 6    1  0.1028026E-006  0.2001935E+04  0.7818608E-02  0.8605716E-01
         -2   -1    0    0    0  501 -0.00000000000E+00  0.00000000000E+00  0.81446261512E+03  0.81446261512E+03  0.00000000000E+00 0.  1.
          2   -1    0    0  501    0  0.00000000000E+00 -0.00000000000E+00 -0.12301805271E+04  0.12301805271E+04  0.00000000000E+00 0. -1.
         23    2    1    2    0    0  0.37341215337E+03  0.22529908449E+03 -0.11260224558E+04  0.12111391777E+04  0.93462415525E+02 0.  0.
         13    1    3    3    0    0  0.28198691810E+03  0.15449482484E+03 -0.92421520662E+03  0.97854944742E+03  0.00000000000E+00 0. -1.
        -13    1    3    3    0    0  0.91425235267E+02  0.70804259653E+02 -0.20180724917E+03  0.23258973031E+03  0.00000000000E+00 0.  1.
         22    1    1    2    0    0 -0.37341215337E+03 -0.22529908449E+03  0.71030454385E+03  0.83350396446E+03  0.00000000000E+00 0.  1.
<mgrwt>
<rscale>  0 0.20019351E+04</rscale>
<asrwt>0</asrwt>
<pdfrwt beam="1">  1        2 0.18925854E+00 0.20019351E+04</pdfrwt>
<pdfrwt beam="2">  1       -2 0.12530194E+00 0.20019351E+04</pdfrwt>
<totfact> 0.80462338E+00</totfact>
</mgrwt>
</event>
<event>
 6    1  0.1028026E-006  0.2338779E+04  0.7818608E-02  0.8462786E-01
         -1   -1    0    0    0  501 -0.00000000000E+00  0.00000000000E+00  0.19361526613E+04  0.19361526613E+04  0.00000000000E+00 0.  1.
          1   -1    0    0  501    0  0.00000000000E+00 -0.00000000000E+00 -0.70628293730E+03  0.70628293730E+03  0.00000000000E+00 0. -1.
         23    2    1    2    0    0 -0.86621865532E+03  0.93670652821E+02  0.14950069777E+04  0.17317179073E+04  0.68498884114E+02 0.  0.
         11    1    3    3    0    0 -0.52819187780E+03  0.55975098290E+02  0.97657389960E+03  0.11116728173E+04  0.00000000000E+00 0. -1.
        -11    1    3    3    0    0 -0.33802677751E+03  0.37695554531E+02  0.51843307806E+03  0.62004508995E+03  0.00000000000E+00 0.  1.
         22    1    1    2    0    0  0.86621865532E+03 -0.93670652821E+02 -0.26513725366E+03  0.91071769133E+03  0.00000000000E+00 0. -1.
<mgrwt>
<rscale>  0 0.23387788E+04</rscale>
<asrwt>0</asrwt>
<pdfrwt beam="1">  1        1 0.10865891E+00 0.23387788E+04</pdfrwt>
<pdfrwt beam="2">  1       -1 0.29786964E+00 0.23387788E+04</pdfrwt>
<totfact> 0.82557959E-01</totfact>
</mgrwt>
</event>
<event>
 6    1  0.1028026E-006  0.1168949E+04  0.7818608E-02  0.9140479E-01
          2   -1    0    0  501    0  0.00000000000E+00  0.00000000000E+00  0.31271318768E+04  0.31271318768E+04  0.00000000000E+00 0. -1.
         -2   -1    0    0    0  501 -0.00000000000E+00 -0.00000000000E+00 -0.10924072514E+03  0.10924072514E+03  0.00000000000E+00 0.  1.
         23    2    1    2    0    0  0.52703365986E+03  0.76650372007E+02  0.87557631994E+03  0.10288507795E+04  0.90886062559E+02 0.  0.
         11    1    3    3    0    0  0.28587496274E+03  0.36635770658E+02  0.55849389801E+03  0.62847602033E+03  0.00000000000E+00 0. -1.
        -11    1    3    3    0    0  0.24115869712E+03  0.40014601348E+02  0.31708242193E+03  0.40037475921E+03  0.00000000000E+00 0.  1.
         22    1    1    2    0    0 -0.52703365986E+03 -0.76650372007E+02  0.21423148317E+04  0.22075218224E+04  0.00000000000E+00 0. -1.
<mgrwt>
<rscale>  0 0.11689485E+04</rscale>
<asrwt>0</asrwt>
<pdfrwt beam="1">  1        2 0.48109714E+00 0.11689485E+04</pdfrwt>
<pdfrwt beam="2">  1       -2 0.16806268E-01 0.11689485E+04</pdfrwt>
<totfact> 0.42111471E+01</totfact>
</mgrwt>
</event>
<event>
 6    1  0.1028026E-006  0.2638768E+04  0.7818608E-02  0.8355151E-01
          1   -1    0    0  501    0  0.00000000000E+00  0.00000000000E+00  0.20293978445E+04  0.20293978445E+04  0.00000000000E+00 0. -1.
         -1   -1    0    0    0  501 -0.00000000000E+00 -0.00000000000E+00 -0.85777836120E+03  0.85777836120E+03  0.00000000000E+00 0.  1.
         23    2    1    2    0    0 -0.11182846473E+04  0.22222581631E+03  0.13095577472E+04  0.17387112169E+04  0.90721202821E+02 0.  0.
         13    1    3    3    0    0 -0.88339201271E+03  0.17951956004E+03  0.10888711882E+04  0.14135944203E+04  0.00000000000E+00 0. -1.
        -13    1    3    3    0    0 -0.23489263460E+03  0.42706256272E+02  0.22068655900E+03  0.32511679661E+03  0.00000000000E+00 0.  1.
         22    1    1    2    0    0  0.11182846473E+04 -0.22222581631E+03 -0.13793826391E+03  0.11484649888E+04  0.00000000000E+00 0.  1.
<mgrwt>
<rscale>  0 0.26387676E+04</rscale>
<asrwt>0</asrwt>
<pdfrwt beam="1">  1        1 0.31221505E+00 0.26387676E+04</pdfrwt>
<pdfrwt beam="2">  1       -1 0.13196590E+00 0.26387676E+04</pdfrwt>
<totfact> 0.12194533E+00</totfact>
</mgrwt>
</event>
<event>
 6    1  0.1028026E-006  0.2145075E+04  0.7818608E-02  0.8541643E-01
         -2   -1    0    0    0  501 -0.00000000000E+00  0.00000000000E+00  0.85294149832E+03  0.85294149832E+03  0.00000000000E+00 0.  1.
          2   -1    0    0  501    0  0.00000000000E+00 -0.00000000000E+00 -0.13486701775E+04  0.13486701775E+04  0.00000000000E+00 0. -1.
         23    2    1    2    0    0  0.44501268070E+03  0.20549598399E+03 -0.12253477179E+04  0.13226299769E+04  0.87224655748E+02 0.  0.
         11    1    3    3    0    0  0.25008053536E+03  0.11416472411E+03 -0.79991378589E+03  0.84583445381E+03  0.00000000000E+00 0.  1.
        -11    1    3    3    0    0  0.19493214533E+03  0.91331259879E+02 -0.42543393202E+03  0.47679552308E+03  0.00000000000E+00 0. -1.
         22    1    1    2    0    0 -0.44501268070E+03 -0.20549598399E+03  0.72961903872E+03  0.87898169894E+03  0.00000000000E+00 0.  1.
<mgrwt>
<rscale>  0 0.21450751E+04</rscale>
<asrwt>0</asrwt>
<pdfrwt beam="1">  1        2 0.20748772E+00 0.21450751E+04</pdfrwt>
<pdfrwt beam="2">  1       -2 0.13122177E+00 0.21450751E+04</pdfrwt>
<totfact> 0.60327088E+00</totfact>
</mgrwt>
</event>
<event>
 6    1  0.1028026E-006  0.3007402E+04  0.7818608E-02  0.8241620E-01
         -1   -1    0    0    0  501 -0.00000000000E+00  0.00000000000E+00  0.10162488781E+04  0.10162488781E+04  0.00000000000E+00 0.  1.
          1   -1    0    0  501    0  0.00000000000E+00 -0.00000000000E+00 -0.22249640189E+04  0.22249640189E+04  0.00000000000E+00 0. -1.
         23    2    1    2    0    0 -0.57198467997E+03 -0.92924780529E+03  0.50796895044E+03  0.12070860014E+04  0.91412266715E+02 0.  0.
         13    1    3    3    0    0 -0.23025193534E+03 -0.41910245748E+03  0.17986845409E+03  0.51089674531E+03  0.00000000000E+00 0.  1.
        -13    1    3    3    0    0 -0.34173274462E+03 -0.51014534782E+03  0.32810049635E+03  0.69618925613E+03  0.00000000000E+00 0. -1.
         22    1    1    2    0    0  0.57198467997E+03  0.92924780529E+03 -0.17166840913E+04  0.20341268955E+04  0.00000000000E+00 0.  1.
<mgrwt>
<rscale>  0 0.30074023E+04</rscale>
<asrwt>0</asrwt>
<pdfrwt beam="1">  1        1 0.34230215E+00 0.30074023E+04</pdfrwt>
<pdfrwt beam="2">  1       -1 0.15634598E+00 0.30074023E+04</pdfrwt>
<totfact> 0.55507431E-01</totfact>
</mgrwt>
</event>
<event>
 6    1  0.1028026E-006  0.4803887E+04  0.7818608E-02  0.7859493E-01
         -1   -1    0    0    0  501 -0.00000000000E+00  0.00000000000E+00  0.14152383046E+04  0.14152383046E+04  0.00000000000E+00 0.  1.
          1   -1    0    0  501    0  0.00000000000E+00 -0.00000000000E+00 -0.40765797557E+04  0.40765797557E+04  0.00000000000E+00 0. -1.
         23    2    1    2    0    0 -0.99253235524E+02  0.22121488344E+04 -0.26961629297E+03  0.22324004893E+04  0.86402136081E+02 0.  0.
         13    1    3    3    0    0 -0.10690212605E+03  0.15947931785E+04 -0.21050440958E+03  0.16121741386E+04  0.00000000000E+00 0. -1.
        -13    1    3    3    0    0  0.76488905216E+01  0.61735565590E+03 -0.59111883390E+02  0.62022635075E+03  0.00000000000E+00 0.  1.
         22    1    1    2    0    0  0.99253235524E+02 -0.22121488344E+04 -0.23917251580E+04  0.32594175710E+04  0.00000000000E+00 0. -1.
<mgrwt>
<rscale>  0 0.48038867E+04</rscale>
<asrwt>0</asrwt>
<pdfrwt beam="1">  1        1 0.62716611E+00 0.48038867E+04</pdfrwt>
<pdfrwt beam="2">  1       -1 0.21772897E+00 0.48038867E+04</pdfrwt>
<totfact> 0.68280368E-03</totfact>
</mgrwt>
</event>
<event>
 6    1  0.1028026E-006  0.3519219E+04  0.7818608E-02  0.8109250E-01
          1   -1    0    0  501    0  0.00000000000E+00  0.00000000000E+00  0.21270302394E+04  0.21270302394E+04  0.00000000000E+00 0. -1.
         -1   -1    0    0    0  501 -0.00000000000E+00 -0.00000000000E+00 -0.14556569156E+04  0.14556569156E+04  0.00000000000E+00 0.  1.
         23    2    1    2    0    0 -0.11447269702E+04 -0.35606112929E+03  0.16454754288E+04  0.20380013374E+04  0.93170274574E+02 0.  0.
         13    1    3    3    0    0 -0.29556559011E+03 -0.88281002522E+02  0.35692511728E+03  0.47175003212E+03  0.00000000000E+00 0.  1.
        -13    1    3    3    0    0 -0.84916138011E+03 -0.26778012677E+03  0.12885503116E+04  0.15662513053E+04  0.00000000000E+00 0. -1.
         22    1    1    2    0    0  0.11447269702E+04  0.35606112929E+03 -0.97410210503E+03  0.15446858176E+04  0.00000000000E+00 0.  1.
<mgrwt>
<rscale>  0 0.35192194E+04</rscale>
<asrwt>0</asrwt>
<pdfrwt beam="1">  1        1 0.32723542E+00 0.35192194E+04</pdfrwt>
<pdfrwt beam="2">  1       -1 0.22394722E+00 0.35192194E+04</pdfrwt>
<totfact> 0.20607102E-01</totfact>
</mgrwt>
</event>
<event>
 6    1  0.1028026E-006  0.2912498E+04  0.7818608E-02  0.8269169E-01
          1   -1    0    0  501    0  0.00000000000E+00  0.00000000000E+00  0.31313714911E+04  0.31313714911E+04  0.00000000000E+00 0. -1.
         -1   -1    0    0    0  501 -0.00000000000E+00 -0.00000000000E+00 -0.67723092920E+03  0.67723092920E+03  0.00000000000E+00 0.  1.
         23    2    1    2    0    0 -0.57942240495E+03 -0.95235240874E+03  0.57766336941E+01  0.11183995732E+04  0.89882155923E+02 0.  0.
         13    1    3    3    0    0 -0.86385369994E+02 -0.21103840923E+03  0.55044292293E+01  0.22810072569E+03  0.00000000000E+00 0. -1.
        -13    1    3    3    0    0 -0.49303703496E+03 -0.74131399951E+03  0.27220446476E+00  0.89029884747E+03  0.00000000000E+00 0.  1.
         22    1    1    2    0    0  0.57942240495E+03  0.95235240874E+03  0.24483639282E+04  0.26902028472E+04  0.00000000000E+00 0. -1.
<mgrwt>
<rscale>  0 0.29124983E+04</rscale>
<asrwt>0</asrwt>
<pdfrwt beam="1">  1        1 0.48174945E+00 0.29124983E+04</pdfrwt>
<pdfrwt beam="2">  1       -1 0.10418938E+00 0.29124983E+04</pdfrwt>
<totfact> 0.35528694E-01</totfact>
</mgrwt>
</event>
<event>
 6    1  0.1028026E-006  0.1527692E+04  0.7818608E-02  0.8866244E-01
          1   -1    0    0  501    0  0.00000000000E+00  0.00000000000E+00  0.10337078933E+04  0.10337078933E+04  0.00000000000E+00 0. -1.
         -1   -1    0    0    0  501 -0.00000000000E+00 -0.00000000000E+00 -0.56443482929E+03  0.56443482929E+03  0.00000000000E+00 0.  1.
         23    2    1    2    0    0  0.45529111090E+03 -0.17357135997E+03 -0.37618632730E+03  0.62232583659E+03  0.91412698119E+02 0.  0.
         11    1    3    3    0    0  0.97105416650E+02 -0.50298530172E+02 -0.13296215942E+03  0.17215789241E+03  0.00000000000E+00 0.  1.
        -11    1    3    3    0    0  0.35818569425E+03 -0.12327282980E+03 -0.24322416788E+03  0.45016794418E+03  0.00000000000E+00 0. -1.
         22    1    1    2    0    0 -0.45529111090E+03  0.17357135997E+03  0.84545939126E+03  0.97581688597E+03  0.00000000000E+00 0. -1.
<mgrwt>
<rscale>  0 0.15276920E+04</rscale>
<asrwt>0</asrwt>
<pdfrwt beam="1">  1        1 0.15903198E+00 0.15276920E+04</pdfrwt>
<pdfrwt beam="2">  1       -1 0.86836128E-01 0.15276920E+04</pdfrwt>
<totfact> 0.17970899E+01</totfact>
</mgrwt>
</event>
<event>
 6    1  0.1028026E-006  0.2724302E+03  0.7818608E-02  0.1099897E+00
          2   -1    0    0  501    0  0.00000000000E+00  0.00000000000E+00  0.10620901627E+03  0.10620901627E+03  0.00000000000E+00 0. -1.
         -2   -1    0    0    0  501 -0.00000000000E+00 -0.00000000000E+00 -0.17469848363E+03  0.17469848363E+03  0.00000000000E+00 0.  1.
         23    2    1    2    0    0 -0.89128436529E+02  0.45791040140E+02 -0.10943315704E+03  0.17266202295E+03  0.88294171683E+02 0.  0.
         11    1    3    3    0    0 -0.19896830235E+02 -0.26112732944E+02 -0.18761651256E+02  0.37812143989E+02  0.00000000000E+00 0. -1.
        -11    1    3    3    0    0 -0.69231606294E+02  0.71903773084E+02 -0.90671505782E+02  0.13484987896E+03  0.00000000000E+00 0.  1.
         22    1    1    2    0    0  0.89128436529E+02 -0.45791040140E+02  0.40943689679E+02  0.10824547695E+03  0.00000000000E+00 0. -1.
<mgrwt>
<rscale>  0 0.27243020E+03</rscale>
<asrwt>0</asrwt>
<pdfrwt beam="1">  1        2 0.16339849E-01 0.27243020E+03</pdfrwt>
<pdfrwt beam="2">  1       -2 0.26876689E-01 0.27243020E+03</pdfrwt>
<totfact> 0.43657915E+03</totfact>
</mgrwt>
</event>
<event>
 6    1  0.1028026E-006  0.2883190E+04  0.7818608E-02  0.8277896E-01
          2   -1    0    0  501    0  0.00000000000E+00  0.00000000000E+00  0.11746241951E+04  0.11746241951E+04  0.00000000000E+00 0. -1.
         -2   -1    0    0    0  501 -0.00000000000E+00 -0.00000000000E+00 -0.17692437803E+04  0.17692437803E+04  0.00000000000E+00 0.  1.
         23    2    1    2    0    0  0.14325840041E+04  0.76966689504E+02 -0.16967055763E+03  0.14476051388E+04  0.92475615356E+02 0.  0.
         13    1    3    3    0    0  0.43420292972E+03  0.65961492900E+02 -0.52651672920E+02  0.44232940370E+03  0.00000000000E+00 0. -1.
        -13    1    3    3    0    0  0.99838107442E+03  0.11005196604E+02 -0.11701888471E+03  0.10052757351E+04  0.00000000000E+00 0.  1.
         22    1    1    2    0    0 -0.14325840041E+04 -0.76966689504E+02 -0.42494902755E+03  0.14962628366E+04  0.00000000000E+00 0.  1.
<mgrwt>
<rscale>  0 0.28831903E+04</rscale>
<asrwt>0</asrwt>
<pdfrwt beam="1">  1        2 0.18071142E+00 0.28831903E+04</pdfrwt>
<pdfrwt beam="2">  1       -2 0.27219135E+00 0.28831903E+04</pdfrwt>
<totfact> 0.79677406E-01</totfact>
</mgrwt>
</event>
<event>
 6    1  0.1062923E-006  0.4671018E+04  0.7818608E-02  0.7881362E-01
         -2   -1    0    0    0  501 -0.00000000000E+00  0.00000000000E+00  0.17680188094E+04  0.17680188094E+04  0.00000000000E+00 0.  1.
          2   -1    0    0  501    0  0.00000000000E+00 -0.00000000000E+00 -0.30851490243E+04  0.30851490243E+04  0.00000000000E+00 0. -1.
         23    2    1    2    0    0  0.10980698955E+04 -0.16133198757E+03  0.14752674588E+04  0.18482934148E+04  0.89381018807E+02 0.  0.
         13    1    3    3    0    0  0.45258469852E+03 -0.56039442044E+02  0.53592569199E+03  0.70369714774E+03  0.00000000000E+00 0.  1.
        -13    1    3    3    0    0  0.64548519698E+03 -0.10529254553E+03  0.93934176678E+03  0.11445962670E+04  0.00000000000E+00 0. -1.
         22    1    1    2    0    0 -0.10980698955E+04  0.16133198757E+03 -0.27923976737E+04  0.30048744189E+04  0.00000000000E+00 0. -1.
<mgrwt>
<rscale>  0 0.46710177E+04</rscale>
<asrwt>0</asrwt>
<pdfrwt beam="1">  1        2 0.47463832E+00 0.46710177E+04</pdfrwt>
<pdfrwt beam="2">  1       -2 0.27200289E+00 0.46710177E+04</pdfrwt>
<totfact> 0.54125007E-02</totfact>
</mgrwt>
</event>
<event>
 6    1  0.1028026E-006  0.2999771E+04  0.7818608E-02  0.8243796E-01
          1   -1    0    0  501    0  0.00000000000E+00  0.00000000000E+00  0.26585542655E+04  0.26585542655E+04  0.00000000000E+00 0. -1.
         -1   -1    0    0    0  501 -0.00000000000E+00 -0.00000000000E+00 -0.84619563254E+03  0.84619563254E+03  0.00000000000E+00 0.  1.
         23    2    1    2    0    0  0.13664446787E+04 -0.34528342233E+03  0.31228789183E+03  0.14464486737E+04  0.91095205852E+02 0.  0.
         13    1    3    3    0    0  0.32915134874E+03 -0.82113923185E+02  0.35602657453E+02  0.34110241274E+03  0.00000000000E+00 0. -1.
        -13    1    3    3    0    0  0.10372933300E+04 -0.26316949915E+03  0.27668523438E+03  0.11053462610E+04  0.00000000000E+00 0.  1.
         22    1    1    2    0    0 -0.13664446787E+04  0.34528342233E+03  0.15000707412E+04  0.20583012244E+04  0.00000000000E+00 0. -1.
<mgrwt>
<rscale>  0 0.29997713E+04</rscale>
<asrwt>0</asrwt>
<pdfrwt beam="1">  1        1 0.40900835E+00 0.29997713E+04</pdfrwt>
<pdfrwt beam="2">  1       -1 0.13018394E+00 0.29997713E+04</pdfrwt>
<totfact> 0.45120428E-01</totfact>
</mgrwt>
</event>
<event>
 6    1  0.1028026E-006  0.1076452E+04  0.7818608E-02  0.9228452E-01
          1   -1    0    0  501    0  0.00000000000E+00  0.00000000000E+00  0.27489627492E+04  0.27489627492E+04  0.00000000000E+00 0. -1.
         -1   -1    0    0    0  501 -0.00000000000E+00 -0.00000000000E+00 -0.10538060277E+03  0.10538060277E+03  0.00000000000E+00 0.  1.
         23    2    1    2    0    0 -0.46161650574E+03 -0.26471783274E+03  0.12062276313E+04  0.13216485580E+04  0.92760352462E+02 0.  0.
         11    1    3    3    0    0 -0.31643798401E+02 -0.39300896851E+02  0.72304467238E+02  0.88169305618E+02  0.00000000000E+00 0.  1.
        -11    1    3    3    0    0 -0.42997270734E+03 -0.22541693589E+03  0.11339231640E+04  0.12334792524E+04  0.00000000000E+00 0. -1.
         22    1    1    2    0    0  0.46161650574E+03  0.26471783274E+03  0.14373545152E+04  0.15326947940E+04  0.00000000000E+00 0.  1.
<mgrwt>
<rscale>  0 0.10764522E+04</rscale>
<asrwt>0</asrwt>
<pdfrwt beam="1">  1        1 0.42291729E+00 0.10764522E+04</pdfrwt>
<pdfrwt beam="2">  1       -1 0.16212403E-01 0.10764522E+04</pdfrwt>
<totfact> 0.26563537E+01</totfact>
</mgrwt>
</event>
<event>
 6    1  0.1028026E-006  0.2739742E+04  0.7818608E-02  0.8322224E-01
          1   -1    0    0  501    0  0.00000000000E+00  0.00000000000E+00  0.96701587873E+03  0.96701587873E+03  0.00000000000E+00 0. -1.
         -1   -1    0    0    0  501 -0.00000000000E+00 -0.00000000000E+00 -0.19405533452E+04  0.19405533452E+04  0.00000000000E+00 0.  1.
         23    2    1    2    0    0  0.11633676099E+04 -0.51022491344E+03 -0.10271268759E+04  0.16361033443E+04  0.89949296144E+02 0.  0.
         13    1    3    3    0    0  0.89365057548E+03 -0.38106189990E+03 -0.83147715819E+03  0.12787391396E+04  0.00000000000E+00 0.  1.
        -13    1    3    3    0    0  0.26971703446E+03 -0.12916301354E+03 -0.19564971772E+03  0.35736420468E+03  0.00000000000E+00 0. -1.
         22    1    1    2    0    0 -0.11633676099E+04  0.51022491344E+03  0.53589409482E+02  0.12714658796E+04  0.00000000000E+00 0. -1.
<mgrwt>
<rscale>  0 0.27397415E+04</rscale>
<asrwt>0</asrwt>
<pdfrwt beam="1">  1        1 0.14877168E+00 0.27397415E+04</pdfrwt>
<pdfrwt beam="2">  1       -1 0.29854666E+00 0.27397415E+04</pdfrwt>
<totfact> 0.47177873E-01</totfact>
</mgrwt>
</event>
<event>
 6    1  0.1028026E-006  0.1575815E+04  0.7818608E-02  0.8835545E-01
         -3   -1    0    0    0  501 -0.00000000000E+00  0.00000000000E+00  0.59754327406E+03  0.59754327406E+03  0.00000000000E+00 0.  1.
          3   -1    0    0  501    0  0.00000000000E+00 -0.00000000000E+00 -0.10389181443E+04  0.10389181443E+04  0.00000000000E+00 0. -1.
         23    2    1    2    0    0 -0.47583287451E+03 -0.15273124438E+02  0.42683670284E+03  0.64628894428E+03  0.94072502950E+02 0.  0.
         11    1    3    3    0    0 -0.17381798104E+03  0.88119368945E+01  0.10042011012E+03  0.20093416654E+03  0.00000000000E+00 0. -1.
        -11    1    3    3    0    0 -0.30201489347E+03 -0.24085061332E+02  0.32641659272E+03  0.44535477774E+03  0.00000000000E+00 0.  1.
         22    1    1    2    0    0  0.47583287451E+03  0.15273124438E+02 -0.86821157306E+03  0.99017247406E+03  0.00000000000E+00 0. -1.
<mgrwt>
<rscale>  0 0.15758154E+04</rscale>
<asrwt>0</asrwt>
<pdfrwt beam="1">  1        3 0.15983356E+00 0.15758154E+04</pdfrwt>
<pdfrwt beam="2">  1       -3 0.91929736E-01 0.15758154E+04</pdfrwt>
<totfact> 0.73184439E-01</totfact>
</mgrwt>
</event>
<event>
 6    1  0.1028026E-006  0.3088750E+03  0.7818608E-02  0.1080886E+00
          2   -1    0    0  501    0  0.00000000000E+00  0.00000000000E+00  0.29129049996E+04  0.29129049996E+04  0.00000000000E+00 0. -1.
         -2   -1    0    0    0  501 -0.00000000000E+00 -0.00000000000E+00 -0.81880264528E+01  0.81880264528E+01  0.00000000000E+00 0.  1.
         23    2    1    2    0    0 -0.10585561791E+02  0.10109455741E+03  0.25119801733E+04  0.25154153737E+04  0.83294343052E+02 0.  0.
         11    1    3    3    0    0 -0.37350892908E+02  0.13352989572E+02  0.74003356063E+03  0.74109585236E+03  0.00000000000E+00 0. -1.
        -11    1    3    3    0    0  0.26765331116E+02  0.87741567837E+02  0.17719466127E+04  0.17743195214E+04  0.00000000000E+00 0.  1.
         22    1    1    2    0    0  0.10585561791E+02 -0.10109455741E+03  0.39273679982E+03  0.40567765232E+03  0.00000000000E+00 0.  1.
<mgrwt>
<rscale>  0 0.30887501E+03</rscale>
<asrwt>0</asrwt>
<pdfrwt beam="1">  1        2 0.44813840E+00 0.30887501E+03</pdfrwt>
<pdfrwt beam="2">  1       -2 0.12596987E-02 0.30887501E+03</pdfrwt>
<totfact> 0.35616348E+03</totfact>
</mgrwt>
</event>
<event>
 6    1  0.1028026E-006  0.4547840E+04  0.7818608E-02  0.7902315E-01
         -2   -1    0    0    0  501 -0.00000000000E+00  0.00000000000E+00  0.17576565945E+04  0.17576565945E+04  0.00000000000E+00 0.  1.
          2   -1    0    0  501    0  0.00000000000E+00 -0.00000000000E+00 -0.29418218935E+04  0.29418218935E+04  0.00000000000E+00 0. -1.
         23    2    1    2    0    0  0.22728764888E+03  0.16617945313E+04 -0.21775789979E+04  0.27500961456E+04  0.89206379303E+02 0.  0.
         11    1    3    3    0    0  0.12545365178E+03  0.61683417230E+03 -0.79271327010E+03  0.10122338383E+04  0.00000000000E+00 0. -1.
        -11    1    3    3    0    0  0.10183399710E+03  0.10449603590E+04 -0.13848657278E+04  0.17378623072E+04  0.00000000000E+00 0.  1.
         22    1    1    2    0    0 -0.22728764888E+03 -0.16617945313E+04  0.99341369889E+03  0.19493823424E+04  0.00000000000E+00 0.  1.
<mgrwt>
<rscale>  0 0.45478402E+04</rscale>
<asrwt>0</asrwt>
<pdfrwt beam="1">  1        2 0.45258798E+00 0.45478402E+04</pdfrwt>
<pdfrwt beam="2">  1       -2 0.27040871E+00 0.45478402E+04</pdfrwt>
<totfact> 0.68821781E-02</totfact>
</mgrwt>
</event>
<event>
 6    1  0.1028026E-006  0.2527906E+04  0.7818608E-02  0.8393111E-01
         -1   -1    0    0    0  501 -0.00000000000E+00  0.00000000000E+00  0.92113988511E+03  0.92113988511E+03  0.00000000000E+00 0.  1.
          1   -1    0    0  501    0  0.00000000000E+00 -0.00000000000E+00 -0.17343484129E+04  0.17343484129E+04  0.00000000000E+00 0. -1.
         23    2    1    2    0    0 -0.26578778301E+03 -0.86640021159E+03  0.51596621851E+03  0.10467627221E+04  0.90546041111E+02 0.  0.
         11    1    3    3    0    0 -0.70970233845E+02 -0.37586509294E+03  0.23312041884E+03  0.44794695206E+03  0.00000000000E+00 0. -1.
        -11    1    3    3    0    0 -0.19481754917E+03 -0.49053511865E+03  0.28284579967E+03  0.59881577007E+03  0.00000000000E+00 0.  1.
         22    1    1    2    0    0  0.26578778301E+03  0.86640021159E+03 -0.13291747463E+04  0.16087255759E+04  0.00000000000E+00 0. -1.
<mgrwt>
<rscale>  0 0.25279062E+04</rscale>
<asrwt>0</asrwt>
<pdfrwt beam="1">  1        1 0.26682283E+00 0.25279062E+04</pdfrwt>
<pdfrwt beam="2">  1       -1 0.14171383E+00 0.25279062E+04</pdfrwt>
<totfact> 0.16246844E+00</totfact>
</mgrwt>
</event>
<event>
 6    1  0.1028026E-006  0.1442767E+04  0.7818608E-02  0.8923431E-01
          1   -1    0    0  501    0  0.00000000000E+00  0.00000000000E+00  0.77660973069E+03  0.77660973069E+03  0.00000000000E+00 0. -1.
         -1   -1    0    0    0  501 -0.00000000000E+00 -0.00000000000E+00 -0.67008420403E+03  0.67008420403E+03  0.00000000000E+00 0.  1.
         23    2    1    2    0    0 -0.46103668355E+03 -0.19660550122E+03 -0.46303120200E+03  0.68800861534E+03  0.88030756388E+02 0.  0.
         13    1    3    3    0    0 -0.13633985125E+03 -0.20947087653E+02 -0.15224320320E+03  0.20543935466E+03  0.00000000000E+00 0. -1.
        -13    1    3    3    0    0 -0.32469683230E+03 -0.17565841356E+03 -0.31078799879E+03  0.48256926068E+03  0.00000000000E+00 0.  1.
         22    1    1    2    0    0  0.46103668355E+03  0.19660550122E+03  0.56955672865E+03  0.75868531938E+03  0.00000000000E+00 0. -1.
<mgrwt>
<rscale>  0 0.14427667E+04</rscale>
<asrwt>0</asrwt>
<pdfrwt beam="1">  1        1 0.11947842E+00 0.14427667E+04</pdfrwt>
<pdfrwt beam="2">  1       -1 0.10308988E+00 0.14427667E+04</pdfrwt>
<totfact> 0.20025452E+01</totfact>
</mgrwt>
</event>
<event>
 6    1  0.1028026E-006  0.6642490E+03  0.7818608E-02  0.9780403E-01
          2   -1    0    0  501    0  0.00000000000E+00  0.00000000000E+00  0.13778327488E+03  0.13778327488E+03  0.00000000000E+00 0. -1.
         -2   -1    0    0    0  501 -0.00000000000E+00 -0.00000000000E+00 -0.80058114130E+03  0.80058114130E+03  0.00000000000E+00 0.  1.
         23    2    1    2    0    0 -0.22306114277E+03 -0.18788674546E+03 -0.54305746247E+03  0.62309394996E+03  0.90977801690E+02 0.  0.
         11    1    3    3    0    0 -0.33145811492E+02 -0.48760268313E+02 -0.18840745608E+03  0.19741726898E+03  0.00000000000E+00 0.  1.
        -11    1    3    3    0    0 -0.18991533128E+03 -0.13912647715E+03 -0.35465000639E+03  0.42567668098E+03  0.00000000000E+00 0. -1.
         22    1    1    2    0    0  0.22306114277E+03  0.18788674546E+03 -0.11974040395E+03  0.31527046622E+03  0.00000000000E+00 0.  1.
<mgrwt>
<rscale>  0 0.66424902E+03</rscale>
<asrwt>0</asrwt>
<pdfrwt beam="1">  1        2 0.21197427E-01 0.66424902E+03</pdfrwt>
<pdfrwt beam="2">  1       -2 0.12316633E+00 0.66424902E+03</pdfrwt>
<totfact> 0.13368142E+02</totfact>
</mgrwt>
</event>
<event>
 6    1  0.1028026E-006  0.1388500E+04  0.7818608E-02  0.8962185E-01
         -2   -1    0    0    0  501 -0.00000000000E+00  0.00000000000E+00  0.41629179768E+03  0.41629179768E+03  0.00000000000E+00 0.  1.
          2   -1    0    0  501    0  0.00000000000E+00 -0.00000000000E+00 -0.11578008446E+04  0.11578008446E+04  0.00000000000E+00 0. -1.
         23    2    1    2    0    0  0.53059225189E+03 -0.43748747554E+03 -0.29301586884E+03  0.75307524917E+03  0.91326899065E+02 0.  0.
         13    1    3    3    0    0  0.72870858816E+02 -0.10568924468E+03 -0.56724858318E+02  0.14034987730E+03  0.00000000000E+00 0.  1.
        -13    1    3    3    0    0  0.45772139308E+03 -0.33179823086E+03 -0.23629101052E+03  0.61272537187E+03  0.00000000000E+00 0. -1.
         22    1    1    2    0    0 -0.53059225189E+03  0.43748747554E+03 -0.44849317808E+03  0.82101739312E+03  0.00000000000E+00 0. -1.
<mgrwt>
<rscale>  0 0.13884999E+04</rscale>
<asrwt>0</asrwt>
<pdfrwt beam="1">  1        2 0.17812321E+00 0.13884999E+04</pdfrwt>
<pdfrwt beam="2">  1       -2 0.64044893E-01 0.13884999E+04</pdfrwt>
<totfact> 0.44091079E+01</totfact>
</mgrwt>
</event>
<event>
 6    1  0.1028026E-006  0.9570784E+03  0.7818608E-02  0.9356915E-01
          1   -1    0    0  501    0  0.00000000000E+00  0.00000000000E+00  0.27798292663E+03  0.27798292663E+03  0.00000000000E+00 0. -1.
         -1   -1    0    0    0  501 -0.00000000000E+00 -0.00000000000E+00 -0.82379077360E+03  0.82379077360E+03  0.00000000000E+00 0.  1.
         23    2    1    2    0    0 -0.39806315601E+03  0.13524195789E+03 -0.22398240501E+02  0.43043006283E+03  0.89575077241E+02 0.  0.
         11    1    3    3    0    0 -0.31160322706E+03  0.64690531580E+02 -0.15488043140E+02  0.31862409744E+03  0.00000000000E+00 0.  1.
        -11    1    3    3    0    0 -0.86459928949E+02  0.70551426311E+02 -0.69101973609E+01  0.11180596539E+03  0.00000000000E+00 0. -1.
         22    1    1    2    0    0  0.39806315601E+03 -0.13524195789E+03 -0.52340960647E+03  0.67134363741E+03  0.00000000000E+00 0.  1.
<mgrwt>
<rscale>  0 0.95707841E+03</rscale>
<asrwt>0</asrwt>
<pdfrwt beam="1">  1        1 0.42766604E-01 0.95707841E+03</pdfrwt>
<pdfrwt beam="2">  1       -1 0.12673704E+00 0.95707841E+03</pdfrwt>
<totfact> 0.52645269E+01</totfact>
</mgrwt>
</event>
<event>
 6    1  0.1279698E-006  0.3321279E+04  0.7818608E-02  0.8157502E-01
          2   -1    0    0  501    0  0.00000000000E+00  0.00000000000E+00  0.15078396536E+04  0.15078396536E+04  0.00000000000E+00 0. -1.
         -2   -1    0    0    0  501 -0.00000000000E+00 -0.00000000000E+00 -0.18289232622E+04  0.18289232622E+04  0.00000000000E+00 0.  1.
         23    2    1    2    0    0  0.12308102384E+04  0.11056088489E+04 -0.28904674626E+03  0.16819846436E+04  0.90882065513E+02 0.  0.
         13    1    3    3    0    0  0.41273929020E+03  0.36537797433E+03 -0.13974824556E+03  0.56866893526E+03  0.00000000000E+00 0. -1.
        -13    1    3    3    0    0  0.81807094825E+03  0.74023087457E+03 -0.14929850071E+03  0.11133157083E+04  0.00000000000E+00 0.  1.
         22    1    1    2    0    0 -0.12308102384E+04 -0.11056088489E+04 -0.32036862313E+02  0.16547782723E+04  0.00000000000E+00 0. -1.
<mgrwt>
<rscale>  0 0.33212787E+04</rscale>
<asrwt>0</asrwt>
<pdfrwt beam="1">  1        2 0.23197533E+00 0.33212787E+04</pdfrwt>
<pdfrwt beam="2">  1       -2 0.28137281E+00 0.33212787E+04</pdfrwt>
<totfact> 0.43273665E-01</totfact>
</mgrwt>
</event>
<event>
 6    1  0.1028026E-006  0.2128041E+04  0.7818608E-02  0.8548991E-01
         -3   -1    0    0    0  501 -0.00000000000E+00  0.00000000000E+00  0.12234179872E+04  0.12234179872E+04  0.00000000000E+00 0.  1.
          3   -1    0    0  501    0  0.00000000000E+00 -0.00000000000E+00 -0.92539083658E+03  0.92539083658E+03  0.00000000000E+00 0. -1.
         23    2    1    2    0    0 -0.32459963534E+03 -0.25371612257E+03 -0.83917963759E+03  0.93927334549E+03  0.90967902504E+02 0.  0.
         11    1    3    3    0    0 -0.56695338709E+02 -0.92845281501E+02 -0.23985215027E+03  0.26336981930E+03  0.00000000000E+00 0. -1.
        -11    1    3    3    0    0 -0.26790429663E+03 -0.16087084107E+03 -0.59932748733E+03  0.67590352620E+03  0.00000000000E+00 0.  1.
         22    1    1    2    0    0  0.32459963534E+03  0.25371612257E+03  0.11372067882E+04  0.12095354783E+04  0.00000000000E+00 0.  1.
<mgrwt>
<rscale>  0 0.21280412E+04</rscale>
<asrwt>0</asrwt>
<pdfrwt beam="1">  1        3 0.14236782E+00 0.21280412E+04</pdfrwt>
<pdfrwt beam="2">  1       -3 0.18821815E+00 0.21280412E+04</pdfrwt>
<totfact> 0.15489117E-01</totfact>
</mgrwt>
</event>
<event>
 6    1  0.1028026E-006  0.1102331E+04  0.7818608E-02  0.9202923E-01
          2   -1    0    0  501    0  0.00000000000E+00  0.00000000000E+00  0.19763000863E+04  0.19763000863E+04  0.00000000000E+00 0. -1.
         -2   -1    0    0    0  501 -0.00000000000E+00 -0.00000000000E+00 -0.15371327725E+03  0.15371327725E+03  0.00000000000E+00 0.  1.
         23    2    1    2    0    0 -0.13757742219E+03  0.52619690098E+03  0.79546952330E+03  0.96778247238E+03  0.89556829171E+02 0.  0.
         13    1    3    3    0    0 -0.87476753676E+02  0.30257472847E+03  0.53519951207E+03  0.62100093918E+03  0.00000000000E+00 0. -1.
        -13    1    3    3    0    0 -0.50100668513E+02  0.22362217251E+03  0.26027001123E+03  0.34678153320E+03  0.00000000000E+00 0.  1.
         22    1    1    2    0    0  0.13757742219E+03 -0.52619690098E+03  0.10271172857E+04  0.11622308912E+04  0.00000000000E+00 0.  1.
<mgrwt>
<rscale>  0 0.11023313E+04</rscale>
<asrwt>0</asrwt>
<pdfrwt beam="1">  1        2 0.30404615E+00 0.11023313E+04</pdfrwt>
<pdfrwt beam="2">  1       -2 0.23648198E-01 0.11023313E+04</pdfrwt>
<totfact> 0.10866905E+02</totfact>
</mgrwt>
</event>
<event>
 6    1  0.1028026E-006  0.2543996E+04  0.7818608E-02  0.8387477E-01
         -2   -1    0    0    0  501 -0.00000000000E+00  0.00000000000E+00  0.98796298919E+03  0.98796298919E+03  0.00000000000E+00 0.  1.
          2   -1    0    0  501    0  0.00000000000E+00 -0.00000000000E+00 -0.16376915893E+04  0.16376915893E+04  0.00000000000E+00 0. -1.
         23    2    1    2    0    0  0.59202483872E+03  0.10733790848E+04  0.18618249041E+02  0.12294727923E+04  0.92847393085E+02 0.  0.
         13    1    3    3    0    0  0.40579811243E+03  0.76889387362E+03 -0.25860979015E+02  0.86979232417E+03  0.00000000000E+00 0. -1.
        -13    1    3    3    0    0  0.18622672629E+03  0.30448521119E+03  0.44479228056E+02  0.35968046812E+03  0.00000000000E+00 0.  1.
         22    1    1    2    0    0 -0.59202483872E+03 -0.10733790848E+04 -0.66834684916E+03  0.13961817862E+04  0.00000000000E+00 0.  1.
<mgrwt>
<rscale>  0 0.25439958E+04</rscale>
<asrwt>0</asrwt>
<pdfrwt beam="1">  1        2 0.25195255E+00 0.25439958E+04</pdfrwt>
<pdfrwt beam="2">  1       -2 0.15199431E+00 0.25439958E+04</pdfrwt>
<totfact> 0.27314423E+00</totfact>
</mgrwt>
</event>
<event>
 6    1  0.1028026E-006  0.2148666E+04  0.7818608E-02  0.8540103E-01
         -2   -1    0    0    0  501 -0.00000000000E+00  0.00000000000E+00  0.10730452455E+04  0.10730452455E+04  0.00000000000E+00 0.  1.
          2   -1    0    0  501    0  0.00000000000E+00 -0.00000000000E+00 -0.10756226481E+04  0.10756226481E+04  0.00000000000E+00 0. -1.
         23    2    1    2    0    0  0.94031984716E+03 -0.36965376561E+03  0.35809594478E+03  0.10758535644E+04  0.91557987163E+02 0.  0.
         13    1    3    3    0    0  0.78978948457E+03 -0.27609003384E+03  0.30957900881E+03  0.89209433325E+03  0.00000000000E+00 0. -1.
        -13    1    3    3    0    0  0.15053036259E+03 -0.93563731764E+02  0.48516935974E+02  0.18375923117E+03  0.00000000000E+00 0.  1.
         22    1    1    2    0    0 -0.94031984716E+03  0.36965376561E+03 -0.36067334739E+03  0.10728143292E+04  0.00000000000E+00 0. -1.
<mgrwt>
<rscale>  0 0.21486663E+04</rscale>
<asrwt>0</asrwt>
<pdfrwt beam="1">  1        2 0.16548041E+00 0.21486663E+04</pdfrwt>
<pdfrwt beam="2">  1       -2 0.16508388E+00 0.21486663E+04</pdfrwt>
<totfact> 0.47868414E+00</totfact>
</mgrwt>
</event>
<event>
 6    1  0.1028026E-006  0.1145053E+04  0.7818608E-02  0.9162360E-01
          1   -1    0    0  501    0  0.00000000000E+00  0.00000000000E+00  0.35049542576E+03  0.35049542576E+03  0.00000000000E+00 0. -1.
         -1   -1    0    0    0  501 -0.00000000000E+00 -0.00000000000E+00 -0.93520931544E+03  0.93520931544E+03  0.00000000000E+00 0.  1.
         23    2    1    2    0    0  0.54324025008E+03 -0.16660907439E+03 -0.26270990420E+03  0.63259286744E+03  0.91042238493E+02 0.  0.
         13    1    3    3    0    0  0.12686257311E+03 -0.67591817540E+02 -0.35640521722E+02  0.14809798460E+03  0.00000000000E+00 0. -1.
        -13    1    3    3    0    0  0.41637767697E+03 -0.99017256848E+02 -0.22706938248E+03  0.48449488284E+03  0.00000000000E+00 0.  1.
         22    1    1    2    0    0 -0.54324025008E+03  0.16660907439E+03 -0.32200398548E+03  0.65311187376E+03  0.00000000000E+00 0. -1.
<mgrwt>
<rscale>  0 0.11450530E+04</rscale>
<asrwt>0</asrwt>
<pdfrwt beam="1">  1        1 0.53922374E-01 0.11450530E+04</pdfrwt>
<pdfrwt beam="2">  1       -1 0.14387835E+00 0.11450530E+04</pdfrwt>
<totfact> 0.27704819E+01</totfact>
</mgrwt>
</event>
<event>
 6    1  0.1028026E-006  0.3859465E+04  0.7818608E-02  0.8033513E-01
          2   -1    0    0  501    0  0.00000000000E+00  0.00000000000E+00  0.20005165355E+04  0.20005165355E+04  0.00000000000E+00 0. -1.
         -2   -1    0    0    0  501 -0.00000000000E+00 -0.00000000000E+00 -0.18614530355E+04  0.18614530355E+04  0.00000000000E+00 0.  1.
         23    2    1    2    0    0 -0.16686428557E+04  0.30776439348E+03 -0.84797534861E+03  0.18989785902E+04  0.89272574620E+02 0.  0.
         11    1    3    3    0    0 -0.81078780366E+03  0.17271080002E+03 -0.45703739916E+03  0.94661981135E+03  0.00000000000E+00 0.  1.
        -11    1    3    3    0    0 -0.85785505204E+03  0.13505359346E+03 -0.39093794945E+03  0.95235877889E+03  0.00000000000E+00 0. -1.
         22    1    1    2    0    0  0.16686428557E+04 -0.30776439348E+03  0.98703884858E+03  0.19629909807E+04  0.00000000000E+00 0. -1.
<mgrwt>
<rscale>  0 0.38594650E+04</rscale>
<asrwt>0</asrwt>
<pdfrwt beam="1">  1        2 0.30777178E+00 0.38594650E+04</pdfrwt>
<pdfrwt beam="2">  1       -2 0.28637739E+00 0.38594650E+04</pdfrwt>
<totfact> 0.20513366E-01</totfact>
</mgrwt>
</event>
<event>
 6    1  0.1028026E-006  0.1532417E+04  0.7818608E-02  0.8863178E-01
         -2   -1    0    0    0  501 -0.00000000000E+00  0.00000000000E+00  0.56603301267E+03  0.56603301267E+03  0.00000000000E+00 0.  1.
          2   -1    0    0  501    0  0.00000000000E+00 -0.00000000000E+00 -0.10371748145E+04  0.10371748145E+04  0.00000000000E+00 0. -1.
         23    2    1    2    0    0  0.27029188104E+02 -0.37467390153E+03 -0.93177835963E+03  0.10088197823E+04  0.91626045034E+02 0.  0.
         11    1    3    3    0    0  0.69134061337E+01 -0.22393412513E+03 -0.66518166449E+03  0.70189809399E+03  0.00000000000E+00 0. -1.
        -11    1    3    3    0    0  0.20115781970E+02 -0.15073977640E+03 -0.26659669515E+03  0.30692168828E+03  0.00000000000E+00 0.  1.
         22    1    1    2    0    0 -0.27029188104E+02  0.37467390153E+03  0.46063655782E+03  0.59438804488E+03  0.00000000000E+00 0.  1.
<mgrwt>
<rscale>  0 0.15324166E+04</rscale>
<asrwt>0</asrwt>
<pdfrwt beam="1">  1        2 0.15956536E+00 0.15324166E+04</pdfrwt>
<pdfrwt beam="2">  1       -2 0.87082002E-01 0.15324166E+04</pdfrwt>
<totfact> 0.26212524E+01</totfact>
</mgrwt>
</event>
<event>
 6    1  0.1028026E-006  0.5357200E+04  0.7818608E-02  0.7775650E-01
          2   -1    0    0  501    0  0.00000000000E+00  0.00000000000E+00  0.25298965976E+04  0.25298965976E+04  0.00000000000E+00 0. -1.
         -2   -1    0    0    0  501 -0.00000000000E+00 -0.00000000000E+00 -0.28360435745E+04  0.28360435745E+04  0.00000000000E+00 0.  1.
         23    2    1    2    0    0  0.52253244474E+03 -0.38574492132E+03  0.24485690835E+04  0.25356928555E+04  0.11139300061E+03 0.  0.
         11    1    3    3    0    0  0.45383661864E+03 -0.28150665116E+03  0.19687876124E+04  0.20399358651E+04  0.00000000000E+00 0.  1.
        -11    1    3    3    0    0  0.68695826097E+02 -0.10423827016E+03  0.47978147113E+03  0.49575699040E+03  0.00000000000E+00 0. -1.
         22    1    1    2    0    0 -0.52253244474E+03  0.38574492132E+03 -0.27547160604E+04  0.28302473167E+04  0.00000000000E+00 0.  1.
<mgrwt>
<rscale>  0 0.53571996E+04</rscale>
<asrwt>0</asrwt>
<pdfrwt beam="1">  1        2 0.38921486E+00 0.53571996E+04</pdfrwt>
<pdfrwt beam="2">  1       -2 0.43631440E+00 0.53571996E+04</pdfrwt>
<totfact> 0.10148818E-02</totfact>
</mgrwt>
</event>
<event>
 6    1  0.1028026E-006  0.1161623E+04  0.7818608E-02  0.9147127E-01
         -2   -1    0    0    0  501 -0.00000000000E+00  0.00000000000E+00  0.22689279950E+03  0.22689279950E+03  0.00000000000E+00 0.  1.
          2   -1    0    0  501    0  0.00000000000E+00 -0.00000000000E+00 -0.14867914988E+04  0.14867914988E+04  0.00000000000E+00 0. -1.
         23    2    1    2    0    0 -0.19387306296E+01  0.47351840134E+03 -0.11207769255E+04  0.12201477717E+04  0.91630961780E+02 0.  0.
         13    1    3    3    0    0 -0.41036264372E+02  0.23677350586E+03 -0.61700813374E+03  0.66215157266E+03  0.00000000000E+00 0. -1.
        -13    1    3    3    0    0  0.39097533743E+02  0.23674489549E+03 -0.50376879172E+03  0.55799619909E+03  0.00000000000E+00 0.  1.
         22    1    1    2    0    0  0.19387306296E+01 -0.47351840134E+03 -0.13912177384E+03  0.49353652656E+03  0.00000000000E+00 0.  1.
<mgrwt>
<rscale>  0 0.11616235E+04</rscale>
<asrwt>0</asrwt>
<pdfrwt beam="1">  1        2 0.22873716E+00 0.11616235E+04</pdfrwt>
<pdfrwt beam="2">  1       -2 0.34906584E-01 0.11616235E+04</pdfrwt>
<totfact> 0.98296499E+01</totfact>
</mgrwt>
</event>
<event>
 6    1  0.1028026E-006  0.1641948E+04  0.7818608E-02  0.8795184E-01
          1   -1    0    0  501    0  0.00000000000E+00  0.00000000000E+00  0.80102377499E+03  0.80102377499E+03  0.00000000000E+00 0. -1.
         -1   -1    0    0    0  501 -0.00000000000E+00 -0.00000000000E+00 -0.84142127118E+03  0.84142127118E+03  0.00000000000E+00 0.  1.
         23    2    1    2    0    0 -0.61236392336E+03 -0.24650674576E+03  0.46362430004E+03  0.81190719549E+03  0.92144734873E+02 0.  0.
         13    1    3    3    0    0 -0.33532410524E+03 -0.17395052196E+03  0.22955260050E+03  0.44203555970E+03  0.00000000000E+00 0.  1.
        -13    1    3    3    0    0 -0.27703981812E+03 -0.72556223804E+02  0.23407169954E+03  0.36987163579E+03  0.00000000000E+00 0. -1.
         22    1    1    2    0    0  0.61236392336E+03  0.24650674576E+03 -0.50402179622E+03  0.83053785068E+03  0.00000000000E+00 0.  1.
<mgrwt>
<rscale>  0 0.16419482E+04</rscale>
<asrwt>0</asrwt>
<pdfrwt beam="1">  1        1 0.12323443E+00 0.16419482E+04</pdfrwt>
<pdfrwt beam="2">  1       -1 0.12944943E+00 0.16419482E+04</pdfrwt>
<totfact> 0.10817438E+01</totfact>
</mgrwt>
</event>
<event>
 6    1  0.1028026E-006  0.1705711E+04  0.7818608E-02  0.8758114E-01
          1   -1    0    0  501    0  0.00000000000E+00  0.00000000000E+00  0.10189796885E+04  0.10189796885E+04  0.00000000000E+00 0. -1.
         -1   -1    0    0    0  501 -0.00000000000E+00 -0.00000000000E+00 -0.71381464402E+03  0.71381464402E+03  0.00000000000E+00 0.  1.
         23    2    1    2    0    0  0.71454834139E+03  0.33749696867E+03  0.47228036741E+03  0.92507466131E+03  0.90724018371E+02 0.  0.
         13    1    3    3    0    0  0.38127798317E+03  0.22115312063E+03  0.23241383293E+03  0.49829488553E+03  0.00000000000E+00 0.  1.
        -13    1    3    3    0    0  0.33327035822E+03  0.11634384804E+03  0.23986653448E+03  0.42677977577E+03  0.00000000000E+00 0. -1.
         22    1    1    2    0    0 -0.71454834139E+03 -0.33749696867E+03 -0.16711532296E+03  0.80771967118E+03  0.00000000000E+00 0.  1.
<mgrwt>
<rscale>  0 0.17057111E+04</rscale>
<asrwt>0</asrwt>
<pdfrwt beam="1">  1        1 0.15676611E+00 0.17057111E+04</pdfrwt>
<pdfrwt beam="2">  1       -1 0.10981764E+00 0.17057111E+04</pdfrwt>
<totfact> 0.10659530E+01</totfact>
</mgrwt>
</event>
<event>
 6    1  0.1028026E-006  0.2397648E+04  0.7818608E-02  0.8440385E-01
         -2   -1    0    0    0  501 -0.00000000000E+00  0.00000000000E+00  0.17423973490E+04  0.17423973490E+04  0.00000000000E+00 0.  1.
          2   -1    0    0  501    0  0.00000000000E+00 -0.00000000000E+00 -0.82482829088E+03  0.82482829088E+03  0.00000000000E+00 0. -1.
         23    2    1    2    0    0 -0.39555337227E+03  0.81220779202E+03 -0.38176047652E+03  0.98469563786E+03  0.87979941203E+02 0.  0.
         13    1    3    3    0    0 -0.37683469556E+03  0.74636848158E+03 -0.37354985359E+03  0.91575640386E+03  0.00000000000E+00 0.  1.
        -13    1    3    3    0    0 -0.18718676710E+02  0.65839310434E+02 -0.82106229276E+01  0.68939234004E+02  0.00000000000E+00 0. -1.
         22    1    1    2    0    0  0.39555337227E+03 -0.81220779202E+03  0.12993295347E+04  0.15825300021E+04  0.00000000000E+00 0.  1.
<mgrwt>
<rscale>  0 0.23976477E+04</rscale>
<asrwt>0</asrwt>
<pdfrwt beam="1">  1        2 0.12689666E+00 0.23976477E+04</pdfrwt>
<pdfrwt beam="2">  1       -2 0.26806113E+00 0.23976477E+04</pdfrwt>
<totfact> 0.14810271E+00</totfact>
</mgrwt>
</event>
<event>
 6    1  0.1028026E-006  0.1555694E+04  0.7818608E-02  0.8848239E-01
         -2   -1    0    0    0  501 -0.00000000000E+00  0.00000000000E+00  0.31175512926E+03  0.31175512926E+03  0.00000000000E+00 0.  1.
          2   -1    0    0  501    0  0.00000000000E+00 -0.00000000000E+00 -0.19407742356E+04  0.19407742356E+04  0.00000000000E+00 0. -1.
         23    2    1    2    0    0  0.56285435268E+03  0.58274001909E+02 -0.50178406653E+02  0.57534755103E+03  0.91137535396E+02 0.  0.
         13    1    3    3    0    0  0.38810078853E+03  0.49944744641E+01 -0.98690541896E+01  0.38825837411E+03  0.00000000000E+00 0. -1.
        -13    1    3    3    0    0  0.17475356415E+03  0.53279527445E+02 -0.40309352463E+02  0.18708917693E+03  0.00000000000E+00 0.  1.
         22    1    1    2    0    0 -0.56285435268E+03 -0.58274001909E+02 -0.15788406997E+04  0.16771818138E+04  0.00000000000E+00 0. -1.
<mgrwt>
<rscale>  0 0.15556945E+04</rscale>
<asrwt>0</asrwt>
<pdfrwt beam="1">  1        2 0.29858065E+00 0.15556945E+04</pdfrwt>
<pdfrwt beam="2">  1       -2 0.47962328E-01 0.15556945E+04</pdfrwt>
<totfact> 0.28566765E+01</totfact>
</mgrwt>
</event>
<event>
 6    1  0.1028026E-006  0.1805067E+04  0.7818608E-02  0.8703610E-01
          2   -1    0    0  501    0  0.00000000000E+00  0.00000000000E+00  0.89091547588E+03  0.89091547588E+03  0.00000000000E+00 0. -1.
         -2   -1    0    0    0  501 -0.00000000000E+00 -0.00000000000E+00 -0.91430307655E+03  0.91430307655E+03  0.00000000000E+00 0.  1.
         23    2    1    2    0    0  0.57785849663E+03 -0.15125640469E+03  0.66177197229E+03  0.89623968440E+03  0.92219772858E+02 0.  0.
         13    1    3    3    0    0  0.27803497835E+03 -0.49945203996E+02  0.25254884651E+03  0.37891805507E+03  0.00000000000E+00 0. -1.
        -13    1    3    3    0    0  0.29982351828E+03 -0.10131120069E+03  0.40922312578E+03  0.51732162933E+03  0.00000000000E+00 0.  1.
         22    1    1    2    0    0 -0.57785849663E+03  0.15125640469E+03 -0.68515957297E+03  0.90897886802E+03  0.00000000000E+00 0.  1.
<mgrwt>
<rscale>  0 0.18050670E+04</rscale>
<asrwt>0</asrwt>
<pdfrwt beam="1">  1        2 0.13706392E+00 0.18050670E+04</pdfrwt>
<pdfrwt beam="2">  1       -2 0.14066201E+00 0.18050670E+04</pdfrwt>
<totfact> 0.99555310E+00</totfact>
</mgrwt>
</event>
<event>
 6    1  0.1028026E-006  0.2212408E+04  0.7818608E-02  0.8513281E-01
          2   -1    0    0  501    0  0.00000000000E+00  0.00000000000E+00  0.89944876592E+03  0.89944876592E+03  0.00000000000E+00 0. -1.
         -2   -1    0    0    0  501 -0.00000000000E+00 -0.00000000000E+00 -0.13604863349E+04  0.13604863349E+04  0.00000000000E+00 0.  1.
         23    2    1    2    0    0  0.46062529234E+03  0.84461295330E+03  0.32312400310E+03  0.10187839932E+04  0.89246863186E+02 0.  0.
         11    1    3    3    0    0  0.47863270585E+02  0.15601846729E+03  0.61562809781E+02  0.17442085413E+03  0.00000000000E+00 0. -1.
        -11    1    3    3    0    0  0.41276202175E+03  0.68859448601E+03  0.26156119331E+03  0.84436313906E+03  0.00000000000E+00 0.  1.
         22    1    1    2    0    0 -0.46062529234E+03 -0.84461295330E+03 -0.78416157209E+03  0.12411511076E+04  0.00000000000E+00 0.  1.
<mgrwt>
<rscale>  0 0.22124084E+04</rscale>
<asrwt>0</asrwt>
<pdfrwt beam="1">  1        2 0.13837673E+00 0.22124084E+04</pdfrwt>
<pdfrwt beam="2">  1       -2 0.20930559E+00 0.22124084E+04</pdfrwt>
<totfact> 0.30992046E+00</totfact>
</mgrwt>
</event>
<event>
 6    1  0.1028026E-006  0.2322632E+04  0.7818608E-02  0.8469051E-01
         -2   -1    0    0    0  501 -0.00000000000E+00  0.00000000000E+00  0.42450287221E+03  0.42450287221E+03  0.00000000000E+00 0.  1.
          2   -1    0    0  501    0  0.00000000000E+00 -0.00000000000E+00 -0.31770223851E+04  0.31770223851E+04  0.00000000000E+00 0. -1.
         23    2    1    2    0    0  0.28383220592E+03  0.28643787803E+03 -0.30641475736E+04  0.30918985044E+04  0.90711795506E+02 0.  0.
         11    1    3    3    0    0  0.24909702177E+03  0.27406217204E+03 -0.25936169833E+04  0.26199252768E+04  0.00000000000E+00 0.  1.
        -11    1    3    3    0    0  0.34735184148E+02  0.12375705996E+02 -0.47053059033E+03  0.47197322759E+03  0.00000000000E+00 0. -1.
         22    1    1    2    0    0 -0.28383220592E+03 -0.28643787803E+03  0.31162806067E+03  0.50962675291E+03  0.00000000000E+00 0.  1.
<mgrwt>
<rscale>  0 0.23226322E+04</rscale>
<asrwt>0</asrwt>
<pdfrwt beam="1">  1        2 0.48877271E+00 0.23226322E+04</pdfrwt>
<pdfrwt beam="2">  1       -2 0.65308130E-01 0.23226322E+04</pdfrwt>
<totfact> 0.26281391E+00</totfact>
</mgrwt>
</event>
<event>
 6    1  0.1028026E-006  0.4820678E+03  0.7818608E-02  0.1018568E+00
         -3   -1    0    0    0  501 -0.00000000000E+00  0.00000000000E+00  0.21271627573E+03  0.21271627573E+03  0.00000000000E+00 0.  1.
          3   -1    0    0  501    0  0.00000000000E+00 -0.00000000000E+00 -0.27312132770E+03  0.27312132770E+03  0.00000000000E+00 0. -1.
         23    2    1    2    0    0 -0.55103246273E+02  0.19351489377E+03  0.87792038176E+02  0.23594410734E+03  0.86474261836E+02 0.  0.
         13    1    3    3    0    0 -0.42121169899E+02  0.13124905744E+03  0.14043076989E+02  0.13855582284E+03  0.00000000000E+00 0. -1.
        -13    1    3    3    0    0 -0.12982076374E+02  0.62265836331E+02  0.73748961187E+02  0.97388284496E+02  0.00000000000E+00 0.  1.
         22    1    1    2    0    0  0.55103246273E+02 -0.19351489377E+03 -0.14819709014E+03  0.24989349609E+03  0.00000000000E+00 0. -1.
<mgrwt>
<rscale>  0 0.48206784E+03</rscale>
<asrwt>0</asrwt>
<pdfrwt beam="1">  1        3 0.42018666E-01 0.48206784E+03</pdfrwt>
<pdfrwt beam="2">  1       -3 0.32725581E-01 0.48206784E+03</pdfrwt>
<totfact> 0.13456029E+02</totfact>
</mgrwt>
</event>
<event>
 6    1  0.1028026E-006  0.4872307E+04  0.7818608E-02  0.7848513E-01
         -2   -1    0    0    0  501 -0.00000000000E+00  0.00000000000E+00  0.25665131228E+04  0.25665131228E+04  0.00000000000E+00 0.  1.
          2   -1    0    0  501    0  0.00000000000E+00 -0.00000000000E+00 -0.23124149423E+04  0.23124149423E+04  0.00000000000E+00 0. -1.
         23    2    1    2    0    0  0.94810806264E+03 -0.59498283519E+02 -0.21183221249E+04  0.23233797776E+04  0.91411278840E+02 0.  0.
         13    1    3    3    0    0  0.36425051774E+03  0.10661863707E+02 -0.88260688323E+03  0.95487539781E+03  0.00000000000E+00 0. -1.
        -13    1    3    3    0    0  0.58385754490E+03 -0.70160147226E+02 -0.12357152416E+04  0.13685043798E+04  0.00000000000E+00 0.  1.
         22    1    1    2    0    0 -0.94810806264E+03  0.59498283519E+02  0.23724203054E+04  0.25555482875E+04  0.00000000000E+00 0.  1.
<mgrwt>
<rscale>  0 0.48723068E+04</rscale>
<asrwt>0</asrwt>
<pdfrwt beam="1">  1        2 0.35575614E+00 0.48723068E+04</pdfrwt>
<pdfrwt beam="2">  1       -2 0.39484817E+00 0.48723068E+04</pdfrwt>
<totfact> 0.26323637E-02</totfact>
</mgrwt>
</event>
<event>
 6    1  0.1028026E-006  0.4664081E+03  0.7818608E-02  0.1022939E+00
          1   -1    0    0  501    0  0.00000000000E+00  0.00000000000E+00  0.10576548944E+04  0.10576548944E+04  0.00000000000E+00 0. -1.
         -1   -1    0    0    0  501 -0.00000000000E+00 -0.00000000000E+00 -0.51419543586E+02  0.51419543586E+02  0.00000000000E+00 0.  1.
         23    2    1    2    0    0 -0.16460910124E+03  0.82409885147E+02  0.21730566940E+03  0.29895247952E+03  0.90902616429E+02 0.  0.
         13    1    3    3    0    0 -0.53235993005E+02 -0.38596788075E+01  0.10860902130E+03  0.12101606331E+03  0.00000000000E+00 0. -1.
        -13    1    3    3    0    0 -0.11137310824E+03  0.86269563954E+02  0.10869664810E+03  0.17793641620E+03  0.00000000000E+00 0.  1.
         22    1    1    2    0    0  0.16460910124E+03 -0.82409885147E+02  0.78892968137E+03  0.81012195843E+03  0.00000000000E+00 0. -1.
<mgrwt>
<rscale>  0 0.46640811E+03</rscale>
<asrwt>0</asrwt>
<pdfrwt beam="1">  1        1 0.16271612E+00 0.46640811E+03</pdfrwt>
<pdfrwt beam="2">  1       -1 0.79106998E-02 0.46640811E+03</pdfrwt>
<totfact> 0.12645000E+03</totfact>
</mgrwt>
</event>
<event>
 6    1  0.1028026E-006  0.1013912E+04  0.7818608E-02  0.9293416E-01
          2   -1    0    0  501    0  0.00000000000E+00  0.00000000000E+00  0.17814742059E+03  0.17814742059E+03  0.00000000000E+00 0. -1.
         -2   -1    0    0    0  501 -0.00000000000E+00 -0.00000000000E+00 -0.14426509274E+04  0.14426509274E+04  0.00000000000E+00 0.  1.
         23    2    1    2    0    0  0.11825892439E+03  0.43259083526E+03 -0.27337037177E+03  0.53292662056E+03  0.90329501203E+02 0.  0.
         11    1    3    3    0    0  0.25077074719E+02  0.24556598492E+03 -0.12526122486E+03  0.27680658786E+03  0.00000000000E+00 0. -1.
        -11    1    3    3    0    0  0.93181849671E+02  0.18702485034E+03 -0.14810914691E+03  0.25612003270E+03  0.00000000000E+00 0.  1.
         22    1    1    2    0    0 -0.11825892439E+03 -0.43259083526E+03 -0.99113313503E+03  0.10878717274E+04  0.00000000000E+00 0.  1.
<mgrwt>
<rscale>  0 0.10139123E+04</rscale>
<asrwt>0</asrwt>
<pdfrwt beam="1">  1        2 0.27407296E-01 0.10139123E+04</pdfrwt>
<pdfrwt beam="2">  1       -2 0.22194629E+00 0.10139123E+04</pdfrwt>
<totfact> 0.18973583E+01</totfact>
</mgrwt>
</event>
<event>
 6    1  0.1028026E-006  0.4564289E+04  0.7818608E-02  0.7899477E-01
          1   -1    0    0  501    0  0.00000000000E+00  0.00000000000E+00  0.42699611408E+04  0.42699611408E+04  0.00000000000E+00 0. -1.
         -1   -1    0    0    0  501 -0.00000000000E+00 -0.00000000000E+00 -0.12197263900E+04  0.12197263900E+04  0.00000000000E+00 0.  1.
         23    2    1    2    0    0  0.26514118712E+03  0.13393578362E+03  0.42460975134E+04  0.42574836555E+04  0.92651715288E+02 0.  0.
         13    1    3    3    0    0  0.44891620617E+02  0.23974379464E+02  0.35781414074E+03  0.36141525672E+03  0.00000000000E+00 0. -1.
        -13    1    3    3    0    0  0.22024956650E+03  0.10996140415E+03  0.38882833727E+04  0.38960683988E+04  0.00000000000E+00 0.  1.
         22    1    1    2    0    0 -0.26514118712E+03 -0.13393578362E+03 -0.11958627626E+04  0.12322038752E+04  0.00000000000E+00 0.  1.
<mgrwt>
<rscale>  0 0.45642893E+04</rscale>
<asrwt>0</asrwt>
<pdfrwt beam="1">  1        1 0.65691709E+00 0.45642893E+04</pdfrwt>
<pdfrwt beam="2">  1       -1 0.18765022E+00 0.45642893E+04</pdfrwt>
<totfact> 0.74195352E-03</totfact>
</mgrwt>
</event>
<event>
 6    1  0.1028026E-006  0.1089515E+04  0.7818608E-02  0.9215472E-01
          2   -1    0    0  501    0  0.00000000000E+00  0.00000000000E+00  0.10960969868E+04  0.10960969868E+04  0.00000000000E+00 0. -1.
         -2   -1    0    0    0  501 -0.00000000000E+00 -0.00000000000E+00 -0.27074293046E+03  0.27074293046E+03  0.00000000000E+00 0.  1.
         23    2    1    2    0    0 -0.22784156272E+03  0.20132596223E+03 -0.14562751823E+03  0.34936798207E+03  0.91688014786E+02 0.  0.
         13    1    3    3    0    0 -0.42870466066E+02  0.94970454948E+02 -0.48596125067E+02  0.11497324709E+03  0.00000000000E+00 0.  1.
        -13    1    3    3    0    0 -0.18497109666E+03  0.10635550728E+03 -0.97031393162E+02  0.23439473498E+03  0.00000000000E+00 0. -1.
         22    1    1    2    0    0  0.22784156272E+03 -0.20132596223E+03  0.97098157461E+03  0.10174719352E+04  0.00000000000E+00 0. -1.
<mgrwt>
<rscale>  0 0.10895146E+04</rscale>
<asrwt>0</asrwt>
<pdfrwt beam="1">  1        2 0.16863030E+00 0.10895146E+04</pdfrwt>
<pdfrwt beam="2">  1       -2 0.41652759E-01 0.10895146E+04</pdfrwt>
<totfact> 0.11878125E+02</totfact>
</mgrwt>
</event>
<event>
 6    1  0.1028026E-006  0.6947474E+03  0.7818608E-02  0.9726257E-01
          2   -1    0    0  501    0  0.00000000000E+00  0.00000000000E+00  0.20732193129E+04  0.20732193129E+04  0.00000000000E+00 0. -1.
         -2   -1    0    0    0  501 -0.00000000000E+00 -0.00000000000E+00 -0.58203438888E+02  0.58203438888E+02  0.00000000000E+00 0.  1.
         23    2    1    2    0    0  0.29210844455E+03 -0.74402019058E+02  0.52468508114E+03  0.61091333846E+03  0.84009933510E+02 0.  0.
         11    1    3    3    0    0  0.23478921718E+03 -0.23546905743E+02  0.40782974782E+03  0.47117463480E+03  0.00000000000E+00 0. -1.
        -11    1    3    3    0    0  0.57319227373E+02 -0.50855113315E+02  0.11685533332E+03  0.13973870367E+03  0.00000000000E+00 0.  1.
         22    1    1    2    0    0 -0.29210844455E+03  0.74402019058E+02  0.14903307929E+04  0.15205094133E+04  0.00000000000E+00 0. -1.
<mgrwt>
<rscale>  0 0.69474742E+03</rscale>
<asrwt>0</asrwt>
<pdfrwt beam="1">  1        2 0.31895676E+00 0.69474742E+03</pdfrwt>
<pdfrwt beam="2">  1       -2 0.89543768E-02 0.69474742E+03</pdfrwt>
<totfact> 0.51409050E+02</totfact>
</mgrwt>
</event>
<event>
 6    1  0.1028026E-006  0.4432692E+04  0.7818608E-02  0.7922528E-01
         -2   -1    0    0    0  501 -0.00000000000E+00  0.00000000000E+00  0.25485213693E+04  0.25485213693E+04  0.00000000000E+00 0.  1.
          2   -1    0    0  501    0  0.00000000000E+00 -0.00000000000E+00 -0.19274664598E+04  0.19274664598E+04  0.00000000000E+00 0. -1.
         23    2    1    2    0    0 -0.13964942568E+04 -0.51260253011E+03  0.19683839043E+04  0.24689370117E+04  0.90317274166E+02 0.  0.
         13    1    3    3    0    0 -0.12203310257E+04 -0.41734295762E+03  0.17217042967E+04  0.21511970253E+04  0.00000000000E+00 0. -1.
        -13    1    3    3    0    0 -0.17616323114E+03 -0.95259572490E+02  0.24667960760E+03  0.31773998640E+03  0.00000000000E+00 0.  1.
         22    1    1    2    0    0  0.13964942568E+04  0.51260253011E+03 -0.13473289948E+04  0.20070508173E+04  0.00000000000E+00 0. -1.
<mgrwt>
<rscale>  0 0.44326919E+04</rscale>
<asrwt>0</asrwt>
<pdfrwt beam="1">  1        2 0.29653330E+00 0.44326919E+04</pdfrwt>
<pdfrwt beam="2">  1       -2 0.39208021E+00 0.44326919E+04</pdfrwt>
<totfact> 0.46694886E-02</totfact>
</mgrwt>
</event>
<event>
 6    1  0.1028026E-006  0.2962026E+04  0.7818608E-02  0.8254658E-01
          1   -1    0    0  501    0  0.00000000000E+00  0.00000000000E+00  0.32846748139E+04  0.32846748139E+04  0.00000000000E+00 0. -1.
         -1   -1    0    0    0  501 -0.00000000000E+00 -0.00000000000E+00 -0.66776782708E+03  0.66776782708E+03  0.00000000000E+00 0.  1.
         23    2    1    2    0    0 -0.13455231554E+04  0.24062655191E+03  0.20656972263E+04  0.24786156840E+04  0.89983213896E+02 0.  0.
         11    1    3    3    0    0 -0.92537473074E+03  0.14843592970E+03  0.14837327213E+04  0.17549400006E+04  0.00000000000E+00 0. -1.
        -11    1    3    3    0    0 -0.42014842464E+03  0.92190622207E+02  0.58196450503E+03  0.72367568335E+03  0.00000000000E+00 0.  1.
         22    1    1    2    0    0  0.13455231554E+04 -0.24062655191E+03  0.55120976048E+03  0.14738269570E+04  0.00000000000E+00 0. -1.
<mgrwt>
<rscale>  0 0.29620264E+04</rscale>
<asrwt>0</asrwt>
<pdfrwt beam="1">  1        1 0.50533457E+00 0.29620264E+04</pdfrwt>
<pdfrwt beam="2">  1       -1 0.10273351E+00 0.29620264E+04</pdfrwt>
<totfact> 0.28032184E-01</totfact>
</mgrwt>
</event>
<event>
 6    1  0.1028026E-006  0.2034244E+04  0.7818608E-02  0.8590776E-01
         -2   -1    0    0    0  501 -0.00000000000E+00  0.00000000000E+00  0.10273216872E+04  0.10273216872E+04  0.00000000000E+00 0.  1.
          2   -1    0    0  501    0  0.00000000000E+00 -0.00000000000E+00 -0.10070238709E+04  0.10070238709E+04  0.00000000000E+00 0. -1.
         23    2    1    2    0    0  0.87404981141E+02 -0.34726936309E+03  0.95948416634E+03  0.10292054479E+04  0.10207030517E+03 0.  0.
         11    1    3    3    0    0  0.44197941575E+02 -0.28886052610E+03  0.83986910425E+03  0.88925472945E+03  0.00000000000E+00 0. -1.
        -11    1    3    3    0    0  0.43207039567E+02 -0.58408836999E+02  0.11961506208E+03  0.13995071842E+03  0.00000000000E+00 0.  1.
         22    1    1    2    0    0 -0.87404981141E+02  0.34726936309E+03 -0.93918634999E+03  0.10051401103E+04  0.00000000000E+00 0. -1.
<mgrwt>
<rscale>  0 0.20342443E+04</rscale>
<asrwt>0</asrwt>
<pdfrwt beam="1">  1        2 0.15492675E+00 0.20342443E+04</pdfrwt>
<pdfrwt beam="2">  1       -2 0.15804949E+00 0.20342443E+04</pdfrwt>
<totfact> 0.60141118E+00</totfact>
</mgrwt>
</event>
<event>
 6    1  0.1028026E-006  0.2794020E+04  0.7818608E-02  0.8305127E-01
         -1   -1    0    0    0  501 -0.00000000000E+00  0.00000000000E+00  0.15306582536E+04  0.15306582536E+04  0.00000000000E+00 0.  1.
          1   -1    0    0  501    0  0.00000000000E+00 -0.00000000000E+00 -0.12750307486E+04  0.12750307486E+04  0.00000000000E+00 0. -1.
         23    2    1    2    0    0  0.65395221021E+03  0.11957526476E+04  0.42771685370E+03  0.14319741003E+04  0.10064904099E+03 0.  0.
         13    1    3    3    0    0  0.24393281845E+03  0.52524602990E+03  0.14790805050E+03  0.59771515227E+03  0.00000000000E+00 0. -1.
        -13    1    3    3    0    0  0.41001939175E+03  0.67050661774E+03  0.27980880321E+03  0.83425894805E+03  0.00000000000E+00 0.  1.
         22    1    1    2    0    0 -0.65395221021E+03 -0.11957526476E+04 -0.17208934867E+03  0.13737149018E+04  0.00000000000E+00 0. -1.
<mgrwt>
<rscale>  0 0.27940196E+04</rscale>
<asrwt>0</asrwt>
<pdfrwt beam="1">  1        1 0.19615858E+00 0.27940196E+04</pdfrwt>
<pdfrwt beam="2">  1       -1 0.23548589E+00 0.27940196E+04</pdfrwt>
<totfact> 0.70888619E-01</totfact>
</mgrwt>
</event>
<event>
 6    1  0.1028026E-006  0.3333508E+04  0.7818608E-02  0.8154421E-01
         -2   -1    0    0    0  501 -0.00000000000E+00  0.00000000000E+00  0.26888803566E+04  0.26888803566E+04  0.00000000000E+00 0.  1.
          2   -1    0    0  501    0  0.00000000000E+00 -0.00000000000E+00 -0.10331696067E+04  0.10331696067E+04  0.00000000000E+00 0. -1.
         23    2    1    2    0    0 -0.63532244107E+03  0.15316054101E+03 -0.88243400622E+03  0.11011204415E+04  0.81753874235E+02 0.  0.
         11    1    3    3    0    0 -0.42551188765E+03  0.64060210381E+02 -0.55928506805E+03  0.70566554715E+03  0.00000000000E+00 0. -1.
        -11    1    3    3    0    0 -0.20981055341E+03  0.89100330624E+02 -0.32314893817E+03  0.39545489437E+03  0.00000000000E+00 0.  1.
         22    1    1    2    0    0  0.63532244107E+03 -0.15316054101E+03  0.25381447561E+04  0.26209295218E+04  0.00000000000E+00 0.  1.
<mgrwt>
<rscale>  0 0.33335083E+04</rscale>
<asrwt>0</asrwt>
<pdfrwt beam="1">  1        2 0.15894917E+00 0.33335083E+04</pdfrwt>
<pdfrwt beam="2">  1       -2 0.41367390E+00 0.33335083E+04</pdfrwt>
<totfact> 0.12048417E-01</totfact>
</mgrwt>
</event>
<event>
 6    1  0.1028026E-006  0.2269638E+04  0.7818608E-02  0.8489990E-01
         -2   -1    0    0    0  501 -0.00000000000E+00  0.00000000000E+00  0.41800007862E+03  0.41800007862E+03  0.00000000000E+00 0.  1.
          2   -1    0    0  501    0  0.00000000000E+00 -0.00000000000E+00 -0.30808937598E+04  0.30808937598E+04  0.00000000000E+00 0. -1.
         23    2    1    2    0    0  0.49756607867E+03 -0.77791342580E+03 -0.23450360857E+04  0.25222901564E+04  0.10016031712E+03 0.  0.
         11    1    3    3    0    0  0.84311875312E+02 -0.18807896358E+03 -0.60290651463E+03  0.63716438558E+03  0.00000000000E+00 0.  1.
        -11    1    3    3    0    0  0.41325420336E+03 -0.58983446223E+03 -0.17421295711E+04  0.18851257709E+04  0.00000000000E+00 0. -1.
         22    1    1    2    0    0 -0.49756607867E+03  0.77791342580E+03 -0.31785759544E+03  0.97660368199E+03  0.00000000000E+00 0.  1.
<mgrwt>
<rscale>  0 0.22696377E+04</rscale>
<asrwt>0</asrwt>
<pdfrwt beam="1">  1        2 0.47398365E+00 0.22696377E+04</pdfrwt>
<pdfrwt beam="2">  1       -2 0.64307706E-01 0.22696377E+04</pdfrwt>
<totfact> 0.31461601E+00</totfact>
</mgrwt>
</event>
<event>
 6    1  0.1028026E-006  0.1505719E+04  0.7818608E-02  0.8880659E-01
         -2   -1    0    0    0  501 -0.00000000000E+00  0.00000000000E+00  0.56165048099E+03  0.56165048099E+03  0.00000000000E+00 0.  1.
          2   -1    0    0  501    0  0.00000000000E+00 -0.00000000000E+00 -0.10091643392E+04  0.10091643392E+04  0.00000000000E+00 0. -1.
         23    2    1    2    0    0 -0.62319506840E+03  0.72176236720E+02  0.20438196372E+03  0.66607747428E+03  0.91135680251E+02 0.  0.
         11    1    3    3    0    0 -0.50076703261E+03  0.58873924092E+02  0.12472952009E+03  0.51941429810E+03  0.00000000000E+00 0.  1.
        -11    1    3    3    0    0 -0.12242803579E+03  0.13302312629E+02  0.79652443639E+02  0.14666317618E+03  0.00000000000E+00 0. -1.
         22    1    1    2    0    0  0.62319506840E+03 -0.72176236720E+02 -0.65189582194E+03  0.90473734591E+03  0.00000000000E+00 0. -1.
<mgrwt>
<rscale>  0 0.15057193E+04</rscale>
<asrwt>0</asrwt>
<pdfrwt beam="1">  1        2 0.15525605E+00 0.15057193E+04</pdfrwt>
<pdfrwt beam="2">  1       -2 0.86407767E-01 0.15057193E+04</pdfrwt>
<totfact> 0.27858665E+01</totfact>
</mgrwt>
</event>
<event>
 6    1  0.1028026E-006  0.3459133E+04  0.7818608E-02  0.8123544E-01
         -2   -1    0    0    0  501 -0.00000000000E+00  0.00000000000E+00  0.15770676537E+04  0.15770676537E+04  0.00000000000E+00 0.  1.
          2   -1    0    0  501    0  0.00000000000E+00 -0.00000000000E+00 -0.18968118871E+04  0.18968118871E+04  0.00000000000E+00 0. -1.
         23    2    1    2    0    0 -0.44464824322E+03  0.74701249421E+03  0.13400495507E+04  0.16002053075E+04  0.95835802796E+02 0.  0.
         13    1    3    3    0    0 -0.14131576194E+03  0.29837777668E+03  0.44551802258E+03  0.55451397695E+03  0.00000000000E+00 0.  1.
        -13    1    3    3    0    0 -0.30333248128E+03  0.44863471752E+03  0.89453152816E+03  0.10456913306E+04  0.00000000000E+00 0. -1.
         22    1    1    2    0    0  0.44464824322E+03 -0.74701249421E+03 -0.16597937841E+04  0.18736742333E+04  0.00000000000E+00 0. -1.
<mgrwt>
<rscale>  0 0.34591332E+04</rscale>
<asrwt>0</asrwt>
<pdfrwt beam="1">  1        2 0.29181721E+00 0.34591332E+04</pdfrwt>
<pdfrwt beam="2">  1       -2 0.24262579E+00 0.34591332E+04</pdfrwt>
<totfact> 0.44856874E-01</totfact>
</mgrwt>
</event>
<event>
 6    1  0.1028026E-006  0.1674230E+04  0.7818608E-02  0.8776200E-01
         -1   -1    0    0    0  501 -0.00000000000E+00  0.00000000000E+00  0.17849236322E+03  0.17849236322E+03  0.00000000000E+00 0.  1.
          1   -1    0    0  501    0  0.00000000000E+00 -0.00000000000E+00 -0.39260047621E+04  0.39260047621E+04  0.00000000000E+00 0. -1.
         23    2    1    2    0    0 -0.47491374559E+03 -0.65077762164E+03 -0.24142697082E+04  0.25467453316E+04  0.90327080909E+02 0.  0.
         13    1    3    3    0    0 -0.25527838149E+03 -0.27373967214E+03 -0.11276345029E+04  0.11881330027E+04  0.00000000000E+00 0. -1.
        -13    1    3    3    0    0 -0.21963536410E+03 -0.37703794949E+03 -0.12866352054E+04  0.13586123289E+04  0.00000000000E+00 0.  1.
         22    1    1    2    0    0  0.47491374559E+03  0.65077762164E+03 -0.13332426906E+04  0.15577517937E+04  0.00000000000E+00 0.  1.
<mgrwt>
<rscale>  0 0.16742304E+04</rscale>
<asrwt>0</asrwt>
<pdfrwt beam="1">  1        1 0.60400067E+00 0.16742304E+04</pdfrwt>
<pdfrwt beam="2">  1       -1 0.27460366E-01 0.16742304E+04</pdfrwt>
<totfact> 0.12816060E+00</totfact>
</mgrwt>
</event>
<event>
 6    1  0.1028026E-006  0.1570534E+04  0.7818608E-02  0.8838857E-01
         -2   -1    0    0    0  501 -0.00000000000E+00  0.00000000000E+00  0.95163075962E+03  0.95163075962E+03  0.00000000000E+00 0.  1.
          2   -1    0    0  501    0  0.00000000000E+00 -0.00000000000E+00 -0.64798685885E+03  0.64798685885E+03  0.00000000000E+00 0. -1.
         23    2    1    2    0    0 -0.55926511648E+03 -0.38967210356E+03 -0.23921538352E+03  0.72822905913E+03  0.92042077534E+02 0.  0.
         11    1    3    3    0    0 -0.39015796834E+03 -0.28256118874E+03 -0.12468128939E+03  0.49760374754E+03  0.00000000000E+00 0.  1.
        -11    1    3    3    0    0 -0.16910714814E+03 -0.10711091482E+03 -0.11453409413E+03  0.23062531158E+03  0.00000000000E+00 0. -1.
         22    1    1    2    0    0  0.55926511648E+03  0.38967210356E+03  0.54285928429E+03  0.87138855934E+03  0.00000000000E+00 0.  1.
<mgrwt>
<rscale>  0 0.15705340E+04</rscale>
<asrwt>0</asrwt>
<pdfrwt beam="1">  1        2 0.99690287E-01 0.15705340E+04</pdfrwt>
<pdfrwt beam="2">  1       -2 0.14640473E+00 0.15705340E+04</pdfrwt>
<totfact> 0.13849928E+01</totfact>
</mgrwt>
</event>
<event>
 6    1  0.1028026E-006  0.2569675E+04  0.7818608E-02  0.8378576E-01
          2   -1    0    0  501    0  0.00000000000E+00  0.00000000000E+00  0.90342851543E+03  0.90342851543E+03  0.00000000000E+00 0. -1.
         -2   -1    0    0    0  501 -0.00000000000E+00 -0.00000000000E+00 -0.18272689870E+04  0.18272689870E+04  0.00000000000E+00 0.  1.
         23    2    1    2    0    0 -0.44506277027E+02 -0.12145754567E+04 -0.90007310175E+03  0.15150745195E+04  0.90248891573E+02 0.  0.
         11    1    3    3    0    0 -0.54635897844E+02 -0.68891870731E+03 -0.55289001184E+03  0.88503188180E+03  0.00000000000E+00 0.  1.
        -11    1    3    3    0    0  0.10129620817E+02 -0.52565674939E+03 -0.34718308992E+03  0.63004263770E+03  0.00000000000E+00 0. -1.
         22    1    1    2    0    0  0.44506277027E+02  0.12145754567E+04 -0.23767369808E+02  0.12156229829E+04  0.00000000000E+00 0. -1.
<mgrwt>
<rscale>  0 0.25696746E+04</rscale>
<asrwt>0</asrwt>
<pdfrwt beam="1">  1        2 0.13898900E+00 0.25696746E+04</pdfrwt>
<pdfrwt beam="2">  1       -2 0.28111831E+00 0.25696746E+04</pdfrwt>
<totfact> 0.10721934E+00</totfact>
</mgrwt>
</event>
<event>
 6    1  0.1028026E-006  0.1064126E+04  0.7818608E-02  0.9240880E-01
         -1   -1    0    0    0  501 -0.00000000000E+00  0.00000000000E+00  0.50085623665E+03  0.50085623665E+03  0.00000000000E+00 0.  1.
          1   -1    0    0  501    0  0.00000000000E+00 -0.00000000000E+00 -0.56521398853E+03  0.56521398853E+03  0.00000000000E+00 0. -1.
         23    2    1    2    0    0  0.12109413840E+03 -0.54080727640E+02  0.48065407464E+03  0.50515453945E+03  0.81020082734E+02 0.  0.
         11    1    3    3    0    0  0.15620443580E+02 -0.23288276478E+02  0.29051245450E+02  0.40377183423E+02  0.00000000000E+00 0.  1.
        -11    1    3    3    0    0  0.10547369482E+03 -0.30792451162E+02  0.45160282918E+03  0.46477735603E+03  0.00000000000E+00 0. -1.
         22    1    1    2    0    0 -0.12109413840E+03  0.54080727640E+02 -0.54501182651E+03  0.56091568573E+03  0.00000000000E+00 0. -1.
<mgrwt>
<rscale>  0 0.10641258E+04</rscale>
<asrwt>0</asrwt>
<pdfrwt beam="1">  1        1 0.86955998E-01 0.10641258E+04</pdfrwt>
<pdfrwt beam="2">  1       -1 0.77054806E-01 0.10641258E+04</pdfrwt>
<totfact> 0.62988049E+01</totfact>
</mgrwt>
</event>
<event>
 6    1  0.1028026E-006  0.6704261E+03  0.7818608E-02  0.9769188E-01
          1   -1    0    0  501    0  0.00000000000E+00  0.00000000000E+00  0.98458616281E+03  0.98458616281E+03  0.00000000000E+00 0. -1.
         -1   -1    0    0    0  501 -0.00000000000E+00 -0.00000000000E+00 -0.11412693856E+03  0.11412693856E+03  0.00000000000E+00 0.  1.
         23    2    1    2    0    0 -0.18461824147E+03 -0.24495155162E+03  0.24792805347E+03  0.40471726830E+03  0.90788709852E+02 0.  0.
         11    1    3    3    0    0 -0.44083086730E+02 -0.12924825544E+03  0.12438948849E+03  0.18471917853E+03  0.00000000000E+00 0. -1.
        -11    1    3    3    0    0 -0.14053515474E+03 -0.11570329618E+03  0.12353856498E+03  0.21999808977E+03  0.00000000000E+00 0.  1.
         22    1    1    2    0    0  0.18461824147E+03  0.24495155162E+03  0.62253117078E+03  0.69399583307E+03  0.00000000000E+00 0. -1.
<mgrwt>
<rscale>  0 0.67042615E+03</rscale>
<asrwt>0</asrwt>
<pdfrwt beam="1">  1        1 0.15147479E+00 0.67042615E+03</pdfrwt>
<pdfrwt beam="2">  1       -1 0.17557991E-01 0.67042615E+03</pdfrwt>
<totfact> 0.40039364E+02</totfact>
</mgrwt>
</event>
<event>
 6    1  0.1028026E-006  0.4210570E+04  0.7818608E-02  0.7963365E-01
          1   -1    0    0  501    0  0.00000000000E+00  0.00000000000E+00  0.29769423895E+04  0.29769423895E+04  0.00000000000E+00 0. -1.
         -1   -1    0    0    0  501 -0.00000000000E+00 -0.00000000000E+00 -0.14888516869E+04  0.14888516869E+04  0.00000000000E+00 0.  1.
         23    2    1    2    0    0  0.12457556896E+04  0.10978057198E+04 -0.62656298734E+03  0.17771429528E+04  0.92581104466E+02 0.  0.
         13    1    3    3    0    0  0.85595524028E+03  0.77856647777E+03 -0.39506382257E+03  0.12226612604E+04  0.00000000000E+00 0. -1.
        -13    1    3    3    0    0  0.38980044928E+03  0.31923924203E+03 -0.23149916477E+03  0.55448169240E+03  0.00000000000E+00 0.  1.
         22    1    1    2    0    0 -0.12457556896E+04 -0.10978057198E+04  0.21146536899E+04  0.26886511236E+04  0.00000000000E+00 0. -1.
<mgrwt>
<rscale>  0 0.42105704E+04</rscale>
<asrwt>0</asrwt>
<pdfrwt beam="1">  1        1 0.45799114E+00 0.42105704E+04</pdfrwt>
<pdfrwt beam="2">  1       -1 0.22905411E+00 0.42105704E+04</pdfrwt>
<totfact> 0.45761328E-02</totfact>
</mgrwt>
</event>
<event>
 6    1  0.1028026E-006  0.2963471E+04  0.7818608E-02  0.8254240E-01
         -2   -1    0    0    0  501 -0.00000000000E+00  0.00000000000E+00  0.29242262306E+04  0.29242262306E+04  0.00000000000E+00 0.  1.
          2   -1    0    0  501    0  0.00000000000E+00 -0.00000000000E+00 -0.75081064036E+03  0.75081064036E+03  0.00000000000E+00 0. -1.
         23    2    1    2    0    0  0.19158751442E+03 -0.15881485226E+03  0.28973911138E+04  0.29094857677E+04  0.91127563998E+02 0.  0.
         11    1    3    3    0    0  0.31394011996E+02 -0.46004700757E+02  0.11082330026E+04  0.11096316527E+04  0.00000000000E+00 0.  1.
        -11    1    3    3    0    0  0.16019350243E+03 -0.11281015150E+03  0.17891581112E+04  0.17998541150E+04  0.00000000000E+00 0. -1.
         22    1    1    2    0    0 -0.19158751442E+03  0.15881485226E+03 -0.72397552358E+03  0.76555110327E+03  0.00000000000E+00 0. -1.
<mgrwt>
<rscale>  0 0.29634711E+04</rscale>
<asrwt>0</asrwt>
<pdfrwt beam="1">  1        2 0.11550933E+00 0.29634711E+04</pdfrwt>
<pdfrwt beam="2">  1       -2 0.44988095E+00 0.29634711E+04</pdfrwt>
<totfact> 0.11163134E-01</totfact>
</mgrwt>
</event>
<event>
 6    1  0.1028026E-006  0.2586439E+04  0.7818608E-02  0.8372822E-01
          2   -1    0    0  501    0  0.00000000000E+00  0.00000000000E+00  0.12885519677E+04  0.12885519677E+04  0.00000000000E+00 0. -1.
         -2   -1    0    0    0  501 -0.00000000000E+00 -0.00000000000E+00 -0.12979042950E+04  0.12979042950E+04  0.00000000000E+00 0.  1.
         23    2    1    2    0    0  0.39048141831E+03 -0.12239483609E+04 -0.13794273383E+03  0.12953091677E+04  0.90952261522E+02 0.  0.
         11    1    3    3    0    0  0.26496691724E+03 -0.94771948527E+03 -0.12030087799E+03  0.99138892027E+03  0.00000000000E+00 0. -1.
        -11    1    3    3    0    0  0.12551450107E+03 -0.27622887566E+03 -0.17641855839E+02  0.30392024744E+03  0.00000000000E+00 0.  1.
         22    1    1    2    0    0 -0.39048141831E+03  0.12239483609E+04  0.12859040648E+03  0.12911470950E+04  0.00000000000E+00 0. -1.
<mgrwt>
<rscale>  0 0.25864394E+04</rscale>
<asrwt>0</asrwt>
<pdfrwt beam="1">  1        2 0.19823877E+00 0.25864394E+04</pdfrwt>
<pdfrwt beam="2">  1       -2 0.19967758E+00 0.25864394E+04</pdfrwt>
<totfact> 0.19870185E+00</totfact>
</mgrwt>
</event>
<event>
 6    1  0.1028026E-006  0.3340477E+04  0.7818608E-02  0.8152672E-01
          1   -1    0    0  501    0  0.00000000000E+00  0.00000000000E+00  0.26172039673E+04  0.26172039673E+04  0.00000000000E+00 0. -1.
         -1   -1    0    0    0  501 -0.00000000000E+00 -0.00000000000E+00 -0.10659071693E+04  0.10659071693E+04  0.00000000000E+00 0.  1.
         23    2    1    2    0    0  0.76747420623E+02  0.43384870184E+03 -0.99869780048E+03  0.10953346170E+04  0.90806188931E+02 0.  0.
         11    1    3    3    0    0  0.74987265605E+01  0.84624795043E+02 -0.29072547685E+03  0.30288428438E+03  0.00000000000E+00 0.  1.
        -11    1    3    3    0    0  0.69248694062E+02  0.34922390680E+03 -0.70797232364E+03  0.79245033267E+03  0.00000000000E+00 0. -1.
         22    1    1    2    0    0 -0.76747420623E+02 -0.43384870184E+03  0.25499945985E+04  0.25877765196E+04  0.00000000000E+00 0. -1.
<mgrwt>
<rscale>  0 0.33404769E+04</rscale>
<asrwt>0</asrwt>
<pdfrwt beam="1">  1        1 0.40264676E+00 0.33404769E+04</pdfrwt>
<pdfrwt beam="2">  1       -1 0.16398572E+00 0.33404769E+04</pdfrwt>
<totfact> 0.25295254E-01</totfact>
</mgrwt>
</event>
<event>
 6    1  0.1028026E-006  0.2534462E+04  0.7818608E-02  0.8390810E-01
          2   -1    0    0  501    0  0.00000000000E+00  0.00000000000E+00  0.19400335011E+04  0.19400335011E+04  0.00000000000E+00 0. -1.
         -2   -1    0    0    0  501 -0.00000000000E+00 -0.00000000000E+00 -0.82775618603E+03  0.82775618603E+03  0.00000000000E+00 0.  1.
         23    2    1    2    0    0  0.94042045084E+03 -0.61357272746E+03  0.11947470016E+04  0.16418841114E+04  0.86607858068E+02 0.  0.
         13    1    3    3    0    0  0.37780271646E+03 -0.20468863720E+03  0.49052220086E+03  0.65210762939E+03  0.00000000000E+00 0.  1.
        -13    1    3    3    0    0  0.56261773438E+03 -0.40888409026E+03  0.70422480075E+03  0.98977648199E+03  0.00000000000E+00 0. -1.
         22    1    1    2    0    0 -0.94042045084E+03  0.61357272746E+03 -0.82469686570E+02  0.11259055757E+04  0.00000000000E+00 0.  1.
<mgrwt>
<rscale>  0 0.25344623E+04</rscale>
<asrwt>0</asrwt>
<pdfrwt beam="1">  1        2 0.29846669E+00 0.25344623E+04</pdfrwt>
<pdfrwt beam="2">  1       -2 0.12734711E+00 0.25344623E+04</pdfrwt>
<totfact> 0.29358330E+00</totfact>
</mgrwt>
</event>
<event>
 6    1  0.1028026E-006  0.2454892E+04  0.7818608E-02  0.8419234E-01
          1   -1    0    0  501    0  0.00000000000E+00  0.00000000000E+00  0.32212285711E+04  0.32212285711E+04  0.00000000000E+00 0. -1.
         -1   -1    0    0    0  501 -0.00000000000E+00 -0.00000000000E+00 -0.46771697939E+03  0.46771697939E+03  0.00000000000E+00 0.  1.
         23    2    1    2    0    0 -0.10004785369E+04  0.34202701124E+02  0.31630738954E+03  0.10541606540E+04  0.95274300276E+02 0.  0.
         13    1    3    3    0    0 -0.32380525697E+03 -0.21698671392E+02  0.70839632897E+02  0.33217304281E+03  0.00000000000E+00 0.  1.
        -13    1    3    3    0    0 -0.67667327992E+03  0.55901372516E+02  0.24546775664E+03  0.72198761122E+03  0.00000000000E+00 0. -1.
         22    1    1    2    0    0  0.10004785369E+04 -0.34202701124E+02  0.24372042022E+04  0.26347848965E+04  0.00000000000E+00 0. -1.
<mgrwt>
<rscale>  0 0.24548917E+04</rscale>
<asrwt>0</asrwt>
<pdfrwt beam="1">  1        1 0.49557361E+00 0.24548917E+04</pdfrwt>
<pdfrwt beam="2">  1       -1 0.71956460E-01 0.24548917E+04</pdfrwt>
<totfact> 0.71260207E-01</totfact>
</mgrwt>
</event>
<event>
 6    1  0.1028026E-006  0.2448912E+04  0.7818608E-02  0.8421415E-01
          1   -1    0    0  501    0  0.00000000000E+00  0.00000000000E+00  0.16385252397E+04  0.16385252397E+04  0.00000000000E+00 0. -1.
         -1   -1    0    0    0  501 -0.00000000000E+00 -0.00000000000E+00 -0.91502566962E+03  0.91502566962E+03  0.00000000000E+00 0.  1.
         23    2    1    2    0    0 -0.11158842007E+04  0.18609450406E+02  0.88299437021E+03  0.14261723339E+04  0.93512603720E+02 0.  0.
         13    1    3    3    0    0 -0.27426521042E+03  0.15511657532E+02  0.26815251373E+03  0.38388512316E+03  0.00000000000E+00 0. -1.
        -13    1    3    3    0    0 -0.84161899028E+03  0.30977928739E+01  0.61484185648E+03  0.10422872107E+04  0.00000000000E+00 0.  1.
         22    1    1    2    0    0  0.11158842007E+04 -0.18609450406E+02 -0.15949480017E+03  0.11273785754E+04  0.00000000000E+00 0.  1.
<mgrwt>
<rscale>  0 0.24489121E+04</rscale>
<asrwt>0</asrwt>
<pdfrwt beam="1">  1        1 0.25208081E+00 0.24489121E+04</pdfrwt>
<pdfrwt beam="2">  1       -1 0.14077318E+00 0.24489121E+04</pdfrwt>
<totfact> 0.19356994E+00</totfact>
</mgrwt>
</event>
<event>
 6    1  0.1028026E-006  0.3240046E+04  0.7818608E-02  0.8178321E-01
          2   -1    0    0  501    0  0.00000000000E+00  0.00000000000E+00  0.13467619156E+04  0.13467619156E+04  0.00000000000E+00 0. -1.
         -2   -1    0    0    0  501 -0.00000000000E+00 -0.00000000000E+00 -0.19487288793E+04  0.19487288793E+04  0.00000000000E+00 0.  1.
         23    2    1    2    0    0  0.10541108003E+04 -0.11882058896E+04 -0.61843013053E+03  0.17070154720E+04  0.91995542509E+02 0.  0.
         13    1    3    3    0    0  0.23587898515E+03 -0.21847964529E+03 -0.10444240956E+03  0.33805394238E+03  0.00000000000E+00 0.  1.
        -13    1    3    3    0    0  0.81823181517E+03 -0.96972624433E+03 -0.51398772097E+03  0.13689615296E+04  0.00000000000E+00 0. -1.
         22    1    1    2    0    0 -0.10541108003E+04  0.11882058896E+04  0.16463166859E+02  0.15884753229E+04  0.00000000000E+00 0. -1.
<mgrwt>
<rscale>  0 0.32400456E+04</rscale>
<asrwt>0</asrwt>
<pdfrwt beam="1">  1        2 0.20719414E+00 0.32400456E+04</pdfrwt>
<pdfrwt beam="2">  1       -2 0.29980444E+00 0.32400456E+04</pdfrwt>
<totfact> 0.41533626E-01</totfact>
</mgrwt>
</event>
<event>
 6    1  0.1028026E-006  0.3623110E+04  0.7818608E-02  0.8085219E-01
         -2   -1    0    0    0  501 -0.00000000000E+00  0.00000000000E+00  0.19874551652E+04  0.19874551652E+04  0.00000000000E+00 0.  1.
          2   -1    0    0  501    0  0.00000000000E+00 -0.00000000000E+00 -0.16512225984E+04  0.16512225984E+04  0.00000000000E+00 0. -1.
         23    2    1    2    0    0 -0.17790776161E+04  0.25283036549E+03  0.38929420644E+03  0.18409414382E+04  0.92059990625E+02 0.  0.
         11    1    3    3    0    0 -0.15204970352E+04  0.23838202498E+03  0.35718960176E+03  0.15799752010E+04  0.00000000000E+00 0.  1.
        -11    1    3    3    0    0 -0.25858058085E+03  0.14448340512E+02  0.32104604686E+02  0.26096623724E+03  0.00000000000E+00 0. -1.
         22    1    1    2    0    0  0.17790776161E+04 -0.25283036549E+03 -0.53061639651E+02  0.17977363253E+04  0.00000000000E+00 0. -1.
<mgrwt>
<rscale>  0 0.36231096E+04</rscale>
<asrwt>0</asrwt>
<pdfrwt beam="1">  1        2 0.25403425E+00 0.36231096E+04</pdfrwt>
<pdfrwt beam="2">  1       -2 0.30576233E+00 0.36231096E+04</pdfrwt>
<totfact> 0.24882974E-01</totfact>
</mgrwt>
</event>
<event>
 6    1  0.1028026E-006  0.4983415E+04  0.7818608E-02  0.7831071E-01
          2   -1    0    0  501    0  0.00000000000E+00  0.00000000000E+00  0.25509651487E+04  0.25509651487E+04  0.00000000000E+00 0. -1.
         -2   -1    0    0    0  501 -0.00000000000E+00 -0.00000000000E+00 -0.24338267229E+04  0.24338267229E+04  0.00000000000E+00 0.  1.
         23    2    1    2    0    0  0.68226241180E+03  0.96163843804E+02 -0.23357707457E+04  0.24369510430E+04  0.90420827390E+02 0.  0.
         11    1    3    3    0    0  0.36758907759E+03  0.94922989433E+02 -0.12269698764E+04  0.12843625584E+04  0.00000000000E+00 0.  1.
        -11    1    3    3    0    0  0.31467333421E+03  0.12408543708E+01 -0.11088008694E+04  0.11525884846E+04  0.00000000000E+00 0. -1.
         22    1    1    2    0    0 -0.68226241180E+03 -0.96163843804E+02  0.24529091716E+04  0.25478408285E+04  0.00000000000E+00 0. -1.
<mgrwt>
<rscale>  0 0.49834154E+04</rscale>
<asrwt>0</asrwt>
<pdfrwt beam="1">  1        2 0.39245618E+00 0.49834154E+04</pdfrwt>
<pdfrwt beam="2">  1       -2 0.37443488E+00 0.49834154E+04</pdfrwt>
<totfact> 0.25779072E-02</totfact>
</mgrwt>
</event>
<event>
 6    1  0.1028026E-006  0.1937906E+04  0.7818608E-02  0.8636215E-01
         -1   -1    0    0    0  501 -0.00000000000E+00  0.00000000000E+00  0.16036070872E+04  0.16036070872E+04  0.00000000000E+00 0.  1.
          1   -1    0    0  501    0  0.00000000000E+00 -0.00000000000E+00 -0.58547368025E+03  0.58547368025E+03  0.00000000000E+00 0. -1.
         23    2    1    2    0    0 -0.37116536035E+03 -0.22063362615E+03 -0.46699159301E+03  0.64245890441E+03  0.90715898309E+02 0.  0.
         13    1    3    3    0    0 -0.31887318649E+03 -0.19447164449E+03 -0.44252501875E+03  0.57907488445E+03  0.00000000000E+00 0. -1.
        -13    1    3    3    0    0 -0.52292173857E+02 -0.26161981660E+02 -0.24466574254E+02  0.63384019964E+02  0.00000000000E+00 0.  1.
         22    1    1    2    0    0  0.37116536035E+03  0.22063362615E+03  0.14851249999E+04  0.15466218630E+04  0.00000000000E+00 0.  1.
<mgrwt>
<rscale>  0 0.19379058E+04</rscale>
<asrwt>0</asrwt>
<pdfrwt beam="1">  1        1 0.90072874E-01 0.19379058E+04</pdfrwt>
<pdfrwt beam="2">  1       -1 0.24670878E+00 0.19379058E+04</pdfrwt>
<totfact> 0.24242749E+00</totfact>
</mgrwt>
</event>
<event>
 6    1  0.1028026E-006  0.1797223E+04  0.7818608E-02  0.8707778E-01
         -2   -1    0    0    0  501 -0.00000000000E+00  0.00000000000E+00  0.28391946835E+03  0.28391946835E+03  0.00000000000E+00 0.  1.
          2   -1    0    0  501    0  0.00000000000E+00 -0.00000000000E+00 -0.28441256579E+04  0.28441256579E+04  0.00000000000E+00 0. -1.
         23    2    1    2    0    0  0.80564799216E+02  0.47578055102E+03 -0.25978934455E+04  0.26440222457E+04  0.94580451583E+02 0.  0.
         13    1    3    3    0    0  0.46746292422E+02  0.96859657571E+02 -0.44792956823E+03  0.46066029481E+03  0.00000000000E+00 0.  1.
        -13    1    3    3    0    0  0.33818506795E+02  0.37892089345E+03 -0.21499638773E+04  0.21833619509E+04  0.00000000000E+00 0. -1.
         22    1    1    2    0    0 -0.80564799216E+02 -0.47578055102E+03  0.37687256010E+02  0.48402288052E+03  0.00000000000E+00 0.  1.
<mgrwt>
<rscale>  0 0.17972230E+04</rscale>
<asrwt>0</asrwt>
<pdfrwt beam="1">  1        2 0.43755781E+00 0.17972230E+04</pdfrwt>
<pdfrwt beam="2">  1       -2 0.43679917E-01 0.17972230E+04</pdfrwt>
<totfact> 0.10232061E+01</totfact>
</mgrwt>
</event>
<event>
 6    1  0.1028026E-006  0.4539380E+04  0.7818608E-02  0.7903779E-01
          1   -1    0    0  501    0  0.00000000000E+00  0.00000000000E+00  0.22527913311E+04  0.22527913311E+04  0.00000000000E+00 0. -1.
         -1   -1    0    0    0  501 -0.00000000000E+00 -0.00000000000E+00 -0.22867154821E+04  0.22867154821E+04  0.00000000000E+00 0.  1.
         23    2    1    2    0    0 -0.18826826581E+04  0.17462508309E+03 -0.12702175028E+04  0.22804341799E+04  0.10926862903E+03 0.  0.
         13    1    3    3    0    0 -0.12221327840E+04  0.13908654412E+03 -0.77087354658E+03  0.14516196586E+04  0.00000000000E+00 0. -1.
        -13    1    3    3    0    0 -0.66054987417E+03  0.35538538966E+02 -0.49934395626E+03  0.82881452128E+03  0.00000000000E+00 0.  1.
         22    1    1    2    0    0  0.18826826581E+04 -0.17462508309E+03  0.12362933519E+04  0.22590726333E+04  0.00000000000E+00 0. -1.
<mgrwt>
<rscale>  0 0.45393801E+04</rscale>
<asrwt>0</asrwt>
<pdfrwt beam="1">  1        1 0.34658328E+00 0.45393801E+04</pdfrwt>
<pdfrwt beam="2">  1       -1 0.35180238E+00 0.45393801E+04</pdfrwt>
<totfact> 0.22699211E-02</totfact>
</mgrwt>
</event>
<event>
 6    1  0.1028026E-006  0.2045034E+04  0.7818608E-02  0.8585851E-01
          1   -1    0    0  501    0  0.00000000000E+00  0.00000000000E+00  0.42036930101E+03  0.42036930101E+03  0.00000000000E+00 0. -1.
         -1   -1    0    0    0  501 -0.00000000000E+00 -0.00000000000E+00 -0.24871957909E+04  0.24871957909E+04  0.00000000000E+00 0.  1.
         23    2    1    2    0    0  0.94975928174E+03  0.31913812785E+03 -0.13109385676E+04  0.16524721117E+04  0.90621819064E+02 0.  0.
         13    1    3    3    0    0  0.34411844039E+03  0.75185467546E+02 -0.42693224388E+03  0.55348125209E+03  0.00000000000E+00 0. -1.
        -13    1    3    3    0    0  0.60564084135E+03  0.24395266031E+03 -0.88400632371E+03  0.10989908596E+04  0.00000000000E+00 0.  1.
         22    1    1    2    0    0 -0.94975928174E+03 -0.31913812785E+03 -0.75588792232E+03  0.12550929802E+04  0.00000000000E+00 0. -1.
<mgrwt>
<rscale>  0 0.20450337E+04</rscale>
<asrwt>0</asrwt>
<pdfrwt beam="1">  1        1 0.64672201E-01 0.20450337E+04</pdfrwt>
<pdfrwt beam="2">  1       -1 0.38264550E+00 0.20450337E+04</pdfrwt>
<totfact> 0.48783966E-01</totfact>
</mgrwt>
</event>
<event>
 6    1  0.1258279E-006  0.3442691E+04  0.7818608E-02  0.8127507E-01
         -2   -1    0    0    0  501 -0.00000000000E+00  0.00000000000E+00  0.10897127269E+04  0.10897127269E+04  0.00000000000E+00 0.  1.
          2   -1    0    0  501    0  0.00000000000E+00 -0.00000000000E+00 -0.27190936997E+04  0.27190936997E+04  0.00000000000E+00 0. -1.
         23    2    1    2    0    0  0.13147933784E+04 -0.51043573587E+03 -0.19048697469E+04  0.23717537716E+04  0.86376688110E+02 0.  0.
         13    1    3    3    0    0  0.72783899898E+03 -0.23759326555E+03 -0.10485280944E+04  0.12983109539E+04  0.00000000000E+00 0.  1.
        -13    1    3    3    0    0  0.58695437938E+03 -0.27284247032E+03 -0.85634165259E+03  0.10734428178E+04  0.00000000000E+00 0. -1.
         22    1    1    2    0    0 -0.13147933784E+04  0.51043573587E+03  0.27548877419E+03  0.14370526549E+04  0.00000000000E+00 0.  1.
<mgrwt>
<rscale>  0 0.34426914E+04</rscale>
<asrwt>0</asrwt>
<pdfrwt beam="1">  1        2 0.41832210E+00 0.34426914E+04</pdfrwt>
<pdfrwt beam="2">  1       -2 0.16764811E+00 0.34426914E+04</pdfrwt>
<totfact> 0.47295264E-01</totfact>
</mgrwt>
</event>
<event>
 6    1  0.1028026E-006  0.4145508E+04  0.7818608E-02  0.7975819E-01
         -2   -1    0    0    0  501 -0.00000000000E+00  0.00000000000E+00  0.19010782806E+04  0.19010782806E+04  0.00000000000E+00 0.  1.
          2   -1    0    0  501    0  0.00000000000E+00 -0.00000000000E+00 -0.22599327656E+04  0.22599327656E+04  0.00000000000E+00 0. -1.
         23    2    1    2    0    0 -0.10311078493E+03  0.12628120682E+04 -0.18248079447E+04  0.22233976432E+04  0.90812396140E+02 0.  0.
         13    1    3    3    0    0 -0.21177545062E+01  0.49599203342E+03 -0.67412509503E+03  0.83693322664E+03  0.00000000000E+00 0. -1.
        -13    1    3    3    0    0 -0.10099303043E+03  0.76682003473E+03 -0.11506828496E+04  0.13864644165E+04  0.00000000000E+00 0.  1.
         22    1    1    2    0    0  0.10311078493E+03 -0.12628120682E+04  0.14659534597E+04  0.19376134030E+04  0.00000000000E+00 0.  1.
<mgrwt>
<rscale>  0 0.41455080E+04</rscale>
<asrwt>0</asrwt>
<pdfrwt beam="1">  1        2 0.34768196E+00 0.41455080E+04</pdfrwt>
<pdfrwt beam="2">  1       -2 0.29247358E+00 0.41455080E+04</pdfrwt>
<totfact> 0.13162320E-01</totfact>
</mgrwt>
</event>
<event>
 6    1  0.1028026E-006  0.2713642E+04  0.7818608E-02  0.8330592E-01
          2   -1    0    0  501    0  0.00000000000E+00  0.00000000000E+00  0.98935484608E+03  0.98935484608E+03  0.00000000000E+00 0. -1.
         -2   -1    0    0    0  501 -0.00000000000E+00 -0.00000000000E+00 -0.18607712456E+04  0.18607712456E+04  0.00000000000E+00 0.  1.
         23    2    1    2    0    0 -0.20335441172E+03 -0.57183837523E+03 -0.17089370745E+04  0.18158180982E+04  0.91527574382E+02 0.  0.
         11    1    3    3    0    0 -0.11121159109E+03 -0.18301191502E+03 -0.58707920524E+03  0.62491869251E+03  0.00000000000E+00 0. -1.
        -11    1    3    3    0    0 -0.92142820635E+02 -0.38882646021E+03 -0.11218578693E+04  0.11908994057E+04  0.00000000000E+00 0.  1.
         22    1    1    2    0    0  0.20335441172E+03  0.57183837523E+03  0.83752067505E+03  0.10343079934E+04  0.00000000000E+00 0. -1.
<mgrwt>
<rscale>  0 0.27136419E+04</rscale>
<asrwt>0</asrwt>
<pdfrwt beam="1">  1        2 0.15220844E+00 0.27136419E+04</pdfrwt>
<pdfrwt beam="2">  1       -2 0.28627249E+00 0.27136419E+04</pdfrwt>
<totfact> 0.86468610E-01</totfact>
</mgrwt>
</event>
<event>
 6    1  0.1028026E-006  0.6876423E+03  0.7818608E-02  0.9738602E-01
         -1   -1    0    0    0  501 -0.00000000000E+00  0.00000000000E+00  0.66646991836E+02  0.66646991836E+02  0.00000000000E+00 0.  1.
          1   -1    0    0  501    0  0.00000000000E+00 -0.00000000000E+00 -0.17737182689E+04  0.17737182689E+04  0.00000000000E+00 0. -1.
         23    2    1    2    0    0 -0.12629237928E+03 -0.30214768581E+03 -0.10917519699E+04  0.11433280746E+04  0.89631095432E+02 0.  0.
         11    1    3    3    0    0 -0.33168004034E+02 -0.11163407372E+03 -0.25859498265E+03  0.28360826497E+03  0.00000000000E+00 0. -1.
        -11    1    3    3    0    0 -0.93124375243E+02 -0.19051361209E+03 -0.83315698726E+03  0.85971980963E+03  0.00000000000E+00 0.  1.
         22    1    1    2    0    0  0.12629237928E+03  0.30214768581E+03 -0.61531930721E+03  0.69703718619E+03  0.00000000000E+00 0.  1.
<mgrwt>
<rscale>  0 0.68764231E+03</rscale>
<asrwt>0</asrwt>
<pdfrwt beam="1">  1        1 0.27287970E+00 0.68764231E+03</pdfrwt>
<pdfrwt beam="2">  1       -1 0.10253384E-01 0.68764231E+03</pdfrwt>
<totfact> 0.26483589E+02</totfact>
</mgrwt>
</event>
<event>
 6    1  0.1028026E-006  0.1769114E+04  0.7818608E-02  0.8722899E-01
          2   -1    0    0  501    0  0.00000000000E+00  0.00000000000E+00  0.32250589688E+04  0.32250589688E+04  0.00000000000E+00 0. -1.
         -2   -1    0    0    0  501 -0.00000000000E+00 -0.00000000000E+00 -0.24261294791E+03  0.24261294791E+03  0.00000000000E+00 0.  1.
         23    2    1    2    0    0  0.19390659774E+03 -0.46049515459E+03  0.70242848437E+02  0.51291594138E+03  0.92158282923E+02 0.  0.
         11    1    3    3    0    0  0.10317092445E+03 -0.13635287998E+03  0.34379249478E+02  0.17440837229E+03  0.00000000000E+00 0.  1.
        -11    1    3    3    0    0  0.90735673297E+02 -0.32414227461E+03  0.35863598959E+02  0.33850756909E+03  0.00000000000E+00 0. -1.
         22    1    1    2    0    0 -0.19390659774E+03  0.46049515459E+03  0.29122031725E+04  0.29547559754E+04  0.00000000000E+00 0. -1.
<mgrwt>
<rscale>  0 0.17691140E+04</rscale>
<asrwt>0</asrwt>
<pdfrwt beam="1">  1        2 0.49616289E+00 0.17691140E+04</pdfrwt>
<pdfrwt beam="2">  1       -2 0.37325071E-01 0.17691140E+04</pdfrwt>
<totfact> 0.80462487E+00</totfact>
</mgrwt>
</event>
<event>
 6    1  0.1028026E-006  0.3349646E+04  0.7818608E-02  0.8150377E-01
         -2   -1    0    0    0  501 -0.00000000000E+00  0.00000000000E+00  0.10738921950E+04  0.10738921950E+04  0.00000000000E+00 0.  1.
          2   -1    0    0  501    0  0.00000000000E+00 -0.00000000000E+00 -0.26120234732E+04  0.26120234732E+04  0.00000000000E+00 0. -1.
         23    2    1    2    0    0  0.85347033704E+03 -0.14147123825E+04 -0.47776723228E+03  0.17227053760E+04  0.98130233322E+02 0.  0.
         13    1    3    3    0    0  0.54819231049E+03 -0.81655027430E+03 -0.27607702884E+03  0.10215124500E+04  0.00000000000E+00 0. -1.
        -13    1    3    3    0    0  0.30527802655E+03 -0.59816210825E+03 -0.20169020344E+03  0.70119292595E+03  0.00000000000E+00 0.  1.
         22    1    1    2    0    0 -0.85347033704E+03  0.14147123825E+04 -0.10603640460E+04  0.19632102922E+04  0.00000000000E+00 0.  1.
<mgrwt>
<rscale>  0 0.33496457E+04</rscale>
<asrwt>0</asrwt>
<pdfrwt beam="1">  1        2 0.40184977E+00 0.33496457E+04</pdfrwt>
<pdfrwt beam="2">  1       -2 0.16521418E+00 0.33496457E+04</pdfrwt>
<totfact> 0.57441140E-01</totfact>
</mgrwt>
</event>
<event>
 6    1  0.1028026E-006  0.1384297E+04  0.7818608E-02  0.8965264E-01
          1   -1    0    0  501    0  0.00000000000E+00  0.00000000000E+00  0.12722289430E+04  0.12722289430E+04  0.00000000000E+00 0. -1.
         -1   -1    0    0    0  501 -0.00000000000E+00 -0.00000000000E+00 -0.37655931054E+03  0.37655931054E+03  0.00000000000E+00 0.  1.
         23    2    1    2    0    0 -0.43755072040E+03 -0.48578538777E+03  0.18943847915E+03  0.68639513335E+03  0.88392679558E+02 0.  0.
         13    1    3    3    0    0 -0.98239384017E+02 -0.11509198891E+03  0.83439589136E+02  0.17279845925E+03  0.00000000000E+00 0.  1.
        -13    1    3    3    0    0 -0.33931133639E+03 -0.37069339886E+03  0.10599889002E+03  0.51359667410E+03  0.00000000000E+00 0. -1.
         22    1    1    2    0    0  0.43755072040E+03  0.48578538777E+03  0.70623115329E+03  0.96239312019E+03  0.00000000000E+00 0.  1.
<mgrwt>
<rscale>  0 0.13842972E+04</rscale>
<asrwt>0</asrwt>
<pdfrwt beam="1">  1        1 0.19572753E+00 0.13842972E+04</pdfrwt>
<pdfrwt beam="2">  1       -1 0.57932202E-01 0.13842972E+04</pdfrwt>
<totfact> 0.27905691E+01</totfact>
</mgrwt>
</event>
<event>
 6    1  0.1028026E-006  0.9414725E+03  0.7818608E-02  0.9375174E-01
         -2   -1    0    0    0  501 -0.00000000000E+00  0.00000000000E+00  0.78571403221E+02  0.78571403221E+02  0.00000000000E+00 0.  1.
          2   -1    0    0  501    0  0.00000000000E+00 -0.00000000000E+00 -0.28202705855E+04  0.28202705855E+04  0.00000000000E+00 0. -1.
         23    2    1    2    0    0  0.31740610435E+03 -0.33999413645E+03 -0.15064613461E+04  0.15789347344E+04  0.85243536622E+02 0.  0.
         13    1    3    3    0    0  0.59974434653E+02 -0.42576358505E+02 -0.15815202373E+03  0.17441829527E+03  0.00000000000E+00 0. -1.
        -13    1    3    3    0    0  0.25743166970E+03 -0.29741777794E+03 -0.13483093223E+04  0.14045164392E+04  0.00000000000E+00 0.  1.
         22    1    1    2    0    0 -0.31740610435E+03  0.33999413645E+03 -0.12352378362E+04  0.13199072543E+04  0.00000000000E+00 0.  1.
<mgrwt>
<rscale>  0 0.94147250E+03</rscale>
<asrwt>0</asrwt>
<pdfrwt beam="1">  1        2 0.43388784E+00 0.94147250E+03</pdfrwt>
<pdfrwt beam="2">  1       -2 0.12087907E-01 0.94147250E+03</pdfrwt>
<totfact> 0.11610110E+02</totfact>
</mgrwt>
</event>
<event>
 6    1  0.1028026E-006  0.1421306E+04  0.7818608E-02  0.8938539E-01
          2   -1    0    0  501    0  0.00000000000E+00  0.00000000000E+00  0.10841420174E+04  0.10841420174E+04  0.00000000000E+00 0. -1.
         -2   -1    0    0    0  501 -0.00000000000E+00 -0.00000000000E+00 -0.46583173342E+03  0.46583173342E+03  0.00000000000E+00 0.  1.
         23    2    1    2    0    0 -0.47279067006E+02 -0.39123144608E+03 -0.33031813311E+03  0.52274776386E+03  0.94115891184E+02 0.  0.
         13    1    3    3    0    0  0.18733178560E+02 -0.10099547018E+03 -0.12178301461E+03  0.15931766890E+03  0.00000000000E+00 0.  1.
        -13    1    3    3    0    0 -0.66012245566E+02 -0.29023597590E+03 -0.20853511851E+03  0.36343009496E+03  0.00000000000E+00 0. -1.
         22    1    1    2    0    0  0.47279067006E+02  0.39123144608E+03  0.94862841707E+03  0.10272259869E+04  0.00000000000E+00 0. -1.
<mgrwt>
<rscale>  0 0.14213061E+04</rscale>
<asrwt>0</asrwt>
<pdfrwt beam="1">  1        2 0.16679108E+00 0.14213061E+04</pdfrwt>
<pdfrwt beam="2">  1       -2 0.71666421E-01 0.14213061E+04</pdfrwt>
<totfact> 0.38241078E+01</totfact>
</mgrwt>
</event>
<event>
 6    1  0.1028026E-006  0.2750266E+04  0.7818608E-02  0.8318877E-01
          2   -1    0    0  501    0  0.00000000000E+00  0.00000000000E+00  0.37486149045E+04  0.37486149045E+04  0.00000000000E+00 0. -1.
         -2   -1    0    0    0  501 -0.00000000000E+00 -0.00000000000E+00 -0.50445066819E+03  0.50445066819E+03  0.00000000000E+00 0.  1.
         23    2    1    2    0    0 -0.55659302149E+03  0.20716517305E+03 -0.29063430228E+03  0.66872268885E+03  0.10004267302E+03 0.  0.
         13    1    3    3    0    0 -0.38455860666E+03  0.17978997546E+03 -0.23834589057E+03  0.48684547937E+03  0.00000000000E+00 0. -1.
        -13    1    3    3    0    0 -0.17203441483E+03  0.27375197589E+02 -0.52288411719E+02  0.18187720949E+03  0.00000000000E+00 0.  1.
         22    1    1    2    0    0  0.55659302149E+03 -0.20716517305E+03  0.35347985386E+04  0.35843428838E+04  0.00000000000E+00 0. -1.
<mgrwt>
<rscale>  0 0.27502664E+04</rscale>
<asrwt>0</asrwt>
<pdfrwt beam="1">  1        2 0.57670997E+00 0.27502664E+04</pdfrwt>
<pdfrwt beam="2">  1       -2 0.77607797E-01 0.27502664E+04</pdfrwt>
<totfact> 0.69461601E-01</totfact>
</mgrwt>
</event>
<event>
 6    1  0.1028026E-006  0.1114218E+04  0.7818608E-02  0.9191444E-01
          1   -1    0    0  501    0  0.00000000000E+00  0.00000000000E+00  0.31648664241E+03  0.31648664241E+03  0.00000000000E+00 0. -1.
         -1   -1    0    0    0  501 -0.00000000000E+00 -0.00000000000E+00 -0.98067380660E+03  0.98067380660E+03  0.00000000000E+00 0.  1.
         23    2    1    2    0    0 -0.40921249237E+03 -0.23664466727E+03  0.46651903224E+00  0.48155019829E+03  0.91841240071E+02 0.  0.
         11    1    3    3    0    0 -0.16378165451E+02 -0.38000048745E+01  0.17903589938E+02  0.24560595947E+02  0.00000000000E+00 0.  1.
        -11    1    3    3    0    0 -0.39283432692E+03 -0.23284466239E+03 -0.17437070905E+02  0.45698960235E+03  0.00000000000E+00 0. -1.
         22    1    1    2    0    0  0.40921249237E+03  0.23664466727E+03 -0.66465368322E+03  0.81561025072E+03  0.00000000000E+00 0.  1.
<mgrwt>
<rscale>  0 0.11142175E+04</rscale>
<asrwt>0</asrwt>
<pdfrwt beam="1">  1        1 0.48690253E-01 0.11142175E+04</pdfrwt>
<pdfrwt beam="2">  1       -1 0.15087289E+00 0.11142175E+04</pdfrwt>
<totfact> 0.27955659E+01</totfact>
</mgrwt>
</event>
<event>
 6    1  0.1028026E-006  0.5420318E+04  0.7818608E-02  0.7766750E-01
          2   -1    0    0  501    0  0.00000000000E+00  0.00000000000E+00  0.40777792792E+04  0.40777792792E+04  0.00000000000E+00 0. -1.
         -2   -1    0    0    0  501 -0.00000000000E+00 -0.00000000000E+00 -0.18012162410E+04  0.18012162410E+04  0.00000000000E+00 0.  1.
         23    2    1    2    0    0 -0.34399653521E+03 -0.22138070815E+04 -0.51405317728E+03  0.23003345594E+04  0.89515394150E+02 0.  0.
         11    1    3    3    0    0 -0.32870285493E+02 -0.10114164502E+03 -0.15683075187E+02  0.10749905522E+03  0.00000000000E+00 0. -1.
        -11    1    3    3    0    0 -0.31112624971E+03 -0.21126654365E+04 -0.49837010210E+03  0.21928355042E+04  0.00000000000E+00 0.  1.
         22    1    1    2    0    0  0.34399653521E+03  0.22138070815E+04  0.27906162155E+04  0.35786609608E+04  0.00000000000E+00 0. -1.
<mgrwt>
<rscale>  0 0.54203182E+04</rscale>
<asrwt>0</asrwt>
<pdfrwt beam="1">  1        2 0.62735066E+00 0.54203182E+04</pdfrwt>
<pdfrwt beam="2">  1       -2 0.27711019E+00 0.54203182E+04</pdfrwt>
<totfact> 0.90701447E-03</totfact>
</mgrwt>
</event>
<event>
 6    1  0.1028026E-006  0.5148684E+03  0.7818608E-02  0.1009969E+00
         -1   -1    0    0    0  501 -0.00000000000E+00  0.00000000000E+00  0.14028221384E+03  0.14028221384E+03  0.00000000000E+00 0.  1.
          1   -1    0    0  501    0  0.00000000000E+00 -0.00000000000E+00 -0.47242182502E+03  0.47242182502E+03  0.00000000000E+00 0. -1.
         23    2    1    2    0    0 -0.11679155484E+03 -0.19248896130E+03 -0.43357731796E+02  0.24652479126E+03  0.90566618002E+02 0.  0.
         13    1    3    3    0    0 -0.96388374627E+02 -0.78216174601E+02 -0.39926670474E+02  0.13039412467E+03  0.00000000000E+00 0.  1.
        -13    1    3    3    0    0 -0.20403180218E+02 -0.11427278670E+03 -0.34310613215E+01  0.11613066660E+03  0.00000000000E+00 0. -1.
         22    1    1    2    0    0  0.11679155484E+03  0.19248896130E+03 -0.28878187939E+03  0.36617924759E+03  0.00000000000E+00 0. -1.
<mgrwt>
<rscale>  0 0.51486845E+03</rscale>
<asrwt>0</asrwt>
<pdfrwt beam="1">  1        1 0.72680283E-01 0.51486845E+03</pdfrwt>
<pdfrwt beam="2">  1       -1 0.21581879E-01 0.51486845E+03</pdfrwt>
<totfact> 0.86673388E+02</totfact>
</mgrwt>
</event>
<event>
 6    1  0.1028026E-006  0.2219843E+04  0.7818608E-02  0.8510214E-01
          2   -1    0    0  501    0  0.00000000000E+00  0.00000000000E+00  0.22012549663E+04  0.22012549663E+04  0.00000000000E+00 0. -1.
         -2   -1    0    0    0  501 -0.00000000000E+00 -0.00000000000E+00 -0.55964690611E+03  0.55964690611E+03  0.00000000000E+00 0.  1.
         23    2    1    2    0    0  0.22826746905E+03  0.10206896055E+04  0.12771139770E+04  0.16533057164E+04  0.92121514164E+02 0.  0.
         11    1    3    3    0    0  0.18836898946E+03  0.65370563446E+03  0.80330759200E+03  0.10526713733E+04  0.00000000000E+00 0.  1.
        -11    1    3    3    0    0  0.39898479597E+02  0.36698397105E+03  0.47380638496E+03  0.60063434309E+03  0.00000000000E+00 0. -1.
         22    1    1    2    0    0 -0.22826746905E+03 -0.10206896055E+04  0.36449408325E+03  0.11075961561E+04  0.00000000000E+00 0.  1.
<mgrwt>
<rscale>  0 0.22198428E+04</rscale>
<asrwt>0</asrwt>
<pdfrwt beam="1">  1        2 0.33865461E+00 0.22198428E+04</pdfrwt>
<pdfrwt beam="2">  1       -2 0.86099525E-01 0.22198428E+04</pdfrwt>
<totfact> 0.55040108E+00</totfact>
</mgrwt>
</event>
<event>
 6    1  0.1028026E-006  0.2651646E+04  0.7818608E-02  0.8350867E-01
          2   -1    0    0  501    0  0.00000000000E+00  0.00000000000E+00  0.28682838330E+04  0.28682838330E+04  0.00000000000E+00 0. -1.
         -2   -1    0    0    0  501 -0.00000000000E+00 -0.00000000000E+00 -0.61284277725E+03  0.61284277725E+03  0.00000000000E+00 0.  1.
         23    2    1    2    0    0 -0.67246618594E+03  0.84988606108E+03  0.21280812236E+04  0.23899173659E+04  0.91968656864E+02 0.  0.
         13    1    3    3    0    0 -0.84575735562E+02  0.11202478506E+03  0.21341123417E+03  0.25543484959E+03  0.00000000000E+00 0.  1.
        -13    1    3    3    0    0 -0.58789045037E+03  0.73786127602E+03  0.19146699894E+04  0.21344825164E+04  0.00000000000E+00 0. -1.
         22    1    1    2    0    0  0.67246618594E+03 -0.84988606108E+03  0.12735983220E+03  0.10912092443E+04  0.00000000000E+00 0.  1.
<mgrwt>
<rscale>  0 0.26516463E+04</rscale>
<asrwt>0</asrwt>
<pdfrwt beam="1">  1        2 0.44127443E+00 0.26516463E+04</pdfrwt>
<pdfrwt beam="2">  1       -2 0.94283506E-01 0.26516463E+04</pdfrwt>
<totfact> 0.17552785E+00</totfact>
</mgrwt>
</event>
<event>
 6    1  0.1028026E-006  0.3460164E+04  0.7818608E-02  0.8123296E-01
         -2   -1    0    0    0  501 -0.00000000000E+00  0.00000000000E+00  0.96481903369E+03  0.96481903369E+03  0.00000000000E+00 0.  1.
          2   -1    0    0  501    0  0.00000000000E+00 -0.00000000000E+00 -0.31023260042E+04  0.31023260042E+04  0.00000000000E+00 0. -1.
         23    2    1    2    0    0 -0.95412075756E+03 -0.65963178914E+02 -0.27623414090E+04  0.29247284604E+04  0.93855988411E+02 0.  0.
         13    1    3    3    0    0 -0.20987968580E+03  0.22570413872E+02 -0.57213981147E+03  0.60983839660E+03  0.00000000000E+00 0. -1.
        -13    1    3    3    0    0 -0.74424107176E+03 -0.88533592786E+02 -0.21902015975E+04  0.23148900638E+04  0.00000000000E+00 0.  1.
         22    1    1    2    0    0  0.95412075756E+03  0.65963178914E+02  0.62483443846E+03  0.11424165775E+04  0.00000000000E+00 0.  1.
<mgrwt>
<rscale>  0 0.34601637E+04</rscale>
<asrwt>0</asrwt>
<pdfrwt beam="1">  1        2 0.47728093E+00 0.34601637E+04</pdfrwt>
<pdfrwt beam="2">  1       -2 0.14843370E+00 0.34601637E+04</pdfrwt>
<totfact> 0.38054098E-01</totfact>
</mgrwt>
</event>
<event>
 6    1  0.1028026E-006  0.2234509E+04  0.7818608E-02  0.8504200E-01
         -2   -1    0    0    0  501 -0.00000000000E+00  0.00000000000E+00  0.43397476910E+03  0.43397476910E+03  0.00000000000E+00 0.  1.
          2   -1    0    0  501    0  0.00000000000E+00 -0.00000000000E+00 -0.28763375193E+04  0.28763375193E+04  0.00000000000E+00 0. -1.
         23    2    1    2    0    0 -0.53688010853E+03  0.48921930976E+02  0.22363137487E+03  0.59035672236E+03  0.88749431228E+02 0.  0.
         11    1    3    3    0    0 -0.17408362483E+03  0.67164303777E+01  0.29388348759E+02  0.17667454235E+03  0.00000000000E+00 0. -1.
        -11    1    3    3    0    0 -0.36279648370E+03  0.42205500598E+02  0.19424302612E+03  0.41368218001E+03  0.00000000000E+00 0.  1.
         22    1    1    2    0    0  0.53688010853E+03 -0.48921930976E+02 -0.26659941251E+04  0.27199555660E+04  0.00000000000E+00 0. -1.
<mgrwt>
<rscale>  0 0.22345093E+04</rscale>
<asrwt>0</asrwt>
<pdfrwt beam="1">  1        2 0.44251345E+00 0.22345093E+04</pdfrwt>
<pdfrwt beam="2">  1       -2 0.66765351E-01 0.22345093E+04</pdfrwt>
<totfact> 0.39043904E+00</totfact>
</mgrwt>
</event>
<event>
 6    1  0.1028026E-006  0.2898833E+04  0.7818608E-02  0.8273225E-01
         -1   -1    0    0    0  501 -0.00000000000E+00  0.00000000000E+00  0.10631605991E+04  0.10631605991E+04  0.00000000000E+00 0.  1.
          1   -1    0    0  501    0  0.00000000000E+00 -0.00000000000E+00 -0.19760032539E+04  0.19760032539E+04  0.00000000000E+00 0. -1.
         23    2    1    2    0    0  0.14466351786E+04 -0.46822844309E+02 -0.49917931894E+03  0.15338190173E+04  0.92060125853E+02 0.  0.
         13    1    3    3    0    0  0.66669693989E+03 -0.13758560590E+02 -0.27786477970E+03  0.72241466170E+03  0.00000000000E+00 0.  1.
        -13    1    3    3    0    0  0.77993823869E+03 -0.33064283718E+02 -0.22131453925E+03  0.81140435562E+03  0.00000000000E+00 0. -1.
         22    1    1    2    0    0 -0.14466351786E+04  0.46822844309E+02 -0.41366333587E+03  0.15053448356E+04  0.00000000000E+00 0. -1.
<mgrwt>
<rscale>  0 0.28988334E+04</rscale>
<asrwt>0</asrwt>
<pdfrwt beam="1">  1        1 0.30400050E+00 0.28988334E+04</pdfrwt>
<pdfrwt beam="2">  1       -1 0.16356317E+00 0.28988334E+04</pdfrwt>
<totfact> 0.72956483E-01</totfact>
</mgrwt>
</event>
<event>
 6    1  0.1028026E-006  0.1650728E+04  0.7818608E-02  0.8789976E-01
         -2   -1    0    0    0  501 -0.00000000000E+00  0.00000000000E+00  0.36961038484E+03  0.36961038484E+03  0.00000000000E+00 0.  1.
          2   -1    0    0  501    0  0.00000000000E+00 -0.00000000000E+00 -0.18430913810E+04  0.18430913810E+04  0.00000000000E+00 0. -1.
         23    2    1    2    0    0 -0.25189736766E+03  0.78179456777E+03 -0.80763519139E+03  0.11553438956E+04  0.88825022887E+02 0.  0.
         11    1    3    3    0    0 -0.17447819120E+03  0.42553672489E+03 -0.48681834835E+03  0.66971355647E+03  0.00000000000E+00 0. -1.
        -11    1    3    3    0    0 -0.77419176454E+02  0.35625784288E+03 -0.32081684304E+03  0.48563033912E+03  0.00000000000E+00 0.  1.
         22    1    1    2    0    0  0.25189736766E+03 -0.78179456777E+03 -0.66584580477E+03  0.10573578702E+04  0.00000000000E+00 0. -1.
<mgrwt>
<rscale>  0 0.16507280E+04</rscale>
<asrwt>0</asrwt>
<pdfrwt beam="1">  1        2 0.28355252E+00 0.16507280E+04</pdfrwt>
<pdfrwt beam="2">  1       -2 0.56863136E-01 0.16507280E+04</pdfrwt>
<totfact> 0.22620697E+01</totfact>
</mgrwt>
</event>
<event>
 6    1  0.1028026E-006  0.2242456E+04  0.7818608E-02  0.8500962E-01
         -2   -1    0    0    0  501 -0.00000000000E+00  0.00000000000E+00  0.75821932115E+03  0.75821932115E+03  0.00000000000E+00 0.  1.
          2   -1    0    0  501    0  0.00000000000E+00 -0.00000000000E+00 -0.16580320960E+04  0.16580320960E+04  0.00000000000E+00 0. -1.
         23    2    1    2    0    0 -0.93773333106E+03  0.38939963072E+03  0.56960109972E+02  0.10211205180E+04  0.92015138049E+02 0.  0.
         11    1    3    3    0    0 -0.32272193185E+03  0.17115798614E+03  0.48276724230E+02  0.36847678843E+03  0.00000000000E+00 0. -1.
        -11    1    3    3    0    0 -0.61501139921E+03  0.21824164458E+03  0.86833857426E+01  0.65264372959E+03  0.00000000000E+00 0.  1.
         22    1    1    2    0    0  0.93773333106E+03 -0.38939963072E+03 -0.95677288485E+03  0.13951308992E+04  0.00000000000E+00 0. -1.
<mgrwt>
<rscale>  0 0.22424558E+04</rscale>
<asrwt>0</asrwt>
<pdfrwt beam="1">  1        2 0.25508186E+00 0.22424558E+04</pdfrwt>
<pdfrwt beam="2">  1       -2 0.11664913E+00 0.22424558E+04</pdfrwt>
<totfact> 0.53689388E+00</totfact>
</mgrwt>
</event>
<event>
 6    1  0.1028026E-006  0.1288195E+04  0.7818608E-02  0.9038979E-01
         -1   -1    0    0    0  501 -0.00000000000E+00  0.00000000000E+00  0.77412977418E+03  0.77412977418E+03  0.00000000000E+00 0.  1.
          1   -1    0    0  501    0  0.00000000000E+00 -0.00000000000E+00 -0.53590738612E+03  0.53590738612E+03  0.00000000000E+00 0. -1.
         23    2    1    2    0    0  0.47088433371E+03 -0.60189319319E+02  0.55771668491E+03  0.73782092878E+03  0.89314122284E+02 0.  0.
         13    1    3    3    0    0  0.27245267543E+03 -0.23232891683E+02  0.25439837677E+03  0.37348194294E+03  0.00000000000E+00 0. -1.
        -13    1    3    3    0    0  0.19843165828E+03 -0.36956427636E+02  0.30331830814E+03  0.36433898584E+03  0.00000000000E+00 0.  1.
         22    1    1    2    0    0 -0.47088433371E+03  0.60189319319E+02 -0.31949429684E+03  0.57221623151E+03  0.00000000000E+00 0. -1.
<mgrwt>
<rscale>  0 0.12881954E+04</rscale>
<asrwt>0</asrwt>
<pdfrwt beam="1">  1        1 0.82447290E-01 0.12881954E+04</pdfrwt>
<pdfrwt beam="2">  1       -1 0.11909689E+00 0.12881954E+04</pdfrwt>
<totfact> 0.24964007E+01</totfact>
</mgrwt>
</event>
<event>
 6    1  0.1028026E-006  0.2155381E+04  0.7818608E-02  0.8537232E-01
          3   -1    0    0  501    0  0.00000000000E+00  0.00000000000E+00  0.16024130457E+04  0.16024130457E+04  0.00000000000E+00 0. -1.
         -3   -1    0    0    0  501 -0.00000000000E+00 -0.00000000000E+00 -0.72479237557E+03  0.72479237557E+03  0.00000000000E+00 0.  1.
         23    2    1    2    0    0  0.46396181632E+02  0.10573681454E+04  0.64741549571E+03  0.12440736551E+04  0.91610232704E+02 0.  0.
         13    1    3    3    0    0  0.16480202553E+02  0.69046869467E+03  0.37317954236E+03  0.78503604136E+03  0.00000000000E+00 0.  1.
        -13    1    3    3    0    0  0.29915979079E+02  0.36689945070E+03  0.27423595335E+03  0.45903761375E+03  0.00000000000E+00 0. -1.
         22    1    1    2    0    0 -0.46396181632E+02 -0.10573681454E+04  0.23020517442E+03  0.10831317662E+04  0.00000000000E+00 0.  1.
<mgrwt>
<rscale>  0 0.21553809E+04</rscale>
<asrwt>0</asrwt>
<pdfrwt beam="1">  1        3 0.24652508E+00 0.21553809E+04</pdfrwt>
<pdfrwt beam="2">  1       -3 0.11150652E+00 0.21553809E+04</pdfrwt>
<totfact> 0.12509013E-01</totfact>
</mgrwt>
</event>
<event>
 6    1  0.1028026E-006  0.5906812E+04  0.7818608E-02  0.7702064E-01
         -2   -1    0    0    0  501 -0.00000000000E+00  0.00000000000E+00  0.19713837537E+04  0.19713837537E+04  0.00000000000E+00 0.  1.
          2   -1    0    0  501    0  0.00000000000E+00 -0.00000000000E+00 -0.44246119382E+04  0.44246119382E+04  0.00000000000E+00 0. -1.
         23    2    1    2    0    0  0.16578992590E+04 -0.66269325012E+03 -0.37733880146E+04  0.41754970376E+04  0.92336915496E+02 0.  0.
         11    1    3    3    0    0  0.10440326513E+03 -0.66886673105E+02 -0.26334055488E+03  0.29107063860E+03  0.00000000000E+00 0.  1.
        -11    1    3    3    0    0  0.15534959939E+04 -0.59580657701E+03 -0.35100474597E+04  0.38844263990E+04  0.00000000000E+00 0. -1.
         22    1    1    2    0    0 -0.16578992590E+04  0.66269325012E+03  0.13201598301E+04  0.22204986543E+04  0.00000000000E+00 0.  1.
<mgrwt>
<rscale>  0 0.59068124E+04</rscale>
<asrwt>0</asrwt>
<pdfrwt beam="1">  1        2 0.68070952E+00 0.59068124E+04</pdfrwt>
<pdfrwt beam="2">  1       -2 0.30328981E+00 0.59068124E+04</pdfrwt>
<totfact> 0.29615548E-03</totfact>
</mgrwt>
</event>
<event>
 6    1  0.1028026E-006  0.2993896E+04  0.7818608E-02  0.8245476E-01
         -2   -1    0    0    0  501 -0.00000000000E+00  0.00000000000E+00  0.15018777137E+04  0.15018777137E+04  0.00000000000E+00 0.  1.
          2   -1    0    0  501    0  0.00000000000E+00 -0.00000000000E+00 -0.14920340917E+04  0.14920340917E+04  0.00000000000E+00 0. -1.
         23    2    1    2    0    0 -0.53175608554E+03 -0.81544921570E+03  0.11403380937E+04  0.15020204862E+04  0.89289502974E+02 0.  0.
         11    1    3    3    0    0 -0.38217614497E+03 -0.52405215669E+03  0.79569533075E+03  0.10265575133E+04  0.00000000000E+00 0. -1.
        -11    1    3    3    0    0 -0.14957994056E+03 -0.29139705901E+03  0.34464276291E+03  0.47546297295E+03  0.00000000000E+00 0.  1.
         22    1    1    2    0    0  0.53175608554E+03  0.81544921570E+03 -0.11304944716E+04  0.14918913192E+04  0.00000000000E+00 0. -1.
<mgrwt>
<rscale>  0 0.29938956E+04</rscale>
<asrwt>0</asrwt>
<pdfrwt beam="1">  1        2 0.22954371E+00 0.29938956E+04</pdfrwt>
<pdfrwt beam="2">  1       -2 0.23105811E+00 0.29938956E+04</pdfrwt>
<totfact> 0.92503233E-01</totfact>
</mgrwt>
</event>
<event>
 6    1  0.1028026E-006  0.2255406E+04  0.7818608E-02  0.8495714E-01
         -2   -1    0    0    0  501 -0.00000000000E+00  0.00000000000E+00  0.91979759858E+03  0.91979759858E+03  0.00000000000E+00 0.  1.
          2   -1    0    0  501    0  0.00000000000E+00 -0.00000000000E+00 -0.13826021435E+04  0.13826021435E+04  0.00000000000E+00 0. -1.
         23    2    1    2    0    0  0.14119611592E+03  0.77332673105E+03  0.59131158951E+03  0.98743533153E+03  0.86073003642E+02 0.  0.
         13    1    3    3    0    0  0.19533249370E+02  0.72554213230E+02  0.90117844472E+02  0.11733238078E+03  0.00000000000E+00 0.  1.
        -13    1    3    3    0    0  0.12166286655E+03  0.70077251782E+03  0.50119374504E+03  0.87010295075E+03  0.00000000000E+00 0. -1.
         22    1    1    2    0    0 -0.14119611592E+03 -0.77332673105E+03 -0.10541161344E+04  0.13149644105E+04  0.00000000000E+00 0. -1.
<mgrwt>
<rscale>  0 0.22554061E+04</rscale>
<asrwt>0</asrwt>
<pdfrwt beam="1">  1        2 0.21270802E+00 0.22554061E+04</pdfrwt>
<pdfrwt beam="2">  1       -2 0.14150732E+00 0.22554061E+04</pdfrwt>
<totfact> 0.47067271E+00</totfact>
</mgrwt>
</event>
<event>
 6    1  0.1028026E-006  0.2834984E+04  0.7818608E-02  0.8292489E-01
          2   -1    0    0  501    0  0.00000000000E+00  0.00000000000E+00  0.20960406121E+04  0.20960406121E+04  0.00000000000E+00 0. -1.
         -2   -1    0    0    0  501 -0.00000000000E+00 -0.00000000000E+00 -0.95860901328E+03  0.95860901328E+03  0.00000000000E+00 0.  1.
         23    2    1    2    0    0  0.59387273254E+03 -0.87232187928E+03 -0.44823785779E+03  0.11499244722E+04  0.88197681821E+02 0.  0.
         11    1    3    3    0    0  0.42989029045E+03 -0.56760369854E+03 -0.27925290544E+03  0.76482795818E+03  0.00000000000E+00 0. -1.
        -11    1    3    3    0    0  0.16398244209E+03 -0.30471818074E+03 -0.16898495234E+03  0.38509651402E+03  0.00000000000E+00 0.  1.
         22    1    1    2    0    0 -0.59387273254E+03  0.87232187928E+03  0.15856694566E+04  0.19047251531E+04  0.00000000000E+00 0. -1.
<mgrwt>
<rscale>  0 0.28349839E+04</rscale>
<asrwt>0</asrwt>
<pdfrwt beam="1">  1        2 0.32246779E+00 0.28349839E+04</pdfrwt>
<pdfrwt beam="2">  1       -2 0.14747831E+00 0.28349839E+04</pdfrwt>
<totfact> 0.16058644E+00</totfact>
</mgrwt>
</event>
<event>
 6    1  0.1028026E-006  0.2013610E+04  0.7818608E-02  0.8600284E-01
          2   -1    0    0  501    0  0.00000000000E+00  0.00000000000E+00  0.25227472013E+04  0.25227472013E+04  0.00000000000E+00 0. -1.
         -2   -1    0    0    0  501 -0.00000000000E+00 -0.00000000000E+00 -0.40180658099E+03  0.40180658099E+03  0.00000000000E+00 0.  1.
         23    2    1    2    0    0 -0.57445712417E+03  0.77540537355E+03  0.14685152969E+04  0.17596875738E+04  0.93320413642E+02 0.  0.
         11    1    3    3    0    0 -0.46245633295E+03  0.56350347966E+03  0.11365423128E+04  0.13502334836E+04  0.00000000000E+00 0. -1.
        -11    1    3    3    0    0 -0.11200079122E+03  0.21190189388E+03  0.33197298406E+03  0.40945409024E+03  0.00000000000E+00 0.  1.
         22    1    1    2    0    0  0.57445712417E+03 -0.77540537355E+03  0.65242532341E+03  0.11648662084E+04  0.00000000000E+00 0. -1.
<mgrwt>
<rscale>  0 0.20136101E+04</rscale>
<asrwt>0</asrwt>
<pdfrwt beam="1">  1        2 0.38811494E+00 0.20136101E+04</pdfrwt>
<pdfrwt beam="2">  1       -2 0.61816399E-01 0.20136101E+04</pdfrwt>
<totfact> 0.76225765E+00</totfact>
</mgrwt>
</event>
<event>
 6    1  0.1028026E-006  0.4013005E+04  0.7818608E-02  0.8001928E-01
         -1   -1    0    0    0  501 -0.00000000000E+00  0.00000000000E+00  0.26206933136E+04  0.26206933136E+04  0.00000000000E+00 0.  1.
          1   -1    0    0  501    0  0.00000000000E+00 -0.00000000000E+00 -0.15362548473E+04  0.15362548473E+04  0.00000000000E+00 0. -1.
         23    2    1    2    0    0  0.15124404131E+04  0.92365569975E+03 -0.42988020996E+03  0.18259018490E+04  0.92220997730E+02 0.  0.
         11    1    3    3    0    0  0.28200068598E+03  0.13638197358E+03 -0.58180125722E+02  0.31860533053E+03  0.00000000000E+00 0. -1.
        -11    1    3    3    0    0  0.12304397271E+04  0.78727372617E+03 -0.37170008423E+03  0.15072965185E+04  0.00000000000E+00 0.  1.
         22    1    1    2    0    0 -0.15124404131E+04 -0.92365569975E+03  0.15143186762E+04  0.23310463119E+04  0.00000000000E+00 0.  1.
<mgrwt>
<rscale>  0 0.40130053E+04</rscale>
<asrwt>0</asrwt>
<pdfrwt beam="1">  1        1 0.23634690E+00 0.40130053E+04</pdfrwt>
<pdfrwt beam="2">  1       -1 0.40318359E+00 0.40130053E+04</pdfrwt>
<totfact> 0.32819783E-02</totfact>
</mgrwt>
</event>
<event>
 6    1  0.1028026E-006  0.1688082E+04  0.7818608E-02  0.8768191E-01
          2   -1    0    0  501    0  0.00000000000E+00  0.00000000000E+00  0.12940214225E+04  0.12940214225E+04  0.00000000000E+00 0. -1.
         -2   -1    0    0    0  501 -0.00000000000E+00 -0.00000000000E+00 -0.55053605962E+03  0.55053605962E+03  0.00000000000E+00 0.  1.
         23    2    1    2    0    0  0.76276058795E+03  0.19483074546E+02 -0.15623483121E+02  0.76825383314E+03  0.88241453869E+02 0.  0.
         13    1    3    3    0    0  0.40784780950E+03  0.54159865142E+02 -0.13315089309E+02  0.41164355735E+03  0.00000000000E+00 0.  1.
        -13    1    3    3    0    0  0.35491277846E+03 -0.34676790597E+02 -0.23083938115E+01  0.35661027579E+03  0.00000000000E+00 0. -1.
         22    1    1    2    0    0 -0.76276058795E+03 -0.19483074546E+02  0.75910884599E+03  0.10763036490E+04  0.00000000000E+00 0. -1.
<mgrwt>
<rscale>  0 0.16880823E+04</rscale>
<asrwt>0</asrwt>
<pdfrwt beam="1">  1        2 0.19908022E+00 0.16880823E+04</pdfrwt>
<pdfrwt beam="2">  1       -2 0.84697856E-01 0.16880823E+04</pdfrwt>
<totfact> 0.19282433E+01</totfact>
</mgrwt>
</event>
<event>
 6    1  0.1028026E-006  0.1200269E+04  0.7818608E-02  0.9112621E-01
         -2   -1    0    0    0  501 -0.00000000000E+00  0.00000000000E+00  0.52069097291E+03  0.52069097291E+03  0.00000000000E+00 0.  1.
          2   -1    0    0  501    0  0.00000000000E+00 -0.00000000000E+00 -0.69169892276E+03  0.69169892276E+03  0.00000000000E+00 0. -1.
         23    2    1    2    0    0  0.36037433732E+03  0.45216214833E+03 -0.23458273548E+03  0.63070095409E+03  0.91838784425E+02 0.  0.
         13    1    3    3    0    0  0.20310685466E+03  0.32467281486E+03 -0.15662053651E+03  0.41375696197E+03  0.00000000000E+00 0.  1.
        -13    1    3    3    0    0  0.15726748266E+03  0.12748933347E+03 -0.77962198965E+02  0.21694399213E+03  0.00000000000E+00 0. -1.
         22    1    1    2    0    0 -0.36037433732E+03 -0.45216214833E+03  0.63574785615E+02  0.58168894158E+03  0.00000000000E+00 0.  1.
<mgrwt>
<rscale>  0 0.12002689E+04</rscale>
<asrwt>0</asrwt>
<pdfrwt beam="1">  1        2 0.10641522E+00 0.12002689E+04</pdfrwt>
<pdfrwt beam="2">  1       -2 0.80106304E-01 0.12002689E+04</pdfrwt>
<totfact> 0.56595424E+01</totfact>
</mgrwt>
</event>
<event>
 6    1  0.1028026E-006  0.3524498E+04  0.7818608E-02  0.8108009E-01
         -2   -1    0    0    0  501 -0.00000000000E+00  0.00000000000E+00  0.12454240171E+04  0.12454240171E+04  0.00000000000E+00 0.  1.
          2   -1    0    0  501    0  0.00000000000E+00 -0.00000000000E+00 -0.24935453089E+04  0.24935453089E+04  0.00000000000E+00 0. -1.
         23    2    1    2    0    0 -0.17514625279E+04  0.50596992139E+01 -0.42975014944E+03  0.18057394085E+04  0.91449621658E+02 0.  0.
         13    1    3    3    0    0 -0.12700564101E+04 -0.11179230009E+02 -0.35052893983E+03  0.13175882504E+04  0.00000000000E+00 0. -1.
        -13    1    3    3    0    0 -0.48140611782E+03  0.16238929223E+02 -0.79221209607E+02  0.48815115809E+03  0.00000000000E+00 0.  1.
         22    1    1    2    0    0  0.17514625279E+04 -0.50596992139E+01 -0.81837114240E+03  0.19332299175E+04  0.00000000000E+00 0. -1.
<mgrwt>
<rscale>  0 0.35244978E+04</rscale>
<asrwt>0</asrwt>
<pdfrwt beam="1">  1        2 0.38362236E+00 0.35244978E+04</pdfrwt>
<pdfrwt beam="2">  1       -2 0.19160369E+00 0.35244978E+04</pdfrwt>
<totfact> 0.43536574E-01</totfact>
</mgrwt>
</event>
<event>
 6    1  0.1028026E-006  0.2396735E+04  0.7818608E-02  0.8440727E-01
          2   -1    0    0  501    0  0.00000000000E+00  0.00000000000E+00  0.33534627573E+04  0.33534627573E+04  0.00000000000E+00 0. -1.
         -2   -1    0    0    0  501 -0.00000000000E+00 -0.00000000000E+00 -0.42823921881E+03  0.42823921881E+03  0.00000000000E+00 0.  1.
         23    2    1    2    0    0  0.25446039346E+03 -0.11385952968E+04  0.10451584369E+04  0.15690578277E+04  0.91852961814E+02 0.  0.
         11    1    3    3    0    0  0.23500840066E+03 -0.99520722317E+03  0.95078089215E+03  0.13962989187E+04  0.00000000000E+00 0. -1.
        -11    1    3    3    0    0  0.19451992792E+02 -0.14338807359E+03  0.94377544799E+02  0.17275890899E+03  0.00000000000E+00 0.  1.
         22    1    1    2    0    0 -0.25446039346E+03  0.11385952968E+04  0.18800651015E+04  0.22126441484E+04  0.00000000000E+00 0. -1.
<mgrwt>
<rscale>  0 0.23967347E+04</rscale>
<asrwt>0</asrwt>
<pdfrwt beam="1">  1        2 0.51591733E+00 0.23967347E+04</pdfrwt>
<pdfrwt beam="2">  1       -2 0.65882959E-01 0.23967347E+04</pdfrwt>
<totfact> 0.19587208E+00</totfact>
</mgrwt>
</event>
<event>
 6    1  0.1028026E-006  0.1649054E+04  0.7818608E-02  0.8790966E-01
         -1   -1    0    0    0  501 -0.00000000000E+00  0.00000000000E+00  0.62825888368E+03  0.62825888368E+03  0.00000000000E+00 0.  1.
          1   -1    0    0  501    0  0.00000000000E+00 -0.00000000000E+00 -0.10821095837E+04  0.10821095837E+04  0.00000000000E+00 0. -1.
         23    2    1    2    0    0 -0.40702783850E+03  0.62619807171E+03 -0.58397919406E+03  0.95225956277E+03  0.89279837939E+02 0.  0.
         13    1    3    3    0    0 -0.12811640437E+03  0.21703780680E+03 -0.14654489206E+03  0.29153838175E+03  0.00000000000E+00 0.  1.
        -13    1    3    3    0    0 -0.27891143413E+03  0.40916026491E+03 -0.43743430200E+03  0.66072118102E+03  0.00000000000E+00 0. -1.
         22    1    1    2    0    0  0.40702783850E+03 -0.62619807171E+03  0.13012849401E+03  0.75810890463E+03  0.00000000000E+00 0.  1.
<mgrwt>
<rscale>  0 0.16490542E+04</rscale>
<asrwt>0</asrwt>
<pdfrwt beam="1">  1        1 0.16647840E+00 0.16490542E+04</pdfrwt>
<pdfrwt beam="2">  1       -1 0.96655213E-01 0.16490542E+04</pdfrwt>
<totfact> 0.12875389E+01</totfact>
</mgrwt>
</event>
<event>
 6    1  0.1028026E-006  0.1535532E+04  0.7818608E-02  0.8861162E-01
         -2   -1    0    0    0  501 -0.00000000000E+00  0.00000000000E+00  0.41676996726E+03  0.41676996726E+03  0.00000000000E+00 0.  1.
          2   -1    0    0  501    0  0.00000000000E+00 -0.00000000000E+00 -0.14143651320E+04  0.14143651320E+04  0.00000000000E+00 0. -1.
         23    2    1    2    0    0  0.55568558172E+03 -0.51071614079E+03 -0.35228911433E+03  0.83814096992E+03  0.93569349603E+02 0.  0.
         13    1    3    3    0    0  0.25289462028E+03 -0.29124924462E+03 -0.19835429766E+03  0.43373521745E+03  0.00000000000E+00 0.  1.
        -13    1    3    3    0    0  0.30279096144E+03 -0.21946689618E+03 -0.15393481666E+03  0.40440575247E+03  0.00000000000E+00 0. -1.
         22    1    1    2    0    0 -0.55568558172E+03  0.51071614079E+03 -0.64530605041E+03  0.99299412933E+03  0.00000000000E+00 0. -1.
<mgrwt>
<rscale>  0 0.15355324E+04</rscale>
<asrwt>0</asrwt>
<pdfrwt beam="1">  1        2 0.21759464E+00 0.15355324E+04</pdfrwt>
<pdfrwt beam="2">  1       -2 0.64118456E-01 0.15355324E+04</pdfrwt>
<totfact> 0.30758662E+01</totfact>
</mgrwt>
</event>
<event>
 6    1  0.1028026E-006  0.1950795E+04  0.7818608E-02  0.8629977E-01
          2   -1    0    0  501    0  0.00000000000E+00  0.00000000000E+00  0.17904581364E+04  0.17904581364E+04  0.00000000000E+00 0. -1.
         -2   -1    0    0    0  501 -0.00000000000E+00 -0.00000000000E+00 -0.53137266151E+03  0.53137266151E+03  0.00000000000E+00 0.  1.
         23    2    1    2    0    0  0.39046434244E+03 -0.65580804946E+03  0.13493204261E+04  0.15532678877E+04  0.97102617067E+02 0.  0.
         13    1    3    3    0    0  0.10282450504E+03 -0.17195667346E+03  0.27285495905E+03  0.33851411353E+03  0.00000000000E+00 0.  1.
        -13    1    3    3    0    0  0.28763983740E+03 -0.48385137600E+03  0.10764654671E+04  0.12147537742E+04  0.00000000000E+00 0. -1.
         22    1    1    2    0    0 -0.39046434244E+03  0.65580804946E+03 -0.90234951247E+02  0.76856291017E+03  0.00000000000E+00 0.  1.
<mgrwt>
<rscale>  0 0.19507952E+04</rscale>
<asrwt>0</asrwt>
<pdfrwt beam="1">  1        2 0.27545509E+00 0.19507952E+04</pdfrwt>
<pdfrwt beam="2">  1       -2 0.81749641E-01 0.19507952E+04</pdfrwt>
<totfact> 0.10724703E+01</totfact>
</mgrwt>
</event>
<event>
 6    1  0.1028026E-006  0.1450462E+04  0.7818608E-02  0.8918081E-01
         -2   -1    0    0    0  501 -0.00000000000E+00  0.00000000000E+00  0.17753923119E+03  0.17753923119E+03  0.00000000000E+00 0.  1.
          2   -1    0    0  501    0  0.00000000000E+00 -0.00000000000E+00 -0.29624984572E+04  0.29624984572E+04  0.00000000000E+00 0. -1.
         23    2    1    2    0    0 -0.85607336105E+02  0.67798878813E+03 -0.19047829846E+04  0.20257183317E+04  0.91318826005E+02 0.  0.
         11    1    3    3    0    0 -0.40134941925E+00  0.17626017303E+03 -0.59434680430E+03  0.61993220069E+03  0.00000000000E+00 0. -1.
        -11    1    3    3    0    0 -0.85205986686E+02  0.50172861510E+03 -0.13104361803E+04  0.14057861310E+04  0.00000000000E+00 0.  1.
         22    1    1    2    0    0  0.85607336105E+02 -0.67798878813E+03 -0.88017624134E+03  0.11143193567E+04  0.00000000000E+00 0.  1.
<mgrwt>
<rscale>  0 0.14504616E+04</rscale>
<asrwt>0</asrwt>
<pdfrwt beam="1">  1        2 0.45576900E+00 0.14504616E+04</pdfrwt>
<pdfrwt beam="2">  1       -2 0.27313728E-01 0.14504616E+04</pdfrwt>
<totfact> 0.21916296E+01</totfact>
</mgrwt>
</event>
<event>
 6    1  0.1028026E-006  0.2014050E+04  0.7818608E-02  0.8600080E-01
         -2   -1    0    0    0  501 -0.00000000000E+00  0.00000000000E+00  0.10999322699E+04  0.10999322699E+04  0.00000000000E+00 0.  1.
          2   -1    0    0  501    0  0.00000000000E+00 -0.00000000000E+00 -0.92196494212E+03  0.92196494212E+03  0.00000000000E+00 0. -1.
         23    2    1    2    0    0  0.80136671476E+03  0.59245888475E+03  0.21961898060E+03  0.10244349311E+04  0.89656510178E+02 0.  0.
         11    1    3    3    0    0  0.59113455908E+03  0.48235336455E+03  0.17881993682E+03  0.78363346345E+03  0.00000000000E+00 0. -1.
        -11    1    3    3    0    0  0.21023215568E+03  0.11010552020E+03  0.40799043786E+02  0.24080146767E+03  0.00000000000E+00 0.  1.
         22    1    1    2    0    0 -0.80136671476E+03 -0.59245888475E+03 -0.41651652808E+02  0.99746228090E+03  0.00000000000E+00 0. -1.
<mgrwt>
<rscale>  0 0.20140496E+04</rscale>
<asrwt>0</asrwt>
<pdfrwt beam="1">  1        2 0.14184076E+00 0.20140496E+04</pdfrwt>
<pdfrwt beam="2">  1       -2 0.16922035E+00 0.20140496E+04</pdfrwt>
<totfact> 0.56758051E+00</totfact>
</mgrwt>
</event>
<event>
 6    1  0.1028026E-006  0.2099874E+04  0.7818608E-02  0.8561299E-01
          2   -1    0    0  501    0  0.00000000000E+00  0.00000000000E+00  0.13363089121E+04  0.13363089121E+04  0.00000000000E+00 0. -1.
         -2   -1    0    0    0  501 -0.00000000000E+00 -0.00000000000E+00 -0.82493463055E+03  0.82493463055E+03  0.00000000000E+00 0.  1.
         23    2    1    2    0    0  0.10006787031E+04  0.27902556224E+03  0.39893336097E+03  0.11163243631E+04  0.88425822645E+02 0.  0.
         13    1    3    3    0    0  0.35099798068E+03  0.13895623446E+03  0.16113156273E+03  0.41045316181E+03  0.00000000000E+00 0.  1.
        -13    1    3    3    0    0  0.64968072239E+03  0.14006932778E+03  0.23780179823E+03  0.70587120133E+03  0.00000000000E+00 0. -1.
         22    1    1    2    0    0 -0.10006787031E+04 -0.27902556224E+03  0.11244092064E+03  0.10449191795E+04  0.00000000000E+00 0.  1.
<mgrwt>
<rscale>  0 0.20998738E+04</rscale>
<asrwt>0</asrwt>
<pdfrwt beam="1">  1        2 0.20558599E+00 0.20998738E+04</pdfrwt>
<pdfrwt beam="2">  1       -2 0.12691302E+00 0.20998738E+04</pdfrwt>
<totfact> 0.66982524E+00</totfact>
</mgrwt>
</event>
<event>
 6    1  0.1028026E-006  0.4481856E+04  0.7818608E-02  0.7913821E-01
          2   -1    0    0  501    0  0.00000000000E+00  0.00000000000E+00  0.41097675905E+04  0.41097675905E+04  0.00000000000E+00 0. -1.
         -2   -1    0    0    0  501 -0.00000000000E+00 -0.00000000000E+00 -0.12219080004E+04  0.12219080004E+04  0.00000000000E+00 0.  1.
         23    2    1    2    0    0  0.22181462134E+04 -0.30918518958E+03  0.14956610632E+04  0.26946346652E+04  0.91026687400E+02 0.  0.
         11    1    3    3    0    0  0.30284169319E+03 -0.62784806482E+02  0.23572073160E+03  0.38886924070E+03  0.00000000000E+00 0.  1.
        -11    1    3    3    0    0  0.19153045202E+04 -0.24640038310E+03  0.12599403316E+04  0.23057654245E+04  0.00000000000E+00 0. -1.
         22    1    1    2    0    0 -0.22181462134E+04  0.30918518958E+03  0.13921985269E+04  0.26370409257E+04  0.00000000000E+00 0.  1.
<mgrwt>
<rscale>  0 0.44818558E+04</rscale>
<asrwt>0</asrwt>
<pdfrwt beam="1">  1        2 0.63227193E+00 0.44818558E+04</pdfrwt>
<pdfrwt beam="2">  1       -2 0.18798585E+00 0.44818558E+04</pdfrwt>
<totfact> 0.33533016E-02</totfact>
</mgrwt>
</event>
<event>
 6    1  0.1028026E-006  0.3143537E+04  0.7818608E-02  0.8203890E-01
         -2   -1    0    0    0  501 -0.00000000000E+00  0.00000000000E+00  0.16067247447E+04  0.16067247447E+04  0.00000000000E+00 0.  1.
          2   -1    0    0  501    0  0.00000000000E+00 -0.00000000000E+00 -0.15375731147E+04  0.15375731147E+04  0.00000000000E+00 0. -1.
         23    2    1    2    0    0  0.77952743944E+03  0.53005690762E+03  0.12908921986E+04  0.16011603505E+04  0.93211831880E+02 0.  0.
         13    1    3    3    0    0  0.16543066192E+03  0.14220857190E+03  0.24837265481E+03  0.33057458687E+03  0.00000000000E+00 0.  1.
        -13    1    3    3    0    0  0.61409677752E+03  0.38784833572E+03  0.10425195438E+04  0.12705857637E+04  0.00000000000E+00 0. -1.
         22    1    1    2    0    0 -0.77952743944E+03 -0.53005690762E+03 -0.12217405686E+04  0.15431375088E+04  0.00000000000E+00 0. -1.
<mgrwt>
<rscale>  0 0.31435374E+04</rscale>
<asrwt>0</asrwt>
<pdfrwt beam="1">  1        2 0.23654971E+00 0.31435374E+04</pdfrwt>
<pdfrwt beam="2">  1       -2 0.24718842E+00 0.31435374E+04</pdfrwt>
<totfact> 0.68398949E-01</totfact>
</mgrwt>
</event>
<event>
 6    1  0.1028026E-006  0.5050478E+04  0.7818608E-02  0.7820767E-01
          2   -1    0    0  501    0  0.00000000000E+00  0.00000000000E+00  0.13880312999E+04  0.13880312999E+04  0.00000000000E+00 0. -1.
         -2   -1    0    0    0  501 -0.00000000000E+00 -0.00000000000E+00 -0.45941556054E+04  0.45941556054E+04  0.00000000000E+00 0.  1.
         23    2    1    2    0    0 -0.99028288540E+03  0.23220645229E+04 -0.16010425471E+04  0.29907104650E+04  0.91476808224E+02 0.  0.
         11    1    3    3    0    0 -0.31619270752E+03  0.78019297827E+03 -0.48639014866E+03  0.97224188777E+03  0.00000000000E+00 0.  1.
        -11    1    3    3    0    0 -0.67409017788E+03  0.15418715446E+04 -0.11146523984E+04  0.20184685772E+04  0.00000000000E+00 0. -1.
         22    1    1    2    0    0  0.99028288540E+03 -0.23220645229E+04 -0.16050817584E+04  0.29914764402E+04  0.00000000000E+00 0.  1.
<mgrwt>
<rscale>  0 0.50504779E+04</rscale>
<asrwt>0</asrwt>
<pdfrwt beam="1">  1        2 0.21354328E+00 0.50504779E+04</pdfrwt>
<pdfrwt beam="2">  1       -2 0.70679318E+00 0.50504779E+04</pdfrwt>
<totfact> 0.23127662E-03</totfact>
</mgrwt>
</event>
<event>
 6    1  0.1028026E-006  0.1390917E+04  0.7818608E-02  0.8960420E-01
          2   -1    0    0  501    0  0.00000000000E+00  0.00000000000E+00  0.12769034402E+04  0.12769034402E+04  0.00000000000E+00 0. -1.
         -2   -1    0    0    0  501 -0.00000000000E+00 -0.00000000000E+00 -0.37877743377E+03  0.37877743377E+03  0.00000000000E+00 0.  1.
         23    2    1    2    0    0  0.36996611898E+03  0.28331603990E+03  0.10606171918E+04  0.11621767778E+04  0.92753046605E+02 0.  0.
         13    1    3    3    0    0  0.30423012823E+03  0.25679913804E+03  0.82343716605E+03  0.91463136544E+03  0.00000000000E+00 0.  1.
        -13    1    3    3    0    0  0.65735990745E+02  0.26516901862E+02  0.23718002571E+03  0.24754541231E+03  0.00000000000E+00 0. -1.
         22    1    1    2    0    0 -0.36996611898E+03 -0.28331603990E+03 -0.16249118534E+03  0.49350409620E+03  0.00000000000E+00 0.  1.
<mgrwt>
<rscale>  0 0.13909165E+04</rscale>
<asrwt>0</asrwt>
<pdfrwt beam="1">  1        2 0.19644668E+00 0.13909165E+04</pdfrwt>
<pdfrwt beam="2">  1       -2 0.58273452E-01 0.13909165E+04</pdfrwt>
<totfact> 0.45749618E+01</totfact>
</mgrwt>
</event>
<event>
 6    1  0.1028026E-006  0.2920225E+03  0.7818608E-02  0.1089298E+00
         -2   -1    0    0    0  501 -0.00000000000E+00  0.00000000000E+00  0.62091926592E+02  0.62091926592E+02  0.00000000000E+00 0.  1.
          2   -1    0    0  501    0  0.00000000000E+00 -0.00000000000E+00 -0.34335040833E+03  0.34335040833E+03  0.00000000000E+00 0. -1.
         23    2    1    2    0    0  0.19119385302E+02  0.78897227849E+02 -0.29693366379E+03  0.32276201811E+03  0.97032964428E+02 0.  0.
         13    1    3    3    0    0  0.22307524713E+02  0.13391664343E+02 -0.22057923380E+03  0.22210844360E+03  0.00000000000E+00 0. -1.
        -13    1    3    3    0    0 -0.31881394114E+01  0.65505563506E+02 -0.76354429987E+02  0.10065357451E+03  0.00000000000E+00 0.  1.
         22    1    1    2    0    0 -0.19119385302E+02 -0.78897227849E+02  0.15675182049E+02  0.82680316816E+02  0.00000000000E+00 0.  1.
<mgrwt>
<rscale>  0 0.29202252E+03</rscale>
<asrwt>0</asrwt>
<pdfrwt beam="1">  1        2 0.52823139E-01 0.29202252E+03</pdfrwt>
<pdfrwt beam="2">  1       -2 0.95526042E-02 0.29202252E+03</pdfrwt>
<totfact> 0.67118944E+03</totfact>
</mgrwt>
</event>
<event>
 6    1  0.1028026E-006  0.1431652E+04  0.7818608E-02  0.8931221E-01
          1   -1    0    0  501    0  0.00000000000E+00  0.00000000000E+00  0.77276722324E+03  0.77276722324E+03  0.00000000000E+00 0. -1.
         -1   -1    0    0    0  501 -0.00000000000E+00 -0.00000000000E+00 -0.66308053591E+03  0.66308053591E+03  0.00000000000E+00 0.  1.
         23    2    1    2    0    0 -0.28903627455E+03 -0.15440475316E+03 -0.58011043024E+03  0.67217056347E+03  0.88895215396E+02 0.  0.
         11    1    3    3    0    0 -0.12871983748E+03 -0.30051706545E+02 -0.17731780364E+03  0.22116397788E+03  0.00000000000E+00 0.  1.
        -11    1    3    3    0    0 -0.16031643707E+03 -0.12435304661E+03 -0.40279262661E+03  0.45100658559E+03  0.00000000000E+00 0. -1.
         22    1    1    2    0    0  0.28903627455E+03  0.15440475316E+03  0.68979711757E+03  0.76367719569E+03  0.00000000000E+00 0. -1.
<mgrwt>
<rscale>  0 0.14316521E+04</rscale>
<asrwt>0</asrwt>
<pdfrwt beam="1">  1        1 0.11888727E+00 0.14316521E+04</pdfrwt>
<pdfrwt beam="2">  1       -1 0.10201239E+00 0.14316521E+04</pdfrwt>
<totfact> 0.20698953E+01</totfact>
</mgrwt>
</event>
<event>
 6    1  0.1028026E-006  0.1616089E+04  0.7818608E-02  0.8810724E-01
         -1   -1    0    0    0  501 -0.00000000000E+00  0.00000000000E+00  0.66628578242E+03  0.66628578242E+03  0.00000000000E+00 0.  1.
          1   -1    0    0  501    0  0.00000000000E+00 -0.00000000000E+00 -0.97996415754E+03  0.97996415754E+03  0.00000000000E+00 0. -1.
         23    2    1    2    0    0 -0.56054732004E+03 -0.45790860564E+03 -0.51720556096E+03  0.89437434886E+03  0.92251257312E+02 0.  0.
         13    1    3    3    0    0 -0.16357359980E+03 -0.15173826725E+03 -0.11135706048E+03  0.24936162339E+03  0.00000000000E+00 0. -1.
        -13    1    3    3    0    0 -0.39697372025E+03 -0.30617033839E+03 -0.40584850048E+03  0.64501272547E+03  0.00000000000E+00 0.  1.
         22    1    1    2    0    0  0.56054732004E+03  0.45790860564E+03  0.20352718585E+03  0.75187559111E+03  0.00000000000E+00 0. -1.
<mgrwt>
<rscale>  0 0.16160893E+04</rscale>
<asrwt>0</asrwt>
<pdfrwt beam="1">  1        1 0.15076372E+00 0.16160893E+04</pdfrwt>
<pdfrwt beam="2">  1       -1 0.10250551E+00 0.16160893E+04</pdfrwt>
<totfact> 0.13539108E+01</totfact>
</mgrwt>
</event>
<event>
 6    1  0.1028026E-006  0.1447130E+04  0.7818608E-02  0.8920392E-01
          2   -1    0    0  501    0  0.00000000000E+00  0.00000000000E+00  0.15441415390E+04  0.15441415390E+04  0.00000000000E+00 0. -1.
         -2   -1    0    0    0  501 -0.00000000000E+00 -0.00000000000E+00 -0.33905339838E+03  0.33905339838E+03  0.00000000000E+00 0.  1.
         23    2    1    2    0    0 -0.22018654499E+03  0.14411448789E+03  0.14780001502E+04  0.15040748177E+04  0.92225338430E+02 0.  0.
         11    1    3    3    0    0 -0.19631868300E+03  0.11353068458E+03  0.10441721327E+04  0.10685156454E+04  0.00000000000E+00 0. -1.
        -11    1    3    3    0    0 -0.23867861986E+02  0.30583803301E+02  0.43382801742E+03  0.43555917228E+03  0.00000000000E+00 0.  1.
         22    1    1    2    0    0  0.22018654499E+03 -0.14411448789E+03 -0.27291200955E+03  0.37912011971E+03  0.00000000000E+00 0.  1.
<mgrwt>
<rscale>  0 0.14471302E+04</rscale>
<asrwt>0</asrwt>
<pdfrwt beam="1">  1        2 0.23756023E+00 0.14471302E+04</pdfrwt>
<pdfrwt beam="2">  1       -2 0.52162062E-01 0.14471302E+04</pdfrwt>
<totfact> 0.40331402E+01</totfact>
</mgrwt>
</event>
<event>
 6    1  0.1028026E-006  0.4870920E+04  0.7818608E-02  0.7848733E-01
         -2   -1    0    0    0  501 -0.00000000000E+00  0.00000000000E+00  0.14383952539E+04  0.14383952539E+04  0.00000000000E+00 0.  1.
          2   -1    0    0  501    0  0.00000000000E+00 -0.00000000000E+00 -0.41236692928E+04  0.41236692928E+04  0.00000000000E+00 0. -1.
         23    2    1    2    0    0 -0.59450057411E+03  0.13518995211E+04  0.86705932569E+03  0.17149701132E+04  0.90925062877E+02 0.  0.
         13    1    3    3    0    0 -0.47403299358E+03  0.10355987339E+04  0.62805150779E+03  0.13006232018E+04  0.00000000000E+00 0.  1.
        -13    1    3    3    0    0 -0.12046758053E+03  0.31630078728E+03  0.23900781790E+03  0.41434691142E+03  0.00000000000E+00 0. -1.
         22    1    1    2    0    0  0.59450057411E+03 -0.13518995211E+04 -0.35523333645E+04  0.38470944336E+04  0.00000000000E+00 0. -1.
<mgrwt>
<rscale>  0 0.48709204E+04</rscale>
<asrwt>0</asrwt>
<pdfrwt beam="1">  1        2 0.63441065E+00 0.48709204E+04</pdfrwt>
<pdfrwt beam="2">  1       -2 0.22129158E+00 0.48709204E+04</pdfrwt>
<totfact> 0.19177665E-02</totfact>
</mgrwt>
</event>
<event>
 6    1  0.1028026E-006  0.2228657E+04  0.7818608E-02  0.8506594E-01
         -2   -1    0    0    0  501 -0.00000000000E+00  0.00000000000E+00  0.17472637473E+04  0.17472637473E+04  0.00000000000E+00 0.  1.
          2   -1    0    0  501    0  0.00000000000E+00 -0.00000000000E+00 -0.71066995553E+03  0.71066995553E+03  0.00000000000E+00 0. -1.
         23    2    1    2    0    0  0.86414125297E+03  0.47585895751E+03  0.10862385248E+04  0.14701855305E+04  0.91375646479E+02 0.  0.
         11    1    3    3    0    0  0.68513457923E+03  0.34344964126E+03  0.87634317101E+03  0.11641925962E+04  0.00000000000E+00 0. -1.
        -11    1    3    3    0    0  0.17900667375E+03  0.13240931625E+03  0.20989535377E+03  0.30599293425E+03  0.00000000000E+00 0.  1.
         22    1    1    2    0    0 -0.86414125297E+03 -0.47585895751E+03 -0.49644732980E+02  0.98774817238E+03  0.00000000000E+00 0. -1.
<mgrwt>
<rscale>  0 0.22286569E+04</rscale>
<asrwt>0</asrwt>
<pdfrwt beam="1">  1        2 0.10933384E+00 0.22286569E+04</pdfrwt>
<pdfrwt beam="2">  1       -2 0.26880981E+00 0.22286569E+04</pdfrwt>
<totfact> 0.18063802E+00</totfact>
</mgrwt>
</event>
<event>
 6    1  0.1028026E-006  0.2439765E+04  0.7818608E-02  0.8424764E-01
         -2   -1    0    0    0  501 -0.00000000000E+00  0.00000000000E+00  0.70077642941E+03  0.70077642941E+03  0.00000000000E+00 0.  1.
          2   -1    0    0  501    0  0.00000000000E+00 -0.00000000000E+00 -0.21235215564E+04  0.21235215564E+04  0.00000000000E+00 0. -1.
         23    2    1    2    0    0 -0.62588592493E+03  0.74668085389E+03  0.13425452876E+03  0.98758532005E+03  0.89638146400E+02 0.  0.
         13    1    3    3    0    0 -0.60785347408E+03  0.71661727849E+03  0.14522849023E+03  0.95085092636E+03  0.00000000000E+00 0. -1.
        -13    1    3    3    0    0 -0.18032450846E+02  0.30063575397E+02 -0.10973961467E+02  0.36734393686E+02  0.00000000000E+00 0.  1.
         22    1    1    2    0    0  0.62588592493E+03 -0.74668085389E+03 -0.15569996558E+04  0.18367126658E+04  0.00000000000E+00 0. -1.
<mgrwt>
<rscale>  0 0.24397654E+04</rscale>
<asrwt>0</asrwt>
<pdfrwt beam="1">  1        2 0.32669561E+00 0.24397654E+04</pdfrwt>
<pdfrwt beam="2">  1       -2 0.10781176E+00 0.24397654E+04</pdfrwt>
<totfact> 0.35238296E+00</totfact>
</mgrwt>
</event>
<event>
 6    1  0.1028026E-006  0.4714618E+03  0.7818608E-02  0.1021508E+00
          1   -1    0    0  501    0  0.00000000000E+00  0.00000000000E+00  0.80141510300E+02  0.80141510300E+02  0.00000000000E+00 0. -1.
         -1   -1    0    0    0  501 -0.00000000000E+00 -0.00000000000E+00 -0.69338674925E+03  0.69338674925E+03  0.00000000000E+00 0.  1.
         23    2    1    2    0    0  0.41349998048E+02 -0.17576806390E+03 -0.90772203330E+02  0.22073326358E+03  0.88765681020E+02 0.  0.
         13    1    3    3    0    0 -0.59548601964E+01 -0.14378276582E+03 -0.60555651042E+02  0.15612793145E+03  0.00000000000E+00 0. -1.
        -13    1    3    3    0    0  0.47304858244E+02 -0.31985298078E+02 -0.30216552289E+02  0.64605332124E+02  0.00000000000E+00 0.  1.
         22    1    1    2    0    0 -0.41349998048E+02  0.17576806390E+03 -0.52247303562E+03  0.55279499597E+03  0.00000000000E+00 0.  1.
<mgrwt>
<rscale>  0 0.47146182E+03</rscale>
<asrwt>0</asrwt>
<pdfrwt beam="1">  1        1 0.12329463E-01 0.47146182E+03</pdfrwt>
<pdfrwt beam="2">  1       -1 0.10667489E+00 0.47146182E+03</pdfrwt>
<totfact> 0.42011366E+02</totfact>
</mgrwt>
</event>
<event>
 6    1  0.1028026E-006  0.1328409E+04  0.7818608E-02  0.9007335E-01
         -2   -1    0    0    0  501 -0.00000000000E+00  0.00000000000E+00  0.54779556828E+03  0.54779556828E+03  0.00000000000E+00 0.  1.
          2   -1    0    0  501    0  0.00000000000E+00 -0.00000000000E+00 -0.80535128363E+03  0.80535128363E+03  0.00000000000E+00 0. -1.
         23    2    1    2    0    0 -0.30511156877E+03 -0.56325467567E+02 -0.72395490689E+03  0.79297381297E+03  0.91821202048E+02 0.  0.
         11    1    3    3    0    0 -0.48739222088E+02 -0.13806027517E+02 -0.22234621016E+03  0.22804375751E+03  0.00000000000E+00 0. -1.
        -11    1    3    3    0    0 -0.25637234668E+03 -0.42519440050E+02 -0.50160869673E+03  0.56493005546E+03  0.00000000000E+00 0.  1.
         22    1    1    2    0    0  0.30511156877E+03  0.56325467567E+02  0.46639919154E+03  0.56017303894E+03  0.00000000000E+00 0.  1.
<mgrwt>
<rscale>  0 0.13284094E+04</rscale>
<asrwt>0</asrwt>
<pdfrwt beam="1">  1        2 0.12390020E+00 0.13284094E+04</pdfrwt>
<pdfrwt beam="2">  1       -2 0.84276242E-01 0.13284094E+04</pdfrwt>
<totfact> 0.41049306E+01</totfact>
</mgrwt>
</event>
<event>
 6    1  0.1028026E-006  0.3369085E+04  0.7818608E-02  0.8145536E-01
         -2   -1    0    0    0  501 -0.00000000000E+00  0.00000000000E+00  0.19896591684E+04  0.19896591684E+04  0.00000000000E+00 0.  1.
          2   -1    0    0  501    0  0.00000000000E+00 -0.00000000000E+00 -0.14262154998E+04  0.14262154998E+04  0.00000000000E+00 0. -1.
         23    2    1    2    0    0 -0.99542495981E+03  0.23590846086E+03 -0.10734281200E+04  0.14856226367E+04  0.91121003309E+02 0.  0.
         11    1    3    3    0    0 -0.84621026272E+03  0.23015581853E+03 -0.89636503250E+03  0.12539991152E+04  0.00000000000E+00 0. -1.
        -11    1    3    3    0    0 -0.14921469710E+03  0.57526423287E+01 -0.17706308750E+03  0.23162352143E+03  0.00000000000E+00 0.  1.
         22    1    1    2    0    0  0.99542495981E+03 -0.23590846086E+03  0.16368717887E+04  0.19302520315E+04  0.00000000000E+00 0.  1.
<mgrwt>
<rscale>  0 0.33690846E+04</rscale>
<asrwt>0</asrwt>
<pdfrwt beam="1">  1        2 0.21941777E+00 0.33690846E+04</pdfrwt>
<pdfrwt beam="2">  1       -2 0.30610141E+00 0.33690846E+04</pdfrwt>
<totfact> 0.33851431E-01</totfact>
</mgrwt>
</event>
<event>
 6    1  0.1028026E-006  0.5193263E+03  0.7818608E-02  0.1008854E+00
          1   -1    0    0  501    0  0.00000000000E+00  0.00000000000E+00  0.53769692916E+03  0.53769692916E+03  0.00000000000E+00 0. -1.
         -1   -1    0    0    0  501 -0.00000000000E+00 -0.00000000000E+00 -0.12539582807E+03  0.12539582807E+03  0.00000000000E+00 0.  1.
         23    2    1    2    0    0  0.20831300888E+03  0.22779119944E+02  0.38836190313E+03  0.45217504064E+03  0.98610859408E+02 0.  0.
         11    1    3    3    0    0  0.11927632611E+03 -0.27610601851E+02  0.26496756735E+03  0.29188524980E+03  0.00000000000E+00 0. -1.
        -11    1    3    3    0    0  0.89036682778E+02  0.50389721795E+02  0.12339433578E+03  0.16028979084E+03  0.00000000000E+00 0.  1.
         22    1    1    2    0    0 -0.20831300888E+03 -0.22779119944E+02  0.23939197949E+02  0.21091771659E+03  0.00000000000E+00 0.  1.
<mgrwt>
<rscale>  0 0.51932630E+03</rscale>
<asrwt>0</asrwt>
<pdfrwt beam="1">  1        1 0.82722604E-01 0.51932630E+03</pdfrwt>
<pdfrwt beam="2">  1       -1 0.19291666E-01 0.51932630E+03</pdfrwt>
<totfact> 0.87499246E+02</totfact>
</mgrwt>
</event>
<event>
 6    1  0.1028026E-006  0.6410131E+03  0.7818608E-02  0.9823790E-01
          2   -1    0    0  501    0  0.00000000000E+00  0.00000000000E+00  0.26326220669E+03  0.26326220669E+03  0.00000000000E+00 0. -1.
         -2   -1    0    0    0  501 -0.00000000000E+00 -0.00000000000E+00 -0.39019820466E+03  0.39019820466E+03  0.00000000000E+00 0.  1.
         23    2    1    2    0    0 -0.11143783252E+03  0.47354443879E+02  0.23077471645E+03  0.27581270636E+03  0.90304182418E+02 0.  0.
         13    1    3    3    0    0 -0.50687078853E+02  0.47202916559E+02  0.50894779845E+02  0.85950997142E+02  0.00000000000E+00 0.  1.
        -13    1    3    3    0    0 -0.60750753664E+02  0.15152731958E+00  0.17987993661E+03  0.18986170921E+03  0.00000000000E+00 0. -1.
         22    1    1    2    0    0  0.11143783252E+03 -0.47354443879E+02 -0.35771071443E+03  0.37764770500E+03  0.00000000000E+00 0.  1.
<mgrwt>
<rscale>  0 0.64101307E+03</rscale>
<asrwt>0</asrwt>
<pdfrwt beam="1">  1        2 0.40501878E-01 0.64101307E+03</pdfrwt>
<pdfrwt beam="2">  1       -2 0.60030493E-01 0.64101307E+03</pdfrwt>
<totfact> 0.33188940E+02</totfact>
</mgrwt>
</event>
<event>
 6    1  0.1028026E-006  0.1810728E+04  0.7818608E-02  0.8700615E-01
         -2   -1    0    0    0  501 -0.00000000000E+00  0.00000000000E+00  0.58761515514E+03  0.58761515514E+03  0.00000000000E+00 0.  1.
          2   -1    0    0  501    0  0.00000000000E+00 -0.00000000000E+00 -0.13949333333E+04  0.13949333333E+04  0.00000000000E+00 0. -1.
         23    2    1    2    0    0  0.53955985039E+03 -0.20442336739E+03  0.35611508837E+03  0.68389891639E+03  0.89364570132E+02 0.  0.
         13    1    3    3    0    0  0.15736273629E+03 -0.36837761386E+02  0.60890245326E+02  0.17270690030E+03  0.00000000000E+00 0.  1.
        -13    1    3    3    0    0  0.38219711410E+03 -0.16758560600E+03  0.29522484305E+03  0.51119201609E+03  0.00000000000E+00 0. -1.
         22    1    1    2    0    0 -0.53955985039E+03  0.20442336739E+03 -0.11634332665E+04  0.12986495720E+04  0.00000000000E+00 0. -1.
<mgrwt>
<rscale>  0 0.18107280E+04</rscale>
<asrwt>0</asrwt>
<pdfrwt beam="1">  1        2 0.21460513E+00 0.18107280E+04</pdfrwt>
<pdfrwt beam="2">  1       -2 0.90402332E-01 0.18107280E+04</pdfrwt>
<totfact> 0.14374210E+01</totfact>
</mgrwt>
</event>
<event>
 6    1  0.1028026E-006  0.2872927E+04  0.7818608E-02  0.8280978E-01
         -1   -1    0    0    0  501 -0.00000000000E+00  0.00000000000E+00  0.69459975749E+03  0.69459975749E+03  0.00000000000E+00 0.  1.
          1   -1    0    0  501    0  0.00000000000E+00 -0.00000000000E+00 -0.29706719677E+04  0.29706719677E+04  0.00000000000E+00 0. -1.
         23    2    1    2    0    0  0.99034790143E+03  0.72696872059E+03 -0.19292105849E+03  0.12468443007E+04  0.90164786914E+02 0.  0.
         11    1    3    3    0    0  0.89208854228E+03  0.63806034823E+03 -0.19665864497E+03  0.11142789587E+04  0.00000000000E+00 0. -1.
        -11    1    3    3    0    0  0.98259359155E+02  0.88908372366E+02  0.37375864821E+01  0.13256534197E+03  0.00000000000E+00 0.  1.
         22    1    1    2    0    0 -0.99034790143E+03 -0.72696872059E+03 -0.20831511517E+04  0.24184274245E+04  0.00000000000E+00 0. -1.
<mgrwt>
<rscale>  0 0.28729274E+04</rscale>
<asrwt>0</asrwt>
<pdfrwt beam="1">  1        1 0.45702646E+00 0.28729274E+04</pdfrwt>
<pdfrwt beam="2">  1       -1 0.10686150E+00 0.28729274E+04</pdfrwt>
<totfact> 0.44110267E-01</totfact>
</mgrwt>
</event>
<event>
 6    1  0.1028026E-006  0.2259023E+04  0.7818608E-02  0.8494255E-01
          1   -1    0    0  501    0  0.00000000000E+00  0.00000000000E+00  0.10105635375E+04  0.10105635375E+04  0.00000000000E+00 0. -1.
         -1   -1    0    0    0  501 -0.00000000000E+00 -0.00000000000E+00 -0.12624597296E+04  0.12624597296E+04  0.00000000000E+00 0.  1.
         23    2    1    2    0    0 -0.10447742698E+04  0.20596144704E+03  0.24709176261E+03  0.10970290616E+04  0.91896846481E+02 0.  0.
         11    1    3    3    0    0 -0.53873517950E+03  0.84700369802E+02  0.84544993062E+02  0.55186737730E+03  0.00000000000E+00 0.  1.
        -11    1    3    3    0    0 -0.50603909031E+03  0.12126107724E+03  0.16254676955E+03  0.54516168434E+03  0.00000000000E+00 0. -1.
         22    1    1    2    0    0  0.10447742698E+04 -0.20596144704E+03 -0.49898795469E+03  0.11759942055E+04  0.00000000000E+00 0.  1.
<mgrwt>
<rscale>  0 0.22590226E+04</rscale>
<asrwt>0</asrwt>
<pdfrwt beam="1">  1        1 0.15547131E+00 0.22590226E+04</pdfrwt>
<pdfrwt beam="2">  1       -1 0.19422457E+00 0.22590226E+04</pdfrwt>
<totfact> 0.22228049E+00</totfact>
</mgrwt>
</event>
<event>
 6    1  0.1028026E-006  0.2044089E+04  0.7818608E-02  0.8586281E-01
          1   -1    0    0  501    0  0.00000000000E+00  0.00000000000E+00  0.98541248583E+03  0.98541248583E+03  0.00000000000E+00 0. -1.
         -1   -1    0    0    0  501 -0.00000000000E+00 -0.00000000000E+00 -0.10600382425E+04  0.10600382425E+04  0.00000000000E+00 0.  1.
         23    2    1    2    0    0 -0.65992120706E+03  0.26425919790E+03 -0.76938978623E+03  0.10514557687E+04  0.90937709917E+02 0.  0.
         11    1    3    3    0    0 -0.46054595233E+03  0.22042617834E+03 -0.51377419821E+03  0.72433017406E+03  0.00000000000E+00 0. -1.
        -11    1    3    3    0    0 -0.19937525473E+03  0.43833019555E+02 -0.25561558801E+03  0.32712559459E+03  0.00000000000E+00 0.  1.
         22    1    1    2    0    0  0.65992120706E+03 -0.26425919790E+03  0.69476402952E+03  0.99399495970E+03  0.00000000000E+00 0. -1.
<mgrwt>
<rscale>  0 0.20440890E+04</rscale>
<asrwt>0</asrwt>
<pdfrwt beam="1">  1        1 0.15160192E+00 0.20440890E+04</pdfrwt>
<pdfrwt beam="2">  1       -1 0.16308281E+00 0.20440890E+04</pdfrwt>
<totfact> 0.39769455E+00</totfact>
</mgrwt>
</event>
<event>
 6    1  0.1028026E-006  0.4785417E+03  0.7818608E-02  0.1019537E+00
         -2   -1    0    0    0  501 -0.00000000000E+00  0.00000000000E+00  0.48507450323E+02  0.48507450323E+02  0.00000000000E+00 0.  1.
          2   -1    0    0  501    0  0.00000000000E+00 -0.00000000000E+00 -0.11802423056E+04  0.11802423056E+04  0.00000000000E+00 0. -1.
         23    2    1    2    0    0  0.10119036383E+03  0.19690846384E+03 -0.41802151655E+03  0.48148864845E+03  0.89871560714E+02 0.  0.
         13    1    3    3    0    0  0.41288354020E+02  0.90449683843E+02 -0.28023334436E+03  0.29734929086E+03  0.00000000000E+00 0. -1.
        -13    1    3    3    0    0  0.59902009810E+02  0.10645878000E+03 -0.13778817219E+03  0.18413935759E+03  0.00000000000E+00 0.  1.
         22    1    1    2    0    0 -0.10119036383E+03 -0.19690846384E+03 -0.71371333877E+03  0.74726110752E+03  0.00000000000E+00 0. -1.
<mgrwt>
<rscale>  0 0.47854172E+03</rscale>
<asrwt>0</asrwt>
<pdfrwt beam="1">  1        2 0.18157572E+00 0.47854172E+03</pdfrwt>
<pdfrwt beam="2">  1       -2 0.74626853E-02 0.47854172E+03</pdfrwt>
<totfact> 0.21608470E+03</totfact>
</mgrwt>
</event>
<event>
 6    1  0.1028026E-006  0.1267768E+04  0.7818608E-02  0.9055524E-01
         -1   -1    0    0    0  501 -0.00000000000E+00  0.00000000000E+00  0.43185908868E+03  0.43185908868E+03  0.00000000000E+00 0.  1.
          1   -1    0    0  501    0  0.00000000000E+00 -0.00000000000E+00 -0.93041631952E+03  0.93041631952E+03  0.00000000000E+00 0. -1.
         23    2    1    2    0    0 -0.41643109911E+02  0.60246358038E+03 -0.44542528972E+03  0.75604152804E+03  0.92187792592E+02 0.  0.
         11    1    3    3    0    0 -0.67459036621E+02  0.46466677113E+03 -0.32290042989E+03  0.56985139944E+03  0.00000000000E+00 0.  1.
        -11    1    3    3    0    0  0.25815926710E+02  0.13779680925E+03 -0.12252485984E+03  0.18619012860E+03  0.00000000000E+00 0. -1.
         22    1    1    2    0    0  0.41643109911E+02 -0.60246358038E+03 -0.53131941117E+02  0.60623388016E+03  0.00000000000E+00 0.  1.
<mgrwt>
<rscale>  0 0.12677677E+04</rscale>
<asrwt>0</asrwt>
<pdfrwt beam="1">  1        1 0.14314097E+00 0.12677677E+04</pdfrwt>
<pdfrwt beam="2">  1       -1 0.66439860E-01 0.12677677E+04</pdfrwt>
<totfact> 0.38863129E+01</totfact>
</mgrwt>
</event>
<event>
 6    1  0.1028026E-006  0.2351744E+04  0.7818608E-02  0.8457794E-01
          2   -1    0    0  501    0  0.00000000000E+00  0.00000000000E+00  0.10097008575E+04  0.10097008575E+04  0.00000000000E+00 0. -1.
         -2   -1    0    0    0  501 -0.00000000000E+00 -0.00000000000E+00 -0.13693902014E+04  0.13693902014E+04  0.00000000000E+00 0.  1.
         23    2    1    2    0    0  0.11076185692E+04  0.12812291183E+03  0.19218719075E+03  0.11349841162E+04  0.89546927843E+02 0.  0.
         11    1    3    3    0    0  0.92129827101E+03  0.12717406262E+03  0.18665132566E+03  0.94857918159E+03  0.00000000000E+00 0. -1.
        -11    1    3    3    0    0  0.18632029821E+03  0.94884921036E+00  0.55358650866E+01  0.18640493460E+03  0.00000000000E+00 0.  1.
         22    1    1    2    0    0 -0.11076185692E+04 -0.12812291183E+03 -0.55187653458E+03  0.12441069427E+04  0.00000000000E+00 0. -1.
<mgrwt>
<rscale>  0 0.23517436E+04</rscale>
<asrwt>0</asrwt>
<pdfrwt beam="1">  1        2 0.15533859E+00 0.23517436E+04</pdfrwt>
<pdfrwt beam="2">  1       -2 0.21067541E+00 0.23517436E+04</pdfrwt>
<totfact> 0.25407304E+00</totfact>
</mgrwt>
</event>
<event>
 6    1  0.1028026E-006  0.2059048E+04  0.7818608E-02  0.8579501E-01
         -2   -1    0    0    0  501 -0.00000000000E+00  0.00000000000E+00  0.59506934167E+03  0.59506934167E+03  0.00000000000E+00 0.  1.
          2   -1    0    0  501    0  0.00000000000E+00 -0.00000000000E+00 -0.17811701931E+04  0.17811701931E+04  0.00000000000E+00 0. -1.
         23    2    1    2    0    0 -0.61498177903E+03  0.64831882479E+03 -0.91733990076E+01  0.89851218665E+03  0.93381535611E+02 0.  0.
         13    1    3    3    0    0 -0.20340551901E+03  0.17328413819E+03  0.29251547840E+02  0.26880634435E+03  0.00000000000E+00 0. -1.
        -13    1    3    3    0    0 -0.41157626002E+03  0.47503468660E+03 -0.38424946847E+02  0.62970584230E+03  0.00000000000E+00 0.  1.
         22    1    1    2    0    0  0.61498177903E+03 -0.64831882479E+03 -0.11769274524E+04  0.14777273481E+04  0.00000000000E+00 0. -1.
<mgrwt>
<rscale>  0 0.20590481E+04</rscale>
<asrwt>0</asrwt>
<pdfrwt beam="1">  1        2 0.27402618E+00 0.20590481E+04</pdfrwt>
<pdfrwt beam="2">  1       -2 0.91549130E-01 0.20590481E+04</pdfrwt>
<totfact> 0.83024581E+00</totfact>
</mgrwt>
</event>
<event>
 6    1  0.1028026E-006  0.4334022E+04  0.7818608E-02  0.7940357E-01
         -2   -1    0    0    0  501 -0.00000000000E+00  0.00000000000E+00  0.11298961201E+04  0.11298961201E+04  0.00000000000E+00 0.  1.
          2   -1    0    0  501    0  0.00000000000E+00 -0.00000000000E+00 -0.41560788744E+04  0.41560788744E+04  0.00000000000E+00 0. -1.
         23    2    1    2    0    0 -0.21274677817E+04  0.31208837555E+03 -0.18328293495E+04  0.28267859687E+04  0.89090808745E+02 0.  0.
         11    1    3    3    0    0 -0.22113449491E+03  0.14925246826E+02 -0.16223610755E+03  0.27467031587E+03  0.00000000000E+00 0.  1.
        -11    1    3    3    0    0 -0.19063332868E+04  0.29716312873E+03 -0.16705932419E+04  0.25521156528E+04  0.00000000000E+00 0. -1.
         22    1    1    2    0    0  0.21274677817E+04 -0.31208837555E+03 -0.11933534048E+04  0.24591890259E+04  0.00000000000E+00 0. -1.
<mgrwt>
<rscale>  0 0.43340223E+04</rscale>
<asrwt>0</asrwt>
<pdfrwt beam="1">  1        2 0.63939676E+00 0.43340223E+04</pdfrwt>
<pdfrwt beam="2">  1       -2 0.17383017E+00 0.43340223E+04</pdfrwt>
<totfact> 0.38813542E-02</totfact>
</mgrwt>
</event>
<event>
 6    1  0.1028026E-006  0.1542689E+04  0.7818608E-02  0.8856551E-01
          2   -1    0    0  501    0  0.00000000000E+00  0.00000000000E+00  0.55633435176E+03  0.55633435176E+03  0.00000000000E+00 0. -1.
         -2   -1    0    0    0  501 -0.00000000000E+00 -0.00000000000E+00 -0.10694509571E+04  0.10694509571E+04  0.00000000000E+00 0.  1.
         23    2    1    2    0    0  0.17690229261E+03  0.50529835801E+02  0.52883617882E+03  0.56771475836E+03  0.93726503120E+02 0.  0.
         11    1    3    3    0    0  0.48880569611E+02 -0.25963276548E+02  0.11040859657E+03  0.12350489874E+03  0.00000000000E+00 0. -1.
        -11    1    3    3    0    0  0.12802172300E+03  0.76493112349E+02  0.41842758225E+03  0.44420985962E+03  0.00000000000E+00 0.  1.
         22    1    1    2    0    0 -0.17690229261E+03 -0.50529835801E+02 -0.10419527841E+04  0.10580705505E+04  0.00000000000E+00 0.  1.
<mgrwt>
<rscale>  0 0.15426890E+04</rscale>
<asrwt>0</asrwt>
<pdfrwt beam="1">  1        2 0.85589901E-01 0.15426890E+04</pdfrwt>
<pdfrwt beam="2">  1       -2 0.16453091E+00 0.15426890E+04</pdfrwt>
<totfact> 0.12193098E+01</totfact>
</mgrwt>
</event>
<event>
 6    1  0.1028026E-006  0.2284708E+04  0.7818608E-02  0.8483975E-01
          1   -1    0    0  501    0  0.00000000000E+00  0.00000000000E+00  0.32839333252E+04  0.32839333252E+04  0.00000000000E+00 0. -1.
         -1   -1    0    0    0  501 -0.00000000000E+00 -0.00000000000E+00 -0.39738113188E+03  0.39738113188E+03  0.00000000000E+00 0.  1.
         23    2    1    2    0    0 -0.89130247990E+03  0.70756087447E+03  0.13254495258E+04  0.17494490269E+04  0.93235993693E+02 0.  0.
         11    1    3    3    0    0 -0.12494749935E+03  0.62902943317E+02  0.14603251549E+03  0.20222302898E+03  0.00000000000E+00 0.  1.
        -11    1    3    3    0    0 -0.76635498055E+03  0.64465793115E+03  0.11794170103E+04  0.15472259979E+04  0.00000000000E+00 0. -1.
         22    1    1    2    0    0  0.89130247990E+03 -0.70756087447E+03  0.15611026675E+04  0.19318654302E+04  0.00000000000E+00 0. -1.
<mgrwt>
<rscale>  0 0.22847084E+04</rscale>
<asrwt>0</asrwt>
<pdfrwt beam="1">  1        1 0.50522049E+00 0.22847084E+04</pdfrwt>
<pdfrwt beam="2">  1       -1 0.61135561E-01 0.22847084E+04</pdfrwt>
<totfact> 0.90338206E-01</totfact>
</mgrwt>
</event>
<event>
 6    1  0.1028026E-006  0.1441246E+04  0.7818608E-02  0.8924492E-01
         -3   -1    0    0    0  501 -0.00000000000E+00  0.00000000000E+00  0.78866040963E+03  0.78866040963E+03  0.00000000000E+00 0.  1.
          3   -1    0    0  501    0  0.00000000000E+00 -0.00000000000E+00 -0.65845544080E+03  0.65845544080E+03  0.00000000000E+00 0. -1.
         23    2    1    2    0    0  0.70738958203E+03  0.18850845995E+02  0.17982434776E+03  0.73773763119E+03  0.10566286610E+03 0.  0.
         11    1    3    3    0    0  0.10574791949E+03  0.35829926034E+02  0.48306327223E+02  0.12165486972E+03  0.00000000000E+00 0. -1.
        -11    1    3    3    0    0  0.60164166253E+03 -0.16979080039E+02  0.13151802054E+03  0.61608276147E+03  0.00000000000E+00 0.  1.
         22    1    1    2    0    0 -0.70738958203E+03 -0.18850845995E+02 -0.49619378931E+02  0.70937821923E+03  0.00000000000E+00 0.  1.
<mgrwt>
<rscale>  0 0.14412463E+04</rscale>
<asrwt>0</asrwt>
<pdfrwt beam="1">  1        3 0.10130084E+00 0.14412463E+04</pdfrwt>
<pdfrwt beam="2">  1       -3 0.12133237E+00 0.14412463E+04</pdfrwt>
<totfact> 0.11875216E+00</totfact>
</mgrwt>
</event>
<event>
 6    1  0.1028026E-006  0.1323013E+04  0.7818608E-02  0.9011512E-01
         -1   -1    0    0    0  501 -0.00000000000E+00  0.00000000000E+00  0.15838764208E+03  0.15838764208E+03  0.00000000000E+00 0.  1.
          1   -1    0    0  501    0  0.00000000000E+00 -0.00000000000E+00 -0.27627833449E+04  0.27627833449E+04  0.00000000000E+00 0. -1.
         23    2    1    2    0    0  0.13471010267E+03  0.64429483846E+03 -0.12730671930E+04  0.14360116516E+04  0.90369988201E+02 0.  0.
         13    1    3    3    0    0  0.39286022420E+02  0.17638243595E+03 -0.26755659530E+03  0.32286326356E+03  0.00000000000E+00 0. -1.
        -13    1    3    3    0    0  0.95424080252E+02  0.46791240251E+03 -0.10055105977E+04  0.11131483880E+04  0.00000000000E+00 0.  1.
         22    1    1    2    0    0 -0.13471010267E+03 -0.64429483846E+03 -0.13313285098E+04  0.14851593354E+04  0.00000000000E+00 0. -1.
<mgrwt>
<rscale>  0 0.13230128E+04</rscale>
<asrwt>0</asrwt>
<pdfrwt beam="1">  1        1 0.42504359E+00 0.13230128E+04</pdfrwt>
<pdfrwt beam="2">  1       -1 0.24367329E-01 0.13230128E+04</pdfrwt>
<totfact> 0.12804436E+01</totfact>
</mgrwt>
</event>
<event>
 6    1  0.1028026E-006  0.3402984E+04  0.7818608E-02  0.8137174E-01
          1   -1    0    0  501    0  0.00000000000E+00  0.00000000000E+00  0.37653372032E+04  0.37653372032E+04  0.00000000000E+00 0. -1.
         -1   -1    0    0    0  501 -0.00000000000E+00 -0.00000000000E+00 -0.76887548318E+03  0.76887548318E+03  0.00000000000E+00 0.  1.
         23    2    1    2    0    0  0.41107503198E+02  0.15400257308E+04  0.54084771769E+03  0.16353492528E+04  0.92096941135E+02 0.  0.
         11    1    3    3    0    0 -0.54291691753E+01  0.42598190099E+03  0.18974299056E+03  0.46636086705E+03  0.00000000000E+00 0.  1.
        -11    1    3    3    0    0  0.46536672373E+02  0.11140438298E+04  0.35110472713E+03  0.11689883857E+04  0.00000000000E+00 0. -1.
         22    1    1    2    0    0 -0.41107503198E+02 -0.15400257308E+04  0.24556140023E+04  0.28988634336E+04  0.00000000000E+00 0. -1.
<mgrwt>
<rscale>  0 0.34029843E+04</rscale>
<asrwt>0</asrwt>
<pdfrwt beam="1">  1        1 0.57928264E+00 0.34029843E+04</pdfrwt>
<pdfrwt beam="2">  1       -1 0.11828854E+00 0.34029843E+04</pdfrwt>
<totfact> 0.80204368E-02</totfact>
</mgrwt>
</event>
<event>
 6    1  0.1028026E-006  0.1584872E+04  0.7818608E-02  0.8829896E-01
          2   -1    0    0  501    0  0.00000000000E+00  0.00000000000E+00  0.14077812947E+04  0.14077812947E+04  0.00000000000E+00 0. -1.
         -2   -1    0    0    0  501 -0.00000000000E+00 -0.00000000000E+00 -0.44605986375E+03  0.44605986375E+03  0.00000000000E+00 0.  1.
         23    2    1    2    0    0  0.56837604086E+03  0.41986177697E+03  0.89525205716E+03  0.11440852756E+04  0.90109025221E+02 0.  0.
         13    1    3    3    0    0  0.20559483731E+03  0.20038526957E+03  0.32838824759E+03  0.43619070891E+03  0.00000000000E+00 0. -1.
        -13    1    3    3    0    0  0.36278120356E+03  0.21947650740E+03  0.56686380957E+03  0.70789456669E+03  0.00000000000E+00 0.  1.
         22    1    1    2    0    0 -0.56837604086E+03 -0.41986177697E+03  0.66469373790E+02  0.70975588285E+03  0.00000000000E+00 0.  1.
<mgrwt>
<rscale>  0 0.15848719E+04</rscale>
<asrwt>0</asrwt>
<pdfrwt beam="1">  1        2 0.21658174E+00 0.15848719E+04</pdfrwt>
<pdfrwt beam="2">  1       -2 0.68624595E-01 0.15848719E+04</pdfrwt>
<totfact> 0.26691138E+01</totfact>
</mgrwt>
</event>
<event>
 6    1  0.1028026E-006  0.2378498E+04  0.7818608E-02  0.8447598E-01
         -2   -1    0    0    0  501 -0.00000000000E+00  0.00000000000E+00  0.55439192789E+03  0.55439192789E+03  0.00000000000E+00 0.  1.
          2   -1    0    0  501    0  0.00000000000E+00 -0.00000000000E+00 -0.25511071960E+04  0.25511071960E+04  0.00000000000E+00 0. -1.
         23    2    1    2    0    0  0.85306962171E+03  0.44905498266E+03 -0.19054510028E+04  0.21371462321E+04  0.85277995668E+02 0.  0.
         13    1    3    3    0    0  0.66786078012E+03  0.36425427551E+03 -0.14262944141E+04  0.16164884641E+04  0.00000000000E+00 0. -1.
        -13    1    3    3    0    0  0.18520884158E+03  0.84800707147E+02 -0.47915658864E+03  0.52065776799E+03  0.00000000000E+00 0.  1.
         22    1    1    2    0    0 -0.85306962171E+03 -0.44905498266E+03 -0.91264265358E+02  0.96835289180E+03  0.00000000000E+00 0.  1.
<mgrwt>
<rscale>  0 0.23784980E+04</rscale>
<asrwt>0</asrwt>
<pdfrwt beam="1">  1        2 0.39247803E+00 0.23784980E+04</pdfrwt>
<pdfrwt beam="2">  1       -2 0.85291065E-01 0.23784980E+04</pdfrwt>
<totfact> 0.35006687E+00</totfact>
</mgrwt>
</event>
<event>
 6    1  0.1028026E-006  0.1814543E+04  0.7818608E-02  0.8698604E-01
          1   -1    0    0  501    0  0.00000000000E+00  0.00000000000E+00  0.27169154632E+04  0.27169154632E+04  0.00000000000E+00 0. -1.
         -1   -1    0    0    0  501 -0.00000000000E+00 -0.00000000000E+00 -0.30296922731E+03  0.30296922731E+03  0.00000000000E+00 0.  1.
         23    2    1    2    0    0  0.46994940967E+03 -0.27535925344E+03  0.71090350828E+01  0.55218526042E+03  0.90459147381E+02 0.  0.
         13    1    3    3    0    0  0.89637749267E+02 -0.44393875822E+02 -0.33242170050E+02  0.10540770453E+03  0.00000000000E+00 0.  1.
        -13    1    3    3    0    0  0.38031166040E+03 -0.23096537762E+03  0.40351205133E+02  0.44677755589E+03  0.00000000000E+00 0. -1.
         22    1    1    2    0    0 -0.46994940967E+03  0.27535925344E+03  0.24068372008E+04  0.24676994301E+04  0.00000000000E+00 0. -1.
<mgrwt>
<rscale>  0 0.18145432E+04</rscale>
<asrwt>0</asrwt>
<pdfrwt beam="1">  1        1 0.41798698E+00 0.18145432E+04</pdfrwt>
<pdfrwt beam="2">  1       -1 0.46610652E-01 0.18145432E+04</pdfrwt>
<totfact> 0.41324890E+00</totfact>
</mgrwt>
</event>
<event>
 6    1  0.1028026E-006  0.3971483E+04  0.7818608E-02  0.8010324E-01
         -2   -1    0    0    0  501 -0.00000000000E+00  0.00000000000E+00  0.28296211922E+04  0.28296211922E+04  0.00000000000E+00 0.  1.
          2   -1    0    0  501    0  0.00000000000E+00 -0.00000000000E+00 -0.13935324053E+04  0.13935324053E+04  0.00000000000E+00 0. -1.
         23    2    1    2    0    0 -0.14688465897E+04  0.11833149712E+04  0.61787634545E+02  0.18893909098E+04  0.90750608951E+02 0.  0.
         13    1    3    3    0    0 -0.40878136263E+03  0.36939068523E+03  0.45050964831E+02  0.55279405768E+03  0.00000000000E+00 0.  1.
        -13    1    3    3    0    0 -0.10600652271E+04  0.81392428595E+03  0.16736669713E+02  0.13365968521E+04  0.00000000000E+00 0. -1.
         22    1    1    2    0    0  0.14688465897E+04 -0.11833149712E+04  0.13743011524E+04  0.23337626877E+04  0.00000000000E+00 0.  1.
<mgrwt>
<rscale>  0 0.39714828E+04</rscale>
<asrwt>0</asrwt>
<pdfrwt beam="1">  1        2 0.21438960E+00 0.39714828E+04</pdfrwt>
<pdfrwt beam="2">  1       -2 0.43532634E+00 0.39714828E+04</pdfrwt>
<totfact> 0.50080101E-02</totfact>
</mgrwt>
</event>
<event>
 6    1  0.1028026E-006  0.2580704E+04  0.7818608E-02  0.8374785E-01
         -2   -1    0    0    0  501 -0.00000000000E+00  0.00000000000E+00  0.12164560514E+04  0.12164560514E+04  0.00000000000E+00 0.  1.
          2   -1    0    0  501    0  0.00000000000E+00 -0.00000000000E+00 -0.13687367647E+04  0.13687367647E+04  0.00000000000E+00 0. -1.
         23    2    1    2    0    0 -0.69005788178E+03 -0.10908624712E+03 -0.11610064541E+04  0.13581609056E+04  0.92657268441E+02 0.  0.
         13    1    3    3    0    0 -0.50683952516E+03 -0.12078963888E+03 -0.86936079386E+03  0.10135406410E+04  0.00000000000E+00 0. -1.
        -13    1    3    3    0    0 -0.18321835661E+03  0.11703391763E+02 -0.29164566025E+03  0.34462026453E+03  0.00000000000E+00 0.  1.
         22    1    1    2    0    0  0.69005788178E+03  0.10908624712E+03  0.10087257408E+04  0.12270319106E+04  0.00000000000E+00 0.  1.
<mgrwt>
<rscale>  0 0.25807039E+04</rscale>
<asrwt>0</asrwt>
<pdfrwt beam="1">  1        2 0.21057489E+00 0.25807039E+04</pdfrwt>
<pdfrwt beam="2">  1       -2 0.18714709E+00 0.25807039E+04</pdfrwt>
<totfact> 0.21650996E+00</totfact>
</mgrwt>
</event>
<event>
 6    1  0.1028026E-006  0.3618059E+04  0.7818608E-02  0.8086368E-01
         -2   -1    0    0    0  501 -0.00000000000E+00  0.00000000000E+00  0.77421141349E+03  0.77421141349E+03  0.00000000000E+00 0.  1.
          2   -1    0    0  501    0  0.00000000000E+00 -0.00000000000E+00 -0.42269938448E+04  0.42269938448E+04  0.00000000000E+00 0. -1.
         23    2    1    2    0    0 -0.80444174356E+03 -0.13428832331E+04 -0.47731128675E+03  0.16390793789E+04  0.91067279066E+02 0.  0.
         13    1    3    3    0    0 -0.46218480007E+03 -0.85745441689E+03 -0.29509130625E+03  0.10178024098E+04  0.00000000000E+00 0. -1.
        -13    1    3    3    0    0 -0.34225694349E+03 -0.48542881626E+03 -0.18221998050E+03  0.62127696908E+03  0.00000000000E+00 0.  1.
         22    1    1    2    0    0  0.80444174356E+03  0.13428832331E+04 -0.29754711446E+04  0.33621258794E+04  0.00000000000E+00 0. -1.
<mgrwt>
<rscale>  0 0.36180585E+04</rscale>
<asrwt>0</asrwt>
<pdfrwt beam="1">  1        2 0.65030673E+00 0.36180585E+04</pdfrwt>
<pdfrwt beam="2">  1       -2 0.11910945E+00 0.36180585E+04</pdfrwt>
<totfact> 0.96582915E-02</totfact>
</mgrwt>
</event>
<event>
 6    1  0.1028026E-006  0.3098177E+04  0.7818608E-02  0.8216238E-01
         -1   -1    0    0    0  501 -0.00000000000E+00  0.00000000000E+00  0.72951366374E+03  0.72951366374E+03  0.00000000000E+00 0.  1.
          1   -1    0    0  501    0  0.00000000000E+00 -0.00000000000E+00 -0.32894170672E+04  0.32894170672E+04  0.00000000000E+00 0. -1.
         23    2    1    2    0    0  0.27954710695E+03  0.13369913720E+04 -0.33582843619E+03  0.14089111958E+04  0.80978423587E+02 0.  0.
         11    1    3    3    0    0  0.70499464146E+02  0.37539599689E+03 -0.57589631176E+02  0.38627567170E+03  0.00000000000E+00 0.  1.
        -11    1    3    3    0    0  0.20904764280E+03  0.96159537515E+03 -0.27823880501E+03  0.10226355241E+04  0.00000000000E+00 0. -1.
         22    1    1    2    0    0 -0.27954710695E+03 -0.13369913720E+04 -0.22240749673E+04  0.26100195352E+04  0.00000000000E+00 0. -1.
<mgrwt>
<rscale>  0 0.30981767E+04</rscale>
<asrwt>0</asrwt>
<pdfrwt beam="1">  1        1 0.50606417E+00 0.30981767E+04</pdfrwt>
<pdfrwt beam="2">  1       -1 0.11223287E+00 0.30981767E+04</pdfrwt>
<totfact> 0.22318350E-01</totfact>
</mgrwt>
</event>
<event>
 6    1  0.1028026E-006  0.6888159E+03  0.7818608E-02  0.9736552E-01
         -2   -1    0    0    0  501 -0.00000000000E+00  0.00000000000E+00  0.54077485242E+02  0.54077485242E+02  0.00000000000E+00 0.  1.
          2   -1    0    0  501    0  0.00000000000E+00 -0.00000000000E+00 -0.21934608527E+04  0.21934608527E+04  0.00000000000E+00 0. -1.
         23    2    1    2    0    0 -0.28424105060E+03  0.77876850270E+00 -0.16838361286E+04  0.17105868801E+04  0.10004891202E+03 0.  0.
         13    1    3    3    0    0 -0.14663510382E+03 -0.38891755093E+02 -0.10406962055E+04  0.10516953049E+04  0.00000000000E+00 0.  1.
        -13    1    3    3    0    0 -0.13760594678E+03  0.39670523596E+02 -0.64313992314E+03  0.65889157513E+03  0.00000000000E+00 0. -1.
         22    1    1    2    0    0  0.28424105060E+03 -0.77876850270E+00 -0.45554723884E+03  0.53695145790E+03  0.00000000000E+00 0.  1.
<mgrwt>
<rscale>  0 0.68881593E+03</rscale>
<asrwt>0</asrwt>
<pdfrwt beam="1">  1        2 0.33745548E+00 0.68881593E+03</pdfrwt>
<pdfrwt beam="2">  1       -2 0.83196139E-02 0.68881593E+03</pdfrwt>
<totfact> 0.49742537E+02</totfact>
</mgrwt>
</event>
<event>
 6    1  0.1028026E-006  0.4634563E+04  0.7818608E-02  0.7887493E-01
          2   -1    0    0  501    0  0.00000000000E+00  0.00000000000E+00  0.21408891583E+04  0.21408891583E+04  0.00000000000E+00 0. -1.
         -2   -1    0    0    0  501 -0.00000000000E+00 -0.00000000000E+00 -0.25082075401E+04  0.25082075401E+04  0.00000000000E+00 0.  1.
         23    2    1    2    0    0  0.11555686147E+04  0.19283458491E+04  0.37638079584E+03  0.22811978400E+04  0.91348478374E+02 0.  0.
         13    1    3    3    0    0  0.10689923287E+04  0.18152084630E+04  0.33685177529E+03  0.21333531076E+04  0.00000000000E+00 0. -1.
        -13    1    3    3    0    0  0.86576286062E+02  0.11313738604E+03  0.39529020546E+02  0.14784473238E+03  0.00000000000E+00 0.  1.
         22    1    1    2    0    0 -0.11555686147E+04 -0.19283458491E+04 -0.74369917763E+03  0.23678988585E+04  0.00000000000E+00 0. -1.
<mgrwt>
<rscale>  0 0.46345633E+04</rscale>
<asrwt>0</asrwt>
<pdfrwt beam="1">  1        2 0.32936756E+00 0.46345633E+04</pdfrwt>
<pdfrwt beam="2">  1       -2 0.38587808E+00 0.46345633E+04</pdfrwt>
<totfact> 0.38329991E-02</totfact>
</mgrwt>
</event>
<event>
 6    1  0.1028026E-006  0.1417109E+04  0.7818608E-02  0.8941526E-01
          1   -1    0    0  501    0  0.00000000000E+00  0.00000000000E+00  0.48056859750E+04  0.48056859750E+04  0.00000000000E+00 0. -1.
         -1   -1    0    0    0  501 -0.00000000000E+00 -0.00000000000E+00 -0.10446992272E+03  0.10446992272E+03  0.00000000000E+00 0.  1.
         23    2    1    2    0    0  0.66767391166E+03 -0.22524122814E+02  0.15723054982E+04  0.17107220347E+04  0.90163806083E+02 0.  0.
         11    1    3    3    0    0  0.39035684170E+03 -0.36370498473E+02  0.82251628710E+03  0.91117194841E+03  0.00000000000E+00 0.  1.
        -11    1    3    3    0    0  0.27731706996E+03  0.13846375659E+02  0.74978921114E+03  0.79955008633E+03  0.00000000000E+00 0. -1.
         22    1    1    2    0    0 -0.66767391166E+03  0.22524122814E+02  0.31289105541E+04  0.31994338630E+04  0.00000000000E+00 0.  1.
<mgrwt>
<rscale>  0 0.14171092E+04</rscale>
<asrwt>0</asrwt>
<pdfrwt beam="1">  1        1 0.73933613E+00 0.14171092E+04</pdfrwt>
<pdfrwt beam="2">  1       -1 0.16072300E-01 0.14171092E+04</pdfrwt>
<totfact> 0.44634556E-01</totfact>
</mgrwt>
</event>
<event>
 6    1  0.1028026E-006  0.3680196E+04  0.7818608E-02  0.8072365E-01
          1   -1    0    0  501    0  0.00000000000E+00  0.00000000000E+00  0.31846317600E+04  0.31846317600E+04  0.00000000000E+00 0. -1.
         -1   -1    0    0    0  501 -0.00000000000E+00 -0.00000000000E+00 -0.10632190819E+04  0.10632190819E+04  0.00000000000E+00 0.  1.
         23    2    1    2    0    0  0.98331547740E+03  0.13280621770E+04  0.19927668985E+04  0.25903804166E+04  0.91062159105E+02 0.  0.
         11    1    3    3    0    0  0.95857642763E+03  0.13138457813E+04  0.19549807929E+04  0.25430315384E+04  0.00000000000E+00 0. -1.
        -11    1    3    3    0    0  0.24739049770E+02  0.14216395700E+02  0.37786105569E+02  0.47348878174E+02  0.00000000000E+00 0.  1.
         22    1    1    2    0    0 -0.98331547740E+03 -0.13280621770E+04  0.12864577961E+03  0.16574704253E+04  0.00000000000E+00 0.  1.
<mgrwt>
<rscale>  0 0.36801963E+04</rscale>
<asrwt>0</asrwt>
<pdfrwt beam="1">  1        1 0.48994334E+00 0.36801963E+04</pdfrwt>
<pdfrwt beam="2">  1       -1 0.16357217E+00 0.36801963E+04</pdfrwt>
<totfact> 0.96257035E-02</totfact>
</mgrwt>
</event>
<event>
 6    1  0.1028026E-006  0.2422230E+04  0.7818608E-02  0.8431227E-01
         -1   -1    0    0    0  501 -0.00000000000E+00  0.00000000000E+00  0.77283287289E+03  0.77283287289E+03  0.00000000000E+00 0.  1.
          1   -1    0    0  501    0  0.00000000000E+00 -0.00000000000E+00 -0.18979525231E+04  0.18979525231E+04  0.00000000000E+00 0. -1.
         23    2    1    2    0    0  0.33561309241E+03  0.81740524364E+03 -0.14738229490E+04  0.17208477819E+04  0.91517884522E+02 0.  0.
         13    1    3    3    0    0  0.30102750431E+02  0.34410802321E+02 -0.10590233756E+03  0.11534983312E+03  0.00000000000E+00 0. -1.
        -13    1    3    3    0    0  0.30551034198E+03  0.78299444132E+03 -0.13679206114E+04  0.16054979487E+04  0.00000000000E+00 0.  1.
         22    1    1    2    0    0 -0.33561309241E+03 -0.81740524364E+03  0.34870329880E+03  0.94993761412E+03  0.00000000000E+00 0.  1.
<mgrwt>
<rscale>  0 0.24222305E+04</rscale>
<asrwt>0</asrwt>
<pdfrwt beam="1">  1        1 0.29199270E+00 0.24222305E+04</pdfrwt>
<pdfrwt beam="2">  1       -1 0.11889737E+00 0.24222305E+04</pdfrwt>
<totfact> 0.19793591E+00</totfact>
</mgrwt>
</event>
<event>
 6    1  0.1028026E-006  0.1266077E+04  0.7818608E-02  0.9056907E-01
         -2   -1    0    0    0  501 -0.00000000000E+00  0.00000000000E+00  0.38046686068E+03  0.38046686068E+03  0.00000000000E+00 0.  1.
          2   -1    0    0  501    0  0.00000000000E+00 -0.00000000000E+00 -0.10532796046E+04  0.10532796046E+04  0.00000000000E+00 0. -1.
         23    2    1    2    0    0  0.47061960242E+03 -0.41859910869E+03 -0.35602162524E+03  0.72871835462E+03  0.87011601163E+02 0.  0.
         13    1    3    3    0    0  0.16836092757E+03 -0.13358255093E+03 -0.16759392246E+03  0.27253884620E+03  0.00000000000E+00 0. -1.
        -13    1    3    3    0    0  0.30225867485E+03 -0.28501655776E+03 -0.18842770278E+03  0.45617950841E+03  0.00000000000E+00 0.  1.
         22    1    1    2    0    0 -0.47061960242E+03  0.41859910869E+03 -0.31679111870E+03  0.70502811069E+03  0.00000000000E+00 0.  1.
<mgrwt>
<rscale>  0 0.12660774E+04</rscale>
<asrwt>0</asrwt>
<pdfrwt beam="1">  1        2 0.16204302E+00 0.12660774E+04</pdfrwt>
<pdfrwt beam="2">  1       -2 0.58533363E-01 0.12660774E+04</pdfrwt>
<totfact> 0.62462681E+01</totfact>
</mgrwt>
</event>
<event>
 6    1  0.1028026E-006  0.1690451E+04  0.7818608E-02  0.8766829E-01
          3   -1    0    0  501    0  0.00000000000E+00  0.00000000000E+00  0.10551934661E+04  0.10551934661E+04  0.00000000000E+00 0. -1.
         -3   -1    0    0    0  501 -0.00000000000E+00 -0.00000000000E+00 -0.67703846701E+03  0.67703846701E+03  0.00000000000E+00 0.  1.
         23    2    1    2    0    0  0.17911529325E+03 -0.81299910912E+03  0.54931797937E+02  0.83919045731E+03  0.90406202798E+02 0.  0.
         13    1    3    3    0    0  0.10628014096E+02 -0.12253001511E+03 -0.19685008985E+02  0.12455544494E+03  0.00000000000E+00 0.  1.
        -13    1    3    3    0    0  0.16848727916E+03 -0.69046909401E+03  0.74616806921E+02  0.71463501236E+03  0.00000000000E+00 0. -1.
         22    1    1    2    0    0 -0.17911529325E+03  0.81299910912E+03  0.32322320112E+03  0.89304147577E+03  0.00000000000E+00 0. -1.
<mgrwt>
<rscale>  0 0.16904515E+04</rscale>
<asrwt>0</asrwt>
<pdfrwt beam="1">  1        3 0.16233746E+00 0.16904515E+04</pdfrwt>
<pdfrwt beam="2">  1       -3 0.10415976E+00 0.16904515E+04</pdfrwt>
<totfact> 0.52007542E-01</totfact>
</mgrwt>
</event>
<event>
 6    1  0.1028026E-006  0.3216346E+04  0.7818608E-02  0.8184514E-01
          2   -1    0    0  501    0  0.00000000000E+00  0.00000000000E+00  0.22474302892E+04  0.22474302892E+04  0.00000000000E+00 0. -1.
         -2   -1    0    0    0  501 -0.00000000000E+00 -0.00000000000E+00 -0.11507456360E+04  0.11507456360E+04  0.00000000000E+00 0.  1.
         23    2    1    2    0    0 -0.47826430797E+03  0.11535912072E+04  0.16171761107E+04  0.20452454839E+04  0.90890565929E+02 0.  0.
         13    1    3    3    0    0 -0.41367292270E+03  0.10289767913E+04  0.14755320069E+04  0.18458367283E+04  0.00000000000E+00 0. -1.
        -13    1    3    3    0    0 -0.64591385268E+02  0.12461441590E+03  0.14164410375E+03  0.19940875565E+03  0.00000000000E+00 0.  1.
         22    1    1    2    0    0  0.47826430797E+03 -0.11535912072E+04 -0.52049145744E+03  0.13529304412E+04  0.00000000000E+00 0.  1.
<mgrwt>
<rscale>  0 0.32163461E+04</rscale>
<asrwt>0</asrwt>
<pdfrwt beam="1">  1        2 0.34575850E+00 0.32163461E+04</pdfrwt>
<pdfrwt beam="2">  1       -2 0.17703779E+00 0.32163461E+04</pdfrwt>
<totfact> 0.77627361E-01</totfact>
</mgrwt>
</event>
<event>
 6    1  0.1028026E-006  0.2432079E+04  0.7818608E-02  0.8427590E-01
         -2   -1    0    0    0  501 -0.00000000000E+00  0.00000000000E+00  0.44051506221E+03  0.44051506221E+03  0.00000000000E+00 0.  1.
          2   -1    0    0  501    0  0.00000000000E+00 -0.00000000000E+00 -0.33568714234E+04  0.33568714234E+04  0.00000000000E+00 0. -1.
         23    2    1    2    0    0  0.85900590466E+03 -0.21227835472E+03 -0.27590640224E+04  0.28986684408E+04  0.83013288488E+02 0.  0.
         11    1    3    3    0    0  0.37743955997E+03 -0.90386064975E+02 -0.10775758558E+04  0.11453383723E+04  0.00000000000E+00 0. -1.
        -11    1    3    3    0    0  0.48156634469E+03 -0.12189228975E+03 -0.16814881666E+04  0.17533300685E+04  0.00000000000E+00 0.  1.
         22    1    1    2    0    0 -0.85900590466E+03  0.21227835472E+03 -0.15729233876E+03  0.89871804475E+03  0.00000000000E+00 0.  1.
<mgrwt>
<rscale>  0 0.24320793E+04</rscale>
<asrwt>0</asrwt>
<pdfrwt beam="1">  1        2 0.51644174E+00 0.24320793E+04</pdfrwt>
<pdfrwt beam="2">  1       -2 0.67771550E-01 0.24320793E+04</pdfrwt>
<totfact> 0.18270583E+00</totfact>
</mgrwt>
</event>
<event>
 6    1  0.1028026E-006  0.2810283E+04  0.7818608E-02  0.8300083E-01
          1   -1    0    0  501    0  0.00000000000E+00  0.00000000000E+00  0.32898856637E+04  0.32898856637E+04  0.00000000000E+00 0. -1.
         -1   -1    0    0    0  501 -0.00000000000E+00 -0.00000000000E+00 -0.60014928147E+03  0.60014928147E+03  0.00000000000E+00 0.  1.
         23    2    1    2    0    0  0.84727784621E+03 -0.65589302584E+03  0.91143772480E+02  0.10792060707E+04  0.91121598965E+02 0.  0.
         11    1    3    3    0    0  0.31696916503E+03 -0.20737205045E+03  0.58566523734E+00  0.37877824897E+03  0.00000000000E+00 0.  1.
        -11    1    3    3    0    0  0.53030868118E+03 -0.44852097539E+03  0.90558107243E+02  0.70042782175E+03  0.00000000000E+00 0. -1.
         22    1    1    2    0    0 -0.84727784621E+03  0.65589302584E+03  0.25985926097E+04  0.28108288744E+04  0.00000000000E+00 0. -1.
<mgrwt>
<rscale>  0 0.28102829E+04</rscale>
<asrwt>0</asrwt>
<pdfrwt beam="1">  1        1 0.50613625E+00 0.28102829E+04</pdfrwt>
<pdfrwt beam="2">  1       -1 0.92330660E-01 0.28102829E+04</pdfrwt>
<totfact> 0.35867944E-01</totfact>
</mgrwt>
</event>
<event>
 6    1  0.1028026E-006  0.3799739E+04  0.7818608E-02  0.8046211E-01
          2   -1    0    0  501    0  0.00000000000E+00  0.00000000000E+00  0.33444284759E+04  0.33444284759E+04  0.00000000000E+00 0. -1.
         -2   -1    0    0    0  501 -0.00000000000E+00 -0.00000000000E+00 -0.10792586097E+04  0.10792586097E+04  0.00000000000E+00 0.  1.
         23    2    1    2    0    0 -0.11273221177E+04 -0.15011279131E+04  0.80209265947E+03  0.20435956837E+04  0.93222935716E+02 0.  0.
         13    1    3    3    0    0 -0.89199761419E+03 -0.12478394182E+04  0.65579617796E+03  0.16681821197E+04  0.00000000000E+00 0.  1.
        -13    1    3    3    0    0 -0.23532450349E+03 -0.25328849485E+03  0.14629648151E+03  0.37541356404E+03  0.00000000000E+00 0. -1.
         22    1    1    2    0    0  0.11273221177E+04  0.15011279131E+04  0.14630772067E+04  0.23800914019E+04  0.00000000000E+00 0. -1.
<mgrwt>
<rscale>  0 0.37997385E+04</rscale>
<asrwt>0</asrwt>
<pdfrwt beam="1">  1        2 0.51452745E+00 0.37997385E+04</pdfrwt>
<pdfrwt beam="2">  1       -2 0.16603979E+00 0.37997385E+04</pdfrwt>
<totfact> 0.18947536E-01</totfact>
</mgrwt>
</event>
<event>
 6    1  0.1028026E-006  0.1862768E+04  0.7818608E-02  0.8673614E-01
         -2   -1    0    0    0  501 -0.00000000000E+00  0.00000000000E+00  0.77028115721E+03  0.77028115721E+03  0.00000000000E+00 0.  1.
          2   -1    0    0  501    0  0.00000000000E+00 -0.00000000000E+00 -0.11261815916E+04  0.11261815916E+04  0.00000000000E+00 0. -1.
         23    2    1    2    0    0  0.76544220671E+03  0.39707399757E+03  0.17376349424E+03  0.88447786325E+03  0.92400255873E+02 0.  0.
         13    1    3    3    0    0  0.34805467023E+03  0.19828206479E+03  0.36554479884E+02  0.40223632442E+03  0.00000000000E+00 0. -1.
        -13    1    3    3    0    0  0.41738753648E+03  0.19879193278E+03  0.13720901435E+03  0.48224153882E+03  0.00000000000E+00 0.  1.
         22    1    1    2    0    0 -0.76544220671E+03 -0.39707399757E+03 -0.52966392865E+03  0.10119848856E+04  0.00000000000E+00 0.  1.
<mgrwt>
<rscale>  0 0.18627683E+04</rscale>
<asrwt>0</asrwt>
<pdfrwt beam="1">  1        2 0.17325871E+00 0.18627683E+04</pdfrwt>
<pdfrwt beam="2">  1       -2 0.11850479E+00 0.18627683E+04</pdfrwt>
<totfact> 0.10804037E+01</totfact>
</mgrwt>
</event>
<event>
 6    1  0.1028026E-006  0.3650536E+04  0.7818608E-02  0.8079013E-01
          2   -1    0    0  501    0  0.00000000000E+00  0.00000000000E+00  0.18578773150E+04  0.18578773150E+04  0.00000000000E+00 0. -1.
         -2   -1    0    0    0  501 -0.00000000000E+00 -0.00000000000E+00 -0.17932311321E+04  0.17932311321E+04  0.00000000000E+00 0.  1.
         23    2    1    2    0    0  0.14902151431E+04 -0.41149061464E+03  0.10006494893E+04  0.18438542071E+04  0.91832661913E+02 0.  0.
         11    1    3    3    0    0  0.76518894934E+03 -0.17245785738E+03  0.47544297781E+03  0.91722509010E+03  0.00000000000E+00 0. -1.
        -11    1    3    3    0    0  0.72502619375E+03 -0.23903275726E+03  0.52520651150E+03  0.92662911696E+03  0.00000000000E+00 0.  1.
         22    1    1    2    0    0 -0.14902151431E+04  0.41149061464E+03 -0.93600330646E+03  0.18072542401E+04  0.00000000000E+00 0.  1.
<mgrwt>
<rscale>  0 0.36505361E+04</rscale>
<asrwt>0</asrwt>
<pdfrwt beam="1">  1        2 0.28582728E+00 0.36505361E+04</pdfrwt>
<pdfrwt beam="2">  1       -2 0.27588171E+00 0.36505361E+04</pdfrwt>
<totfact> 0.29023755E-01</totfact>
</mgrwt>
</event>
<event>
 6    1  0.1028026E-006  0.4910459E+04  0.7818608E-02  0.7842470E-01
         -2   -1    0    0    0  501 -0.00000000000E+00  0.00000000000E+00  0.24839124783E+04  0.24839124783E+04  0.00000000000E+00 0.  1.
          2   -1    0    0  501    0  0.00000000000E+00 -0.00000000000E+00 -0.24268772966E+04  0.24268772966E+04  0.00000000000E+00 0. -1.
         23    2    1    2    0    0  0.24944411611E+03 -0.14882877079E+04 -0.19072959374E+04  0.24337311536E+04  0.89704328360E+02 0.  0.
         13    1    3    3    0    0  0.31706333341E+02 -0.17760294552E+03 -0.27743039652E+03  0.33093159829E+03  0.00000000000E+00 0. -1.
        -13    1    3    3    0    0  0.21773778277E+03 -0.13106847624E+04 -0.16298655408E+04  0.21027995553E+04  0.00000000000E+00 0.  1.
         22    1    1    2    0    0 -0.24944411611E+03  0.14882877079E+04  0.19643311190E+04  0.24770586214E+04  0.00000000000E+00 0.  1.
<mgrwt>
<rscale>  0 0.49104586E+04</rscale>
<asrwt>0</asrwt>
<pdfrwt beam="1">  1        2 0.37336574E+00 0.49104586E+04</pdfrwt>
<pdfrwt beam="2">  1       -2 0.38214038E+00 0.49104586E+04</pdfrwt>
<totfact> 0.27291913E-02</totfact>
</mgrwt>
</event>
<event>
 6    1  0.1028026E-006  0.1879323E+04  0.7818608E-02  0.8665218E-01
          1   -1    0    0  501    0  0.00000000000E+00  0.00000000000E+00  0.76474460530E+03  0.76474460530E+03  0.00000000000E+00 0. -1.
         -1   -1    0    0    0  501 -0.00000000000E+00 -0.00000000000E+00 -0.11545862034E+04  0.11545862034E+04  0.00000000000E+00 0.  1.
         23    2    1    2    0    0 -0.86777924123E+03  0.23788601346E+03  0.73477144819E+02  0.90725629344E+03  0.89913982586E+02 0.  0.
         13    1    3    3    0    0 -0.49914133124E+03  0.16839218275E+03  0.10567046126E+02  0.52688676035E+03  0.00000000000E+00 0. -1.
        -13    1    3    3    0    0 -0.36863790999E+03  0.69493830710E+02  0.62910098693E+02  0.38036953309E+03  0.00000000000E+00 0.  1.
         22    1    1    2    0    0  0.86777924123E+03 -0.23788601346E+03 -0.46331874294E+03  0.10120745153E+04  0.00000000000E+00 0.  1.
<mgrwt>
<rscale>  0 0.18793228E+04</rscale>
<asrwt>0</asrwt>
<pdfrwt beam="1">  1        1 0.11765302E+00 0.18793228E+04</pdfrwt>
<pdfrwt beam="2">  1       -1 0.17762865E+00 0.18793228E+04</pdfrwt>
<totfact> 0.48193473E+00</totfact>
</mgrwt>
</event>
<event>
 6    1  0.1028026E-006  0.2980858E+04  0.7818608E-02  0.8249218E-01
          1   -1    0    0  501    0  0.00000000000E+00  0.00000000000E+00  0.22262009010E+04  0.22262009010E+04  0.00000000000E+00 0. -1.
         -1   -1    0    0    0  501 -0.00000000000E+00 -0.00000000000E+00 -0.99783366812E+03  0.99783366812E+03  0.00000000000E+00 0.  1.
         23    2    1    2    0    0  0.10057837043E+04  0.10930635910E+04  0.72724454102E+03  0.16563889376E+04  0.91382802645E+02 0.  0.
         13    1    3    3    0    0  0.29830092579E+03  0.38715123588E+03  0.23347789384E+03  0.54164697791E+03  0.00000000000E+00 0.  1.
        -13    1    3    3    0    0  0.70748277846E+03  0.70591235510E+03  0.49376664717E+03  0.11147419597E+04  0.00000000000E+00 0. -1.
         22    1    1    2    0    0 -0.10057837043E+04 -0.10930635910E+04  0.50112269189E+03  0.15676456315E+04  0.00000000000E+00 0.  1.
<mgrwt>
<rscale>  0 0.29808577E+04</rscale>
<asrwt>0</asrwt>
<pdfrwt beam="1">  1        1 0.34249245E+00 0.29808577E+04</pdfrwt>
<pdfrwt beam="2">  1       -1 0.15351287E+00 0.29808577E+04</pdfrwt>
<totfact> 0.58382787E-01</totfact>
</mgrwt>
</event>
<event>
 6    1  0.1028026E-006  0.5203708E+04  0.7818608E-02  0.7797829E-01
          1   -1    0    0  501    0  0.00000000000E+00  0.00000000000E+00  0.32433470241E+04  0.32433470241E+04  0.00000000000E+00 0. -1.
         -1   -1    0    0    0  501 -0.00000000000E+00 -0.00000000000E+00 -0.20872403090E+04  0.20872403090E+04  0.00000000000E+00 0.  1.
         23    2    1    2    0    0  0.70284589332E+03 -0.73572902061E+03  0.30303437917E+04  0.31979705928E+04  0.93503342437E+02 0.  0.
         11    1    3    3    0    0  0.92515729714E+02 -0.66755819552E+02  0.40938942392E+03  0.42498847056E+03  0.00000000000E+00 0.  1.
        -11    1    3    3    0    0  0.61033016360E+03 -0.66897320106E+03  0.26209543678E+04  0.27729821222E+04  0.00000000000E+00 0. -1.
         22    1    1    2    0    0 -0.70284589332E+03  0.73572902061E+03 -0.18742370767E+04  0.21326167403E+04  0.00000000000E+00 0.  1.
<mgrwt>
<rscale>  0 0.52037082E+04</rscale>
<asrwt>0</asrwt>
<pdfrwt beam="1">  1        1 0.49897646E+00 0.52037082E+04</pdfrwt>
<pdfrwt beam="2">  1       -1 0.32111389E+00 0.52037082E+04</pdfrwt>
<totfact> 0.67395400E-03</totfact>
</mgrwt>
</event>
<event>
 6    1  0.1028026E-006  0.1918386E+04  0.7818608E-02  0.8645758E-01
         -2   -1    0    0    0  501 -0.00000000000E+00  0.00000000000E+00  0.40651034181E+03  0.40651034181E+03  0.00000000000E+00 0.  1.
          2   -1    0    0  501    0  0.00000000000E+00 -0.00000000000E+00 -0.22632908979E+04  0.22632908979E+04  0.00000000000E+00 0. -1.
         23    2    1    2    0    0 -0.90558305171E+02 -0.79064867084E+03 -0.16702565935E+04  0.18524168038E+04  0.91459278957E+02 0.  0.
         13    1    3    3    0    0 -0.75438756943E+02 -0.31089361093E+03 -0.71703936297E+03  0.78516959405E+03  0.00000000000E+00 0.  1.
        -13    1    3    3    0    0 -0.15119548228E+02 -0.47975505991E+03 -0.95321723053E+03  0.10672472098E+04  0.00000000000E+00 0. -1.
         22    1    1    2    0    0  0.90558305171E+02  0.79064867084E+03 -0.18652396256E+03  0.81738443583E+03  0.00000000000E+00 0.  1.
<mgrwt>
<rscale>  0 0.19183859E+04</rscale>
<asrwt>0</asrwt>
<pdfrwt beam="1">  1        2 0.34819860E+00 0.19183859E+04</pdfrwt>
<pdfrwt beam="2">  1       -2 0.62540053E-01 0.19183859E+04</pdfrwt>
<totfact> 0.10549831E+01</totfact>
</mgrwt>
</event>
<event>
 6    1  0.1028026E-006  0.3698852E+04  0.7818608E-02  0.8068216E-01
         -1   -1    0    0    0  501 -0.00000000000E+00  0.00000000000E+00  0.17429299418E+04  0.17429299418E+04  0.00000000000E+00 0.  1.
          1   -1    0    0  501    0  0.00000000000E+00 -0.00000000000E+00 -0.19624286237E+04  0.19624286237E+04  0.00000000000E+00 0. -1.
         23    2    1    2    0    0  0.20261840386E+03  0.93281484346E+03  0.14755988724E+04  0.17599656828E+04  0.94283734469E+02 0.  0.
         13    1    3    3    0    0  0.69874040206E+02  0.52810069173E+03  0.85030057361E+03  0.10033861608E+04  0.00000000000E+00 0.  1.
        -13    1    3    3    0    0  0.13274436365E+03  0.40471415173E+03  0.62529829877E+03  0.75657952202E+03  0.00000000000E+00 0. -1.
         22    1    1    2    0    0 -0.20261840386E+03 -0.93281484346E+03 -0.16950975542E+04  0.19453928827E+04  0.00000000000E+00 0. -1.
<mgrwt>
<rscale>  0 0.36988515E+04</rscale>
<asrwt>0</asrwt>
<pdfrwt beam="1">  1        1 0.30191210E+00 0.36988515E+04</pdfrwt>
<pdfrwt beam="2">  1       -1 0.26814307E+00 0.36988515E+04</pdfrwt>
<totfact> 0.13471382E-01</totfact>
</mgrwt>
</event>
<event>
 6    1  0.1548848E-006  0.2496627E+04  0.7818608E-02  0.8404188E-01
         -2   -1    0    0    0  501 -0.00000000000E+00  0.00000000000E+00  0.65219908445E+03  0.65219908445E+03  0.00000000000E+00 0.  1.
          2   -1    0    0  501    0  0.00000000000E+00 -0.00000000000E+00 -0.23892811989E+04  0.23892811989E+04  0.00000000000E+00 0. -1.
         23    2    1    2    0    0  0.39890648447E+03  0.48317998241E+03 -0.21828207322E+04  0.22725380267E+04  0.84459784121E+02 0.  0.
         11    1    3    3    0    0  0.14891327076E+03  0.24517169718E+03 -0.96156330086E+03  0.10034382417E+04  0.00000000000E+00 0.  1.
        -11    1    3    3    0    0  0.24999321371E+03  0.23800828522E+03 -0.12212574313E+04  0.12690997850E+04  0.00000000000E+00 0. -1.
         22    1    1    2    0    0 -0.39890648447E+03 -0.48317998241E+03  0.44573861773E+03  0.76894225666E+03  0.00000000000E+00 0.  1.
<mgrwt>
<rscale>  0 0.24966273E+04</rscale>
<asrwt>0</asrwt>
<pdfrwt beam="1">  1        2 0.36758173E+00 0.24966273E+04</pdfrwt>
<pdfrwt beam="2">  1       -2 0.10033832E+00 0.24966273E+04</pdfrwt>
<totfact> 0.29470558E+00</totfact>
</mgrwt>
</event>
<event>
 6    1  0.1028026E-006  0.2218727E+04  0.7818608E-02  0.8510674E-01
         -1   -1    0    0    0  501 -0.00000000000E+00  0.00000000000E+00  0.83498830353E+03  0.83498830353E+03  0.00000000000E+00 0.  1.
          1   -1    0    0  501    0  0.00000000000E+00 -0.00000000000E+00 -0.14738983770E+04  0.14738983770E+04  0.00000000000E+00 0. -1.
         23    2    1    2    0    0 -0.21390120846E+03 -0.67911434248E+03 -0.12027219543E+04  0.14006830392E+04  0.91776139665E+02 0.  0.
         11    1    3    3    0    0 -0.14693192089E+03 -0.51578764781E+03 -0.82876183087E+03  0.98715351355E+03  0.00000000000E+00 0. -1.
        -11    1    3    3    0    0 -0.66969287573E+02 -0.16332669467E+03 -0.37396012343E+03  0.41352952565E+03  0.00000000000E+00 0.  1.
         22    1    1    2    0    0  0.21390120846E+03  0.67911434248E+03  0.56381188084E+03  0.90820364133E+03  0.00000000000E+00 0.  1.
<mgrwt>
<rscale>  0 0.22187275E+04</rscale>
<asrwt>0</asrwt>
<pdfrwt beam="1">  1        1 0.22675360E+00 0.22187275E+04</pdfrwt>
<pdfrwt beam="2">  1       -1 0.12845974E+00 0.22187275E+04</pdfrwt>
<totfact> 0.32447853E+00</totfact>
</mgrwt>
</event>
<event>
 6    1  0.1028026E-006  0.1755341E+04  0.7818608E-02  0.8730416E-01
          2   -1    0    0  501    0  0.00000000000E+00  0.00000000000E+00  0.10641236783E+04  0.10641236783E+04  0.00000000000E+00 0. -1.
         -2   -1    0    0    0  501 -0.00000000000E+00 -0.00000000000E+00 -0.72388708935E+03  0.72388708935E+03  0.00000000000E+00 0.  1.
         23    2    1    2    0    0  0.16631101269E+03  0.42206207813E+03  0.93312203601E+03  0.10414795198E+04  0.90372038777E+02 0.  0.
         13    1    3    3    0    0  0.14833596339E+03  0.26015978183E+03  0.61840434366E+03  0.68710305077E+03  0.00000000000E+00 0. -1.
        -13    1    3    3    0    0  0.17975049298E+02  0.16190229629E+03  0.31471769235E+03  0.35437646906E+03  0.00000000000E+00 0.  1.
         22    1    1    2    0    0 -0.16631101269E+03 -0.42206207813E+03 -0.59288544702E+03  0.74653124786E+03  0.00000000000E+00 0.  1.
<mgrwt>
<rscale>  0 0.17553409E+04</rscale>
<asrwt>0</asrwt>
<pdfrwt beam="1">  1        2 0.16371134E+00 0.17553409E+04</pdfrwt>
<pdfrwt beam="2">  1       -2 0.11136724E+00 0.17553409E+04</pdfrwt>
<totfact> 0.13856847E+01</totfact>
</mgrwt>
</event>
<event>
 6    1  0.1028026E-006  0.5591082E+03  0.7818608E-02  0.9994074E-01
         -2   -1    0    0    0  501 -0.00000000000E+00  0.00000000000E+00  0.19231150010E+02  0.19231150010E+02  0.00000000000E+00 0.  1.
          2   -1    0    0  501    0  0.00000000000E+00 -0.00000000000E+00 -0.40637457765E+04  0.40637457765E+04  0.00000000000E+00 0. -1.
         23    2    1    2    0    0  0.92995057971E+02  0.18895480683E+03 -0.33354284232E+04  0.33432774987E+04  0.89831325769E+02 0.  0.
         11    1    3    3    0    0  0.27646629126E+02 -0.14145165288E+01 -0.40762928008E+03  0.40856819130E+03  0.00000000000E+00 0. -1.
        -11    1    3    3    0    0  0.65348428845E+02  0.19036932336E+03 -0.29277991431E+04  0.29347093074E+04  0.00000000000E+00 0.  1.
         22    1    1    2    0    0 -0.92995057971E+02 -0.18895480683E+03 -0.70908620335E+03  0.73969942788E+03  0.00000000000E+00 0.  1.
<mgrwt>
<rscale>  0 0.55910824E+03</rscale>
<asrwt>0</asrwt>
<pdfrwt beam="1">  1        2 0.62519230E+00 0.55910824E+03</pdfrwt>
<pdfrwt beam="2">  1       -2 0.29586354E-02 0.55910824E+03</pdfrwt>
<totfact> 0.16014004E+02</totfact>
</mgrwt>
</event>
<event>
 6    1  0.1028026E-006  0.2032891E+04  0.7818608E-02  0.8591396E-01
         -2   -1    0    0    0  501 -0.00000000000E+00  0.00000000000E+00  0.10224603869E+04  0.10224603869E+04  0.00000000000E+00 0.  1.
          2   -1    0    0  501    0  0.00000000000E+00 -0.00000000000E+00 -0.10104662239E+04  0.10104662239E+04  0.00000000000E+00 0. -1.
         23    2    1    2    0    0  0.72159651719E+03  0.34478436595E+03  0.63030298726E+03  0.10220440286E+04  0.87831361743E+02 0.  0.
         13    1    3    3    0    0  0.23493846035E+03  0.11238515285E+03  0.15423956796E+03  0.30268192390E+03  0.00000000000E+00 0.  1.
        -13    1    3    3    0    0  0.48665805684E+03  0.23239921310E+03  0.47606341930E+03  0.71936210474E+03  0.00000000000E+00 0. -1.
         22    1    1    2    0    0 -0.72159651719E+03 -0.34478436595E+03 -0.61830882427E+03  0.10108825821E+04  0.00000000000E+00 0. -1.
<mgrwt>
<rscale>  0 0.20328912E+04</rscale>
<asrwt>0</asrwt>
<pdfrwt beam="1">  1        2 0.15545634E+00 0.20328912E+04</pdfrwt>
<pdfrwt beam="2">  1       -2 0.15730160E+00 0.20328912E+04</pdfrwt>
<totfact> 0.60617918E+00</totfact>
</mgrwt>
</event>
<event>
 6    1  0.1028026E-006  0.1807989E+04  0.7818608E-02  0.8702062E-01
          2   -1    0    0  501    0  0.00000000000E+00  0.00000000000E+00  0.67852394461E+03  0.67852394461E+03  0.00000000000E+00 0. -1.
         -2   -1    0    0    0  501 -0.00000000000E+00 -0.00000000000E+00 -0.12043884682E+04  0.12043884682E+04  0.00000000000E+00 0.  1.
         23    2    1    2    0    0 -0.85113709535E+03  0.28613239090E+03 -0.17845239832E+03  0.92010335335E+03  0.91863062058E+02 0.  0.
         11    1    3    3    0    0 -0.49448338579E+03  0.20022744932E+03 -0.13787769771E+03  0.55101280367E+03  0.00000000000E+00 0.  1.
        -11    1    3    3    0    0 -0.35665370956E+03  0.85904941581E+02 -0.40574700616E+02  0.36909054968E+03  0.00000000000E+00 0. -1.
         22    1    1    2    0    0  0.85113709535E+03 -0.28613239090E+03 -0.34741212528E+03  0.96280905947E+03  0.00000000000E+00 0.  1.
<mgrwt>
<rscale>  0 0.18079894E+04</rscale>
<asrwt>0</asrwt>
<pdfrwt beam="1">  1        2 0.10438830E+00 0.18079894E+04</pdfrwt>
<pdfrwt beam="2">  1       -2 0.18529053E+00 0.18079894E+04</pdfrwt>
<totfact> 0.67011196E+00</totfact>
</mgrwt>
</event>
<event>
 6    1  0.1028026E-006  0.2210043E+04  0.7818608E-02  0.8514259E-01
          1   -1    0    0  501    0  0.00000000000E+00  0.00000000000E+00  0.12670394835E+04  0.12670394835E+04  0.00000000000E+00 0. -1.
         -1   -1    0    0    0  501 -0.00000000000E+00 -0.00000000000E+00 -0.96372137702E+03  0.96372137702E+03  0.00000000000E+00 0.  1.
         23    2    1    2    0    0 -0.27379847191E+03  0.15922304235E+02  0.12304071638E+04  0.12639551701E+04  0.91987827698E+02 0.  0.
         11    1    3    3    0    0 -0.90209790246E+02 -0.77584248898E+01  0.60469270895E+03  0.61143378356E+03  0.00000000000E+00 0. -1.
        -11    1    3    3    0    0 -0.18358868166E+03  0.23680729125E+02  0.62571445482E+03  0.65252138658E+03  0.00000000000E+00 0.  1.
         22    1    1    2    0    0  0.27379847191E+03 -0.15922304235E+02 -0.92708905724E+03  0.96680569043E+03  0.00000000000E+00 0.  1.
<mgrwt>
<rscale>  0 0.22100435E+04</rscale>
<asrwt>0</asrwt>
<pdfrwt beam="1">  1        1 0.19492915E+00 0.22100435E+04</pdfrwt>
<pdfrwt beam="2">  1       -1 0.14826483E+00 0.22100435E+04</pdfrwt>
<totfact> 0.31328235E+00</totfact>
</mgrwt>
</event>
<event>
 6    1  0.1153197E-006  0.2341865E+04  0.7818608E-02  0.8461595E-01
          1   -1    0    0  501    0  0.00000000000E+00  0.00000000000E+00  0.10488328425E+04  0.10488328425E+04  0.00000000000E+00 0. -1.
         -1   -1    0    0    0  501 -0.00000000000E+00 -0.00000000000E+00 -0.13072464558E+04  0.13072464558E+04  0.00000000000E+00 0.  1.
         23    2    1    2    0    0  0.61356285600E+02  0.53857137402E+03 -0.11716107984E+04  0.12941222288E+04  0.90866723716E+02 0.  0.
         11    1    3    3    0    0 -0.22655258171E+02  0.15989855386E+03 -0.36214463385E+03  0.39652180782E+03  0.00000000000E+00 0.  1.
        -11    1    3    3    0    0  0.84011543772E+02  0.37867282016E+03 -0.80946616457E+03  0.89760042101E+03  0.00000000000E+00 0. -1.
         22    1    1    2    0    0 -0.61356285600E+02 -0.53857137402E+03  0.91319718511E+03  0.10619570696E+04  0.00000000000E+00 0. -1.
<mgrwt>
<rscale>  0 0.23418651E+04</rscale>
<asrwt>0</asrwt>
<pdfrwt beam="1">  1        1 0.16135890E+00 0.23418651E+04</pdfrwt>
<pdfrwt beam="2">  1       -1 0.20111484E+00 0.23418651E+04</pdfrwt>
<totfact> 0.18467456E+00</totfact>
</mgrwt>
</event>
<event>
 6    1  0.1028026E-006  0.1927715E+04  0.7818608E-02  0.8641183E-01
          1   -1    0    0  501    0  0.00000000000E+00  0.00000000000E+00  0.11670811635E+04  0.11670811635E+04  0.00000000000E+00 0. -1.
         -1   -1    0    0    0  501 -0.00000000000E+00 -0.00000000000E+00 -0.79602094415E+03  0.79602094415E+03  0.00000000000E+00 0.  1.
         23    2    1    2    0    0 -0.28511347106E+03 -0.26453629583E+02  0.11208388972E+04  0.11605078442E+04  0.92244984365E+02 0.  0.
         13    1    3    3    0    0 -0.12368642834E+03 -0.57519686299E+02  0.51696128558E+03  0.53465485844E+03  0.00000000000E+00 0.  1.
        -13    1    3    3    0    0 -0.16142704272E+03  0.31066056716E+02  0.60387761163E+03  0.62585298580E+03  0.00000000000E+00 0. -1.
         22    1    1    2    0    0  0.28511347106E+03  0.26453629583E+02 -0.74977867786E+03  0.80259426341E+03  0.00000000000E+00 0.  1.
<mgrwt>
<rscale>  0 0.19277148E+04</rscale>
<asrwt>0</asrwt>
<pdfrwt beam="1">  1        1 0.17955095E+00 0.19277148E+04</pdfrwt>
<pdfrwt beam="2">  1       -1 0.12246476E+00 0.19277148E+04</pdfrwt>
<totfact> 0.62105253E+00</totfact>
</mgrwt>
</event>
<event>
 6    1  0.1028026E-006  0.1975990E+04  0.7818608E-02  0.8617929E-01
         -1   -1    0    0    0  501 -0.00000000000E+00  0.00000000000E+00  0.10776520528E+04  0.10776520528E+04  0.00000000000E+00 0.  1.
          1   -1    0    0  501    0  0.00000000000E+00 -0.00000000000E+00 -0.90579724470E+03  0.90579724470E+03  0.00000000000E+00 0. -1.
         23    2    1    2    0    0 -0.19733938271E+03 -0.95509473172E+03  0.23360744777E+03  0.10062276404E+04  0.82297303567E+02 0.  0.
         13    1    3    3    0    0 -0.41639033737E+02 -0.39012315160E+03  0.10710875556E+03  0.40669665362E+03  0.00000000000E+00 0. -1.
        -13    1    3    3    0    0 -0.15570034897E+03 -0.56497158012E+03  0.12649869221E+03  0.59953098681E+03  0.00000000000E+00 0.  1.
         22    1    1    2    0    0  0.19733938271E+03  0.95509473172E+03 -0.61752639691E+02  0.97722165706E+03  0.00000000000E+00 0.  1.
<mgrwt>
<rscale>  0 0.19759901E+04</rscale>
<asrwt>0</asrwt>
<pdfrwt beam="1">  1        1 0.13935342E+00 0.19759901E+04</pdfrwt>
<pdfrwt beam="2">  1       -1 0.16579262E+00 0.19759901E+04</pdfrwt>
<totfact> 0.44230690E+00</totfact>
</mgrwt>
</event>
<event>
 6    1  0.1028026E-006  0.3852929E+04  0.7818608E-02  0.8034891E-01
          2   -1    0    0  501    0  0.00000000000E+00  0.00000000000E+00  0.16457151664E+04  0.16457151664E+04  0.00000000000E+00 0. -1.
         -2   -1    0    0    0  501 -0.00000000000E+00 -0.00000000000E+00 -0.22551083535E+04  0.22551083535E+04  0.00000000000E+00 0.  1.
         23    2    1    2    0    0 -0.16730896951E+04  0.60667361941E+03 -0.10477970256E+04  0.20679351071E+04  0.10580638912E+03 0.  0.
         13    1    3    3    0    0 -0.43043303480E+03  0.13287800889E+03 -0.31281560095E+03  0.54843665349E+03  0.00000000000E+00 0. -1.
        -13    1    3    3    0    0 -0.12426566603E+04  0.47379561052E+03 -0.73498142461E+03  0.15194984536E+04  0.00000000000E+00 0.  1.
         22    1    1    2    0    0  0.16730896951E+04 -0.60667361941E+03  0.43840383844E+03  0.18328884128E+04  0.00000000000E+00 0. -1.
<mgrwt>
<rscale>  0 0.38529293E+04</rscale>
<asrwt>0</asrwt>
<pdfrwt beam="1">  1        2 0.25318695E+00 0.38529293E+04</pdfrwt>
<pdfrwt beam="2">  1       -2 0.34693974E+00 0.38529293E+04</pdfrwt>
<totfact> 0.13648745E-01</totfact>
</mgrwt>
</event>
<event>
 6    1  0.1028026E-006  0.3902102E+04  0.7818608E-02  0.8024592E-01
          2   -1    0    0  501    0  0.00000000000E+00  0.00000000000E+00  0.22905793601E+04  0.22905793601E+04  0.00000000000E+00 0. -1.
         -2   -1    0    0    0  501 -0.00000000000E+00 -0.00000000000E+00 -0.16618506909E+04  0.16618506909E+04  0.00000000000E+00 0.  1.
         23    2    1    2    0    0  0.10644548143E+04  0.17448929634E+03  0.19599822455E+04  0.22390279819E+04  0.90583303066E+02 0.  0.
         13    1    3    3    0    0  0.10357464080E+04  0.15935819297E+03  0.18736079060E+04  0.21467585427E+04  0.00000000000E+00 0. -1.
        -13    1    3    3    0    0  0.28708406341E+02  0.15131103371E+02  0.86374339429E+02  0.92269439121E+02  0.00000000000E+00 0.  1.
         22    1    1    2    0    0 -0.10644548143E+04 -0.17448929634E+03 -0.13312535763E+04  0.17134020692E+04  0.00000000000E+00 0.  1.
<mgrwt>
<rscale>  0 0.39021025E+04</rscale>
<asrwt>0</asrwt>
<pdfrwt beam="1">  1        2 0.35239682E+00 0.39021025E+04</pdfrwt>
<pdfrwt beam="2">  1       -2 0.25566934E+00 0.39021025E+04</pdfrwt>
<totfact> 0.21645951E-01</totfact>
</mgrwt>
</event>
<event>
 6    1  0.1028026E-006  0.7501544E+03  0.7818608E-02  0.9635108E-01
          2   -1    0    0  501    0  0.00000000000E+00  0.00000000000E+00  0.13104169082E+04  0.13104169082E+04  0.00000000000E+00 0. -1.
         -2   -1    0    0    0  501 -0.00000000000E+00 -0.00000000000E+00 -0.10735735394E+03  0.10735735394E+03  0.00000000000E+00 0.  1.
         23    2    1    2    0    0  0.14920416107E+03 -0.32118999927E+03  0.41056784416E+03  0.54974891235E+03  0.90735961221E+02 0.  0.
         13    1    3    3    0    0  0.15394525417E+03 -0.29913736334E+03  0.40501994096E+03  0.52652013827E+03  0.00000000000E+00 0.  1.
        -13    1    3    3    0    0 -0.47410931021E+01 -0.22052635931E+02  0.55479031986E+01  0.23228774079E+02  0.00000000000E+00 0. -1.
         22    1    1    2    0    0 -0.14920416107E+03  0.32118999927E+03  0.79249171006E+03  0.86802534976E+03  0.00000000000E+00 0. -1.
<mgrwt>
<rscale>  0 0.75015436E+03</rscale>
<asrwt>0</asrwt>
<pdfrwt beam="1">  1        2 0.20160259E+00 0.75015436E+03</pdfrwt>
<pdfrwt beam="2">  1       -2 0.16516517E-01 0.75015436E+03</pdfrwt>
<totfact> 0.48923688E+02</totfact>
</mgrwt>
</event>
<event>
 6    1  0.1028026E-006  0.7876470E+03  0.7818608E-02  0.9578072E-01
          2   -1    0    0  501    0  0.00000000000E+00  0.00000000000E+00  0.19814745437E+03  0.19814745437E+03  0.00000000000E+00 0. -1.
         -2   -1    0    0    0  501 -0.00000000000E+00 -0.00000000000E+00 -0.78273506053E+03  0.78273506053E+03  0.00000000000E+00 0.  1.
         23    2    1    2    0    0 -0.48196913060E+02  0.19421074594E+03 -0.70994577034E+03  0.74475664679E+03  0.10295003564E+03 0.  0.
         11    1    3    3    0    0 -0.67945732948E+02  0.68120907582E+02 -0.26779044073E+03  0.28455017277E+03  0.00000000000E+00 0.  1.
        -11    1    3    3    0    0  0.19748819889E+02  0.12608983836E+03 -0.44215532961E+03  0.46020647402E+03  0.00000000000E+00 0. -1.
         22    1    1    2    0    0  0.48196913060E+02 -0.19421074594E+03  0.12535816418E+03  0.23612586811E+03  0.00000000000E+00 0. -1.
<mgrwt>
<rscale>  0 0.78764703E+03</rscale>
<asrwt>0</asrwt>
<pdfrwt beam="1">  1        2 0.30484224E-01 0.78764703E+03</pdfrwt>
<pdfrwt beam="2">  1       -2 0.12042078E+00 0.78764703E+03</pdfrwt>
<totfact> 0.92714457E+01</totfact>
</mgrwt>
</event>
<event>
 6    1  0.1028026E-006  0.1793451E+04  0.7818608E-02  0.8709790E-01
          1   -1    0    0  501    0  0.00000000000E+00  0.00000000000E+00  0.40795891949E+03  0.40795891949E+03  0.00000000000E+00 0. -1.
         -1   -1    0    0    0  501 -0.00000000000E+00 -0.00000000000E+00 -0.19710717588E+04  0.19710717588E+04  0.00000000000E+00 0.  1.
         23    2    1    2    0    0 -0.68317132658E+03  0.15669081064E+03 -0.46540418541E+02  0.70832215223E+03  0.90990049953E+02 0.  0.
         11    1    3    3    0    0 -0.48967265495E+03  0.11988597663E+03 -0.73689721749E+02  0.50949203280E+03  0.00000000000E+00 0.  1.
        -11    1    3    3    0    0 -0.19349867163E+03  0.36804834006E+02  0.27149303208E+02  0.19883011943E+03  0.00000000000E+00 0. -1.
         22    1    1    2    0    0  0.68317132658E+03 -0.15669081064E+03 -0.15165724208E+04  0.16707085261E+04  0.00000000000E+00 0.  1.
<mgrwt>
<rscale>  0 0.17934506E+04</rscale>
<asrwt>0</asrwt>
<pdfrwt beam="1">  1        1 0.62762911E-01 0.17934506E+04</pdfrwt>
<pdfrwt beam="2">  1       -1 0.30324181E+00 0.17934506E+04</pdfrwt>
<totfact> 0.17381302E+00</totfact>
</mgrwt>
</event>
<event>
 6    1  0.1028026E-006  0.4261092E+04  0.7818608E-02  0.7953852E-01
         -2   -1    0    0    0  501 -0.00000000000E+00  0.00000000000E+00  0.16607494430E+04  0.16607494430E+04  0.00000000000E+00 0.  1.
          2   -1    0    0  501    0  0.00000000000E+00 -0.00000000000E+00 -0.27332403080E+04  0.27332403080E+04  0.00000000000E+00 0. -1.
         23    2    1    2    0    0  0.14431534933E+04 -0.14065775856E+04 -0.12465100963E+04  0.23712601095E+04  0.89076242433E+02 0.  0.
         11    1    3    3    0    0  0.65240843701E+03 -0.64142096236E+03 -0.61794267480E+03  0.11040429199E+04  0.00000000000E+00 0. -1.
        -11    1    3    3    0    0  0.79074505630E+03 -0.76515662327E+03 -0.62856742155E+03  0.12672171896E+04  0.00000000000E+00 0.  1.
         22    1    1    2    0    0 -0.14431534933E+04  0.14065775856E+04  0.17401923140E+03  0.20227296415E+04  0.00000000000E+00 0. -1.
<mgrwt>
<rscale>  0 0.42610925E+04</rscale>
<asrwt>0</asrwt>
<pdfrwt beam="1">  1        2 0.42049850E+00 0.42610925E+04</pdfrwt>
<pdfrwt beam="2">  1       -2 0.25549992E+00 0.42610925E+04</pdfrwt>
<totfact> 0.11647557E-01</totfact>
</mgrwt>
</event>
<event>
 6    1  0.1028026E-006  0.1486438E+04  0.7818608E-02  0.8893522E-01
          2   -1    0    0  501    0  0.00000000000E+00  0.00000000000E+00  0.11067019083E+04  0.11067019083E+04  0.00000000000E+00 0. -1.
         -2   -1    0    0    0  501 -0.00000000000E+00 -0.00000000000E+00 -0.49911794027E+03  0.49911794027E+03  0.00000000000E+00 0.  1.
         23    2    1    2    0    0  0.36374711355E+03  0.48730321221E+03  0.76110675881E+03  0.97864712068E+03  0.93221806789E+02 0.  0.
         11    1    3    3    0    0  0.21805288541E+03  0.33371855812E+03  0.55375988320E+03  0.68232334352E+03  0.00000000000E+00 0. -1.
        -11    1    3    3    0    0  0.14569422814E+03  0.15358465409E+03  0.20734687561E+03  0.29632377716E+03  0.00000000000E+00 0.  1.
         22    1    1    2    0    0 -0.36374711355E+03 -0.48730321221E+03 -0.15352279083E+03  0.62717272784E+03  0.00000000000E+00 0.  1.
<mgrwt>
<rscale>  0 0.14864384E+04</rscale>
<asrwt>0</asrwt>
<pdfrwt beam="1">  1        2 0.17026183E+00 0.14864384E+04</pdfrwt>
<pdfrwt beam="2">  1       -2 0.76787375E-01 0.14864384E+04</pdfrwt>
<totfact> 0.31631314E+01</totfact>
</mgrwt>
</event>
<event>
 6    1  0.1028026E-006  0.3846130E+04  0.7818608E-02  0.8036327E-01
         -1   -1    0    0    0  501 -0.00000000000E+00  0.00000000000E+00  0.10205720929E+04  0.10205720929E+04  0.00000000000E+00 0.  1.
          1   -1    0    0  501    0  0.00000000000E+00 -0.00000000000E+00 -0.36236331947E+04  0.36236331947E+04  0.00000000000E+00 0. -1.
         23    2    1    2    0    0 -0.85135787494E+03 -0.17214803296E+04 -0.12116897085E+04  0.22726616741E+04  0.92164955898E+02 0.  0.
         11    1    3    3    0    0 -0.45533260333E+03 -0.90129705414E+03 -0.58356450342E+03  0.11662811364E+04  0.00000000000E+00 0. -1.
        -11    1    3    3    0    0 -0.39602527160E+03 -0.82018327547E+03 -0.62812520503E+03  0.11063805377E+04  0.00000000000E+00 0.  1.
         22    1    1    2    0    0  0.85135787494E+03  0.17214803296E+04 -0.13913713934E+04  0.23715436135E+04  0.00000000000E+00 0. -1.
<mgrwt>
<rscale>  0 0.38461300E+04</rscale>
<asrwt>0</asrwt>
<pdfrwt beam="1">  1        1 0.55748203E+00 0.38461300E+04</pdfrwt>
<pdfrwt beam="2">  1       -1 0.15701109E+00 0.38461300E+04</pdfrwt>
<totfact> 0.48506242E-02</totfact>
</mgrwt>
</event>
<event>
 6    1  0.1028026E-006  0.2659852E+04  0.7818608E-02  0.8348150E-01
         -1   -1    0    0    0  501 -0.00000000000E+00  0.00000000000E+00  0.17753025000E+04  0.17753025000E+04  0.00000000000E+00 0.  1.
          1   -1    0    0  501    0  0.00000000000E+00 -0.00000000000E+00 -0.99628240721E+03  0.99628240721E+03  0.00000000000E+00 0. -1.
         23    2    1    2    0    0 -0.20098916774E+03 -0.57248020653E+03  0.16213170434E+04  0.17335124697E+04  0.90919166650E+02 0.  0.
         11    1    3    3    0    0 -0.12582509884E+03 -0.44948756023E+03  0.11673024115E+04  0.12571658372E+04  0.00000000000E+00 0. -1.
        -11    1    3    3    0    0 -0.75164068892E+02 -0.12299264630E+03  0.45401463192E+03  0.47634663250E+03  0.00000000000E+00 0.  1.
         22    1    1    2    0    0  0.20098916774E+03  0.57248020653E+03 -0.84229695066E+03  0.10380724375E+04  0.00000000000E+00 0. -1.
<mgrwt>
<rscale>  0 0.26598516E+04</rscale>
<asrwt>0</asrwt>
<pdfrwt beam="1">  1        1 0.15327422E+00 0.26598516E+04</pdfrwt>
<pdfrwt beam="2">  1       -1 0.27312346E+00 0.26598516E+04</pdfrwt>
<totfact> 0.65815279E-01</totfact>
</mgrwt>
</event>
<event>
 6    1  0.1028026E-006  0.1474987E+04  0.7818608E-02  0.8901259E-01
         -2   -1    0    0    0  501 -0.00000000000E+00  0.00000000000E+00  0.28762461344E+03  0.28762461344E+03  0.00000000000E+00 0.  1.
          2   -1    0    0  501    0  0.00000000000E+00 -0.00000000000E+00 -0.18909936418E+04  0.18909936418E+04  0.00000000000E+00 0. -1.
         23    2    1    2    0    0 -0.60357375864E+03  0.27919384533E+03 -0.34355598067E+03  0.75405537472E+03  0.91204774579E+02 0.  0.
         13    1    3    3    0    0 -0.25890028189E+03  0.13554484590E+03 -0.19941543467E+03  0.35379128988E+03  0.00000000000E+00 0. -1.
        -13    1    3    3    0    0 -0.34467347675E+03  0.14364899943E+03 -0.14414054600E+03  0.40026408484E+03  0.00000000000E+00 0.  1.
         22    1    1    2    0    0  0.60357375864E+03 -0.27919384533E+03 -0.12598130476E+04  0.14245628805E+04  0.00000000000E+00 0. -1.
<mgrwt>
<rscale>  0 0.14749865E+04</rscale>
<asrwt>0</asrwt>
<pdfrwt beam="1">  1        2 0.29092210E+00 0.14749865E+04</pdfrwt>
<pdfrwt beam="2">  1       -2 0.44249940E-01 0.14749865E+04</pdfrwt>
<totfact> 0.36017862E+01</totfact>
</mgrwt>
</event>
<event>
 6    1  0.1028026E-006  0.3825190E+04  0.7818608E-02  0.8040771E-01
          2   -1    0    0  501    0  0.00000000000E+00  0.00000000000E+00  0.30196849750E+04  0.30196849750E+04  0.00000000000E+00 0. -1.
         -2   -1    0    0    0  501 -0.00000000000E+00 -0.00000000000E+00 -0.12113909518E+04  0.12113909518E+04  0.00000000000E+00 0.  1.
         23    2    1    2    0    0  0.11732036657E+04 -0.12568243086E+04 -0.19406627929E+02  0.17217923928E+04  0.90433636427E+02 0.  0.
         13    1    3    3    0    0  0.80569529717E+03 -0.80357461848E+03 -0.26281122412E+02  0.11382301071E+04  0.00000000000E+00 0. -1.
        -13    1    3    3    0    0  0.36750836857E+03 -0.45324969015E+03  0.68744944826E+01  0.58356228568E+03  0.00000000000E+00 0.  1.
         22    1    1    2    0    0 -0.11732036657E+04  0.12568243086E+04  0.18277006511E+04  0.25092835340E+04  0.00000000000E+00 0. -1.
<mgrwt>
<rscale>  0 0.38251897E+04</rscale>
<asrwt>0</asrwt>
<pdfrwt beam="1">  1        2 0.46456692E+00 0.38251897E+04</pdfrwt>
<pdfrwt beam="2">  1       -2 0.18636784E+00 0.38251897E+04</pdfrwt>
<totfact> 0.22192165E-01</totfact>
</mgrwt>
</event>
<event>
 6    1  0.1028026E-006  0.6720765E+03  0.7818608E-02  0.9766214E-01
          1   -1    0    0  501    0  0.00000000000E+00  0.00000000000E+00  0.44755693309E+03  0.44755693309E+03  0.00000000000E+00 0. -1.
         -1   -1    0    0    0  501 -0.00000000000E+00 -0.00000000000E+00 -0.25230688083E+03  0.25230688083E+03  0.00000000000E+00 0.  1.
         23    2    1    2    0    0 -0.18714620157E+03 -0.28066864796E+02 -0.18196159401E+03  0.27784476726E+03  0.90973860742E+02 0.  0.
         11    1    3    3    0    0 -0.92258483342E+02 -0.56347590995E+02 -0.11766985669E+03  0.15979009335E+03  0.00000000000E+00 0.  1.
        -11    1    3    3    0    0 -0.94887718224E+02  0.28280726198E+02 -0.64291737323E+02  0.11805467391E+03  0.00000000000E+00 0. -1.
         22    1    1    2    0    0  0.18714620157E+03  0.28066864796E+02  0.37721164627E+03  0.42201904666E+03  0.00000000000E+00 0. -1.
<mgrwt>
<rscale>  0 0.67207647E+03</rscale>
<asrwt>0</asrwt>
<pdfrwt beam="1">  1        1 0.68854913E-01 0.67207647E+03</pdfrwt>
<pdfrwt beam="2">  1       -1 0.38816443E-01 0.67207647E+03</pdfrwt>
<totfact> 0.33611960E+02</totfact>
</mgrwt>
</event>
<event>
 6    1  0.1028026E-006  0.1246806E+04  0.7818608E-02  0.9072845E-01
          2   -1    0    0  501    0  0.00000000000E+00  0.00000000000E+00  0.23026127290E+04  0.23026127290E+04  0.00000000000E+00 0. -1.
         -2   -1    0    0    0  501 -0.00000000000E+00 -0.00000000000E+00 -0.16877851262E+03  0.16877851262E+03  0.00000000000E+00 0.  1.
         23    2    1    2    0    0  0.20928087663E+03 -0.50871458470E+03  0.16399809573E+04  0.17321483482E+04  0.90616475882E+02 0.  0.
         13    1    3    3    0    0  0.12757569747E+03 -0.20159114583E+03  0.75801998359E+03  0.79467530740E+03  0.00000000000E+00 0. -1.
        -13    1    3    3    0    0  0.81705179155E+02 -0.30712343886E+03  0.88196097374E+03  0.93747304079E+03  0.00000000000E+00 0.  1.
         22    1    1    2    0    0 -0.20928087663E+03  0.50871458470E+03  0.49385325901E+03  0.73924289340E+03  0.00000000000E+00 0.  1.
<mgrwt>
<rscale>  0 0.12468064E+04</rscale>
<asrwt>0</asrwt>
<pdfrwt beam="1">  1        2 0.35424809E+00 0.12468064E+04</pdfrwt>
<pdfrwt beam="2">  1       -2 0.25965927E-01 0.12468064E+04</pdfrwt>
<totfact> 0.59713678E+01</totfact>
</mgrwt>
</event>
<event>
 6    1  0.1028026E-006  0.3359859E+04  0.7818608E-02  0.8147829E-01
         -2   -1    0    0    0  501 -0.00000000000E+00  0.00000000000E+00  0.16440785130E+04  0.16440785130E+04  0.00000000000E+00 0.  1.
          2   -1    0    0  501    0  0.00000000000E+00 -0.00000000000E+00 -0.17165621468E+04  0.17165621468E+04  0.00000000000E+00 0. -1.
         23    2    1    2    0    0  0.10902140384E+04  0.60166259025E+03  0.10896970400E+04  0.16573413789E+04  0.93681828920E+02 0.  0.
         13    1    3    3    0    0  0.58725482653E+03  0.27311921358E+03  0.58404683287E+03  0.87210838724E+03  0.00000000000E+00 0. -1.
        -13    1    3    3    0    0  0.50295921188E+03  0.32854337667E+03  0.50565020709E+03  0.78523299161E+03  0.00000000000E+00 0.  1.
         22    1    1    2    0    0 -0.10902140384E+04 -0.60166259025E+03 -0.11621806737E+04  0.17032992809E+04  0.00000000000E+00 0. -1.
<mgrwt>
<rscale>  0 0.33598589E+04</rscale>
<asrwt>0</asrwt>
<pdfrwt beam="1">  1        2 0.26408648E+00 0.33598589E+04</pdfrwt>
<pdfrwt beam="2">  1       -2 0.25293516E+00 0.33598589E+04</pdfrwt>
<totfact> 0.49193983E-01</totfact>
</mgrwt>
</event>
<event>
 6    1  0.1028026E-006  0.1118444E+04  0.7818608E-02  0.9187400E-01
          1   -1    0    0  501    0  0.00000000000E+00  0.00000000000E+00  0.10951402161E+04  0.10951402161E+04  0.00000000000E+00 0. -1.
         -1   -1    0    0    0  501 -0.00000000000E+00 -0.00000000000E+00 -0.28556077537E+03  0.28556077537E+03  0.00000000000E+00 0.  1.
         23    2    1    2    0    0 -0.69066817471E+02 -0.21189574058E+03 -0.22086231059E+03  0.32643336272E+03  0.90047486955E+02 0.  0.
         13    1    3    3    0    0 -0.60021113873E+02 -0.10734626719E+03 -0.16998336937E+03  0.20980967817E+03  0.00000000000E+00 0.  1.
        -13    1    3    3    0    0 -0.90457035975E+01 -0.10454947339E+03 -0.50878941223E+02  0.11662368456E+03  0.00000000000E+00 0. -1.
         22    1    1    2    0    0  0.69066817471E+02  0.21189574058E+03  0.10304417514E+04  0.10542676288E+04  0.00000000000E+00 0. -1.
<mgrwt>
<rscale>  0 0.11184437E+04</rscale>
<asrwt>0</asrwt>
<pdfrwt beam="1">  1        1 0.16848311E+00 0.11184437E+04</pdfrwt>
<pdfrwt beam="2">  1       -1 0.43932427E-01 0.11184437E+04</pdfrwt>
<totfact> 0.65143152E+01</totfact>
</mgrwt>
</event>
<event>
 6    1  0.1028026E-006  0.1818618E+04  0.7818608E-02  0.8696461E-01
          2   -1    0    0  501    0  0.00000000000E+00  0.00000000000E+00  0.19097742310E+04  0.19097742310E+04  0.00000000000E+00 0. -1.
         -2   -1    0    0    0  501 -0.00000000000E+00 -0.00000000000E+00 -0.43295299688E+03  0.43295299688E+03  0.00000000000E+00 0.  1.
         23    2    1    2    0    0  0.28240499512E+03  0.78452232230E+03  0.28047739270E+03  0.88448635535E+03  0.91764315129E+02 0.  0.
         13    1    3    3    0    0  0.16918653754E+03  0.35827706624E+03  0.10552510560E+03  0.41002693642E+03  0.00000000000E+00 0.  1.
        -13    1    3    3    0    0  0.11321845758E+03  0.42624525605E+03  0.17495228711E+03  0.47445941893E+03  0.00000000000E+00 0. -1.
         22    1    1    2    0    0 -0.28240499512E+03 -0.78452232230E+03  0.11963438414E+04  0.14582408725E+04  0.00000000000E+00 0. -1.
<mgrwt>
<rscale>  0 0.18186176E+04</rscale>
<asrwt>0</asrwt>
<pdfrwt beam="1">  1        2 0.29381142E+00 0.18186176E+04</pdfrwt>
<pdfrwt beam="2">  1       -2 0.66608154E-01 0.18186176E+04</pdfrwt>
<totfact> 0.14639057E+01</totfact>
</mgrwt>
</event>
<event>
 6    1  0.1028026E-006  0.1860484E+04  0.7818608E-02  0.8674780E-01
         -4   -1    0    0    0  501 -0.00000000000E+00  0.00000000000E+00  0.42502020004E+03  0.42502020004E+03  0.00000000000E+00 0.  1.
          4   -1    0    0  501    0  0.00000000000E+00 -0.00000000000E+00 -0.20360219726E+04  0.20360219726E+04  0.00000000000E+00 0. -1.
         23    2    1    2    0    0  0.62137252196E+03  0.56382466586E+02 -0.17156323032E+04  0.18284045659E+04  0.10191301830E+03 0.  0.
         11    1    3    3    0    0  0.47864658924E+03  0.23152779515E+00 -0.13173959474E+04  0.14016542702E+04  0.00000000000E+00 0. -1.
        -11    1    3    3    0    0  0.14272593272E+03  0.56150938791E+02 -0.39823635574E+03  0.42675029565E+03  0.00000000000E+00 0.  1.
         22    1    1    2    0    0 -0.62137252196E+03 -0.56382466586E+02  0.10463053057E+03  0.63263760678E+03  0.00000000000E+00 0.  1.
<mgrwt>
<rscale>  0 0.18604843E+04</rscale>
<asrwt>0</asrwt>
<pdfrwt beam="1">  1        4 0.31323415E+00 0.18604843E+04</pdfrwt>
<pdfrwt beam="2">  1       -4 0.65387722E-01 0.18604843E+04</pdfrwt>
<totfact> 0.10466011E-01</totfact>
</mgrwt>
</event>
<event>
 6    1  0.1028026E-006  0.9595526E+03  0.7818608E-02  0.9354054E-01
         -1   -1    0    0    0  501 -0.00000000000E+00  0.00000000000E+00  0.13155944295E+03  0.13155944295E+03  0.00000000000E+00 0.  1.
          1   -1    0    0  501    0  0.00000000000E+00 -0.00000000000E+00 -0.17496675750E+04  0.17496675750E+04  0.00000000000E+00 0. -1.
         23    2    1    2    0    0 -0.20558016988E+03 -0.13899786954E+03 -0.16114052284E+04  0.16329760504E+04  0.91653461511E+02 0.  0.
         13    1    3    3    0    0 -0.19570465299E+03 -0.12194270156E+03 -0.12537452727E+04  0.12747735259E+04  0.00000000000E+00 0.  1.
        -13    1    3    3    0    0 -0.98755168942E+01 -0.17055167977E+02 -0.35765995578E+03  0.35820252450E+03  0.00000000000E+00 0. -1.
         22    1    1    2    0    0  0.20558016988E+03  0.13899786954E+03 -0.67029036409E+01  0.24825096757E+03  0.00000000000E+00 0.  1.
<mgrwt>
<rscale>  0 0.95955259E+03</rscale>
<asrwt>0</asrwt>
<pdfrwt beam="1">  1        1 0.26917965E+00 0.95955259E+03</pdfrwt>
<pdfrwt beam="2">  1       -1 0.20239913E-01 0.95955259E+03</pdfrwt>
<totfact> 0.89048575E+01</totfact>
</mgrwt>
</event>
<event>
 6    1  0.1028026E-006  0.2833095E+04  0.7818608E-02  0.8293067E-01
          2   -1    0    0  501    0  0.00000000000E+00  0.00000000000E+00  0.14312168607E+04  0.14312168607E+04  0.00000000000E+00 0. -1.
         -2   -1    0    0    0  501 -0.00000000000E+00 -0.00000000000E+00 -0.14020285405E+04  0.14020285405E+04  0.00000000000E+00 0.  1.
         23    2    1    2    0    0 -0.95612586473E+03  0.60601868696E+03 -0.83444672580E+03  0.14094122611E+04  0.93307370103E+02 0.  0.
         13    1    3    3    0    0 -0.14728728939E+03  0.13189833408E+03 -0.12858753233E+03  0.23585052389E+03  0.00000000000E+00 0.  1.
        -13    1    3    3    0    0 -0.80883857533E+03  0.47412035287E+03 -0.70585919347E+03  0.11735617372E+04  0.00000000000E+00 0. -1.
         22    1    1    2    0    0  0.95612586473E+03 -0.60601868696E+03  0.86363504609E+03  0.14238331401E+04  0.00000000000E+00 0. -1.
<mgrwt>
<rscale>  0 0.28330950E+04</rscale>
<asrwt>0</asrwt>
<pdfrwt beam="1">  1        2 0.22018721E+00 0.28330950E+04</pdfrwt>
<pdfrwt beam="2">  1       -2 0.21569670E+00 0.28330950E+04</pdfrwt>
<totfact> 0.12687659E+00</totfact>
</mgrwt>
</event>
<event>
 6    1  0.1028026E-006  0.1771954E+04  0.7818608E-02  0.8721358E-01
         -2   -1    0    0    0  501 -0.00000000000E+00  0.00000000000E+00  0.50947365905E+03  0.50947365905E+03  0.00000000000E+00 0.  1.
          2   -1    0    0  501    0  0.00000000000E+00 -0.00000000000E+00 -0.15407172665E+04  0.15407172665E+04  0.00000000000E+00 0. -1.
         23    2    1    2    0    0 -0.37499664045E+03 -0.49906353102E+03  0.20655409911E+03  0.66389007411E+03  0.91643582955E+02 0.  0.
         13    1    3    3    0    0 -0.14921777407E+03 -0.27033523379E+03  0.84877378403E+02  0.32023624418E+03  0.00000000000E+00 0.  1.
        -13    1    3    3    0    0 -0.22577886638E+03 -0.22872829724E+03  0.12167672071E+03  0.34365382992E+03  0.00000000000E+00 0. -1.
         22    1    1    2    0    0  0.37499664045E+03  0.49906353102E+03 -0.12377977066E+04  0.13863008515E+04  0.00000000000E+00 0. -1.
<mgrwt>
<rscale>  0 0.17719536E+04</rscale>
<asrwt>0</asrwt>
<pdfrwt beam="1">  1        2 0.23703342E+00 0.17719536E+04</pdfrwt>
<pdfrwt beam="2">  1       -2 0.78380563E-01 0.17719536E+04</pdfrwt>
<totfact> 0.16486717E+01</totfact>
</mgrwt>
</event>
<event>
 6    1  0.1028026E-006  0.1565442E+04  0.7818608E-02  0.8842064E-01
         -1   -1    0    0    0  501 -0.00000000000E+00  0.00000000000E+00  0.24534396610E+03  0.24534396610E+03  0.00000000000E+00 0.  1.
          1   -1    0    0  501    0  0.00000000000E+00 -0.00000000000E+00 -0.24971154207E+04  0.24971154207E+04  0.00000000000E+00 0. -1.
         23    2    1    2    0    0 -0.69876243971E+03  0.31728707223E+03 -0.13745707511E+04  0.15769461490E+04  0.91511603531E+02 0.  0.
         11    1    3    3    0    0 -0.29626243940E+03  0.17401862312E+03 -0.66992122367E+03  0.75289332586E+03  0.00000000000E+00 0. -1.
        -11    1    3    3    0    0 -0.40250000031E+03  0.14326844911E+03 -0.70464952747E+03  0.82405282314E+03  0.00000000000E+00 0.  1.
         22    1    1    2    0    0  0.69876243971E+03 -0.31728707223E+03 -0.87720070347E+03  0.11655132378E+04  0.00000000000E+00 0.  1.
<mgrwt>
<rscale>  0 0.15654420E+04</rscale>
<asrwt>0</asrwt>
<pdfrwt beam="1">  1        1 0.38417160E+00 0.15654420E+04</pdfrwt>
<pdfrwt beam="2">  1       -1 0.37745226E-01 0.15654420E+04</pdfrwt>
<totfact> 0.88868064E+00</totfact>
</mgrwt>
</event>
<event>
 6    1  0.1028026E-006  0.1133739E+04  0.7818608E-02  0.9172917E-01
          2   -1    0    0  501    0  0.00000000000E+00  0.00000000000E+00  0.12128413764E+04  0.12128413764E+04  0.00000000000E+00 0. -1.
         -2   -1    0    0    0  501 -0.00000000000E+00 -0.00000000000E+00 -0.26494914968E+03  0.26494914968E+03  0.00000000000E+00 0.  1.
         23    2    1    2    0    0 -0.18721591042E+03  0.30247157206E+03  0.10461843963E+04  0.11087374139E+04  0.90873610154E+02 0.  0.
         13    1    3    3    0    0 -0.25812990514E+02  0.27944377414E+02  0.22069950543E+03  0.22395417033E+03  0.00000000000E+00 0. -1.
        -13    1    3    3    0    0 -0.16140291990E+03  0.27452719465E+03  0.82548489084E+03  0.88478324360E+03  0.00000000000E+00 0.  1.
         22    1    1    2    0    0  0.18721591042E+03 -0.30247157206E+03 -0.98292169529E+02  0.36905311218E+03  0.00000000000E+00 0.  1.
<mgrwt>
<rscale>  0 0.11337395E+04</rscale>
<asrwt>0</asrwt>
<pdfrwt beam="1">  1        2 0.18659098E+00 0.11337395E+04</pdfrwt>
<pdfrwt beam="2">  1       -2 0.40761408E-01 0.11337395E+04</pdfrwt>
<totfact> 0.10501424E+02</totfact>
</mgrwt>
</event>
<event>
 6    1  0.1028026E-006  0.1377386E+04  0.7818608E-02  0.8970352E-01
          1   -1    0    0  501    0  0.00000000000E+00  0.00000000000E+00  0.36753833681E+03  0.36753833681E+03  0.00000000000E+00 0. -1.
         -1   -1    0    0    0  501 -0.00000000000E+00 -0.00000000000E+00 -0.12904718737E+04  0.12904718737E+04  0.00000000000E+00 0.  1.
         23    2    1    2    0    0  0.33606355798E+03 -0.16744869545E+02  0.25817016736E+03  0.42991206058E+03  0.70380671067E+02 0.  0.
         11    1    3    3    0    0  0.13685613649E+03 -0.39819569124E+02  0.93913881973E+02  0.17068982808E+03  0.00000000000E+00 0. -1.
        -11    1    3    3    0    0  0.19920742148E+03  0.23074699579E+02  0.16425628539E+03  0.25922223250E+03  0.00000000000E+00 0.  1.
         22    1    1    2    0    0 -0.33606355798E+03  0.16744869545E+02 -0.11811037043E+04  0.12280981500E+04  0.00000000000E+00 0.  1.
<mgrwt>
<rscale>  0 0.13773858E+04</rscale>
<asrwt>0</asrwt>
<pdfrwt beam="1">  1        1 0.56544359E-01 0.13773858E+04</pdfrwt>
<pdfrwt beam="2">  1       -1 0.19853414E+00 0.13773858E+04</pdfrwt>
<totfact> 0.10102429E+01</totfact>
</mgrwt>
</event>
<event>
 6    1  0.1028026E-006  0.1976775E+04  0.7818608E-02  0.8617557E-01
         -2   -1    0    0    0  501 -0.00000000000E+00  0.00000000000E+00  0.35717885054E+03  0.35717885054E+03  0.00000000000E+00 0.  1.
          2   -1    0    0  501    0  0.00000000000E+00 -0.00000000000E+00 -0.27350711577E+04  0.27350711577E+04  0.00000000000E+00 0. -1.
         23    2    1    2    0    0 -0.57277882892E+03  0.65788474148E+03 -0.19122490001E+04  0.21034570020E+04  0.83349868857E+02 0.  0.
         13    1    3    3    0    0 -0.17525511971E+03  0.25393544677E+03 -0.72211810769E+03  0.78527200991E+03  0.00000000000E+00 0.  1.
        -13    1    3    3    0    0 -0.39752370922E+03  0.40394929471E+03 -0.11901308925E+04  0.13181849920E+04  0.00000000000E+00 0. -1.
         22    1    1    2    0    0  0.57277882892E+03 -0.65788474148E+03 -0.46564330706E+03  0.98879300632E+03  0.00000000000E+00 0. -1.
<mgrwt>
<rscale>  0 0.19767747E+04</rscale>
<asrwt>0</asrwt>
<pdfrwt beam="1">  1        2 0.42078016E+00 0.19767747E+04</pdfrwt>
<pdfrwt beam="2">  1       -2 0.54950594E-01 0.19767747E+04</pdfrwt>
<totfact> 0.73461997E+00</totfact>
</mgrwt>
</event>
<event>
 6    1  0.1028026E-006  0.1052144E+04  0.7818608E-02  0.9253134E-01
         -2   -1    0    0    0  501 -0.00000000000E+00  0.00000000000E+00  0.19295652538E+03  0.19295652538E+03  0.00000000000E+00 0.  1.
          2   -1    0    0  501    0  0.00000000000E+00 -0.00000000000E+00 -0.14342689308E+04  0.14342689308E+04  0.00000000000E+00 0. -1.
         23    2    1    2    0    0  0.43730408180E+03 -0.66566130486E+02 -0.19645288035E+03  0.49259012410E+03  0.91571755862E+02 0.  0.
         11    1    3    3    0    0  0.16853200111E+03 -0.71082897300E+02 -0.79028849593E+02  0.19925203325E+03  0.00000000000E+00 0. -1.
        -11    1    3    3    0    0  0.26877208069E+03  0.45167668146E+01 -0.11742403076E+03  0.29333809084E+03  0.00000000000E+00 0.  1.
         22    1    1    2    0    0 -0.43730408180E+03  0.66566130486E+02 -0.10448595251E+04  0.11346353321E+04  0.00000000000E+00 0. -1.
<mgrwt>
<rscale>  0 0.10521436E+04</rscale>
<asrwt>0</asrwt>
<pdfrwt beam="1">  1        2 0.22065676E+00 0.10521436E+04</pdfrwt>
<pdfrwt beam="2">  1       -2 0.29685620E-01 0.10521436E+04</pdfrwt>
<totfact> 0.14387805E+02</totfact>
</mgrwt>
</event>
<event>
 6    1  0.1028026E-006  0.2505745E+04  0.7818608E-02  0.8400942E-01
          1   -1    0    0  501    0  0.00000000000E+00  0.00000000000E+00  0.30547775238E+04  0.30547775238E+04  0.00000000000E+00 0. -1.
         -1   -1    0    0    0  501 -0.00000000000E+00 -0.00000000000E+00 -0.51384737254E+03  0.51384737254E+03  0.00000000000E+00 0.  1.
         23    2    1    2    0    0  0.93254710259E+03  0.37033235404E+03  0.23366053077E+04  0.25446430641E+04  0.93240595747E+02 0.  0.
         13    1    3    3    0    0  0.31583237393E+03  0.13737148681E+03  0.91301844953E+03  0.97581950329E+03  0.00000000000E+00 0.  1.
        -13    1    3    3    0    0  0.61671472866E+03  0.23296086723E+03  0.14235868582E+04  0.15688235608E+04  0.00000000000E+00 0. -1.
         22    1    1    2    0    0 -0.93254710259E+03 -0.37033235404E+03  0.20432484351E+03  0.10239818322E+04  0.00000000000E+00 0.  1.
<mgrwt>
<rscale>  0 0.25057449E+04</rscale>
<asrwt>0</asrwt>
<pdfrwt beam="1">  1        1 0.46996576E+00 0.25057449E+04</pdfrwt>
<pdfrwt beam="2">  1       -1 0.79053444E-01 0.25057449E+04</pdfrwt>
<totfact> 0.77424440E-01</totfact>
</mgrwt>
</event>
<event>
 6    1  0.1028026E-006  0.3392196E+04  0.7818608E-02  0.8139824E-01
         -1   -1    0    0    0  501 -0.00000000000E+00  0.00000000000E+00  0.17221502002E+04  0.17221502002E+04  0.00000000000E+00 0.  1.
          1   -1    0    0  501    0  0.00000000000E+00 -0.00000000000E+00 -0.16704395432E+04  0.16704395432E+04  0.00000000000E+00 0. -1.
         23    2    1    2    0    0 -0.14118394947E+04 -0.58621209681E+03  0.75797198092E+03  0.17086240553E+04  0.89102508968E+02 0.  0.
         13    1    3    3    0    0 -0.11215239000E+04 -0.48171920798E+03  0.56805866275E+03  0.13463134471E+04  0.00000000000E+00 0. -1.
        -13    1    3    3    0    0 -0.29031559475E+03 -0.10449288883E+03  0.18991331816E+03  0.36231060816E+03  0.00000000000E+00 0.  1.
         22    1    1    2    0    0  0.14118394947E+04  0.58621209681E+03 -0.70626132390E+03  0.16839656882E+04  0.00000000000E+00 0. -1.
<mgrwt>
<rscale>  0 0.33921956E+04</rscale>
<asrwt>0</asrwt>
<pdfrwt beam="1">  1        1 0.25699070E+00 0.33921956E+04</pdfrwt>
<pdfrwt beam="2">  1       -1 0.26494619E+00 0.33921956E+04</pdfrwt>
<totfact> 0.22904070E-01</totfact>
</mgrwt>
</event>
<event>
 6    1  0.1028026E-006  0.4205916E+04  0.7818608E-02  0.7964248E-01
         -1   -1    0    0    0  501 -0.00000000000E+00  0.00000000000E+00  0.17800349845E+04  0.17800349845E+04  0.00000000000E+00 0.  1.
          1   -1    0    0  501    0  0.00000000000E+00 -0.00000000000E+00 -0.24844635134E+04  0.24844635134E+04  0.00000000000E+00 0. -1.
         23    2    1    2    0    0  0.18742930948E+04 -0.62666537825E+03 -0.10783424672E+04  0.22531567231E+04  0.90601550288E+02 0.  0.
         11    1    3    3    0    0  0.14271759717E+04 -0.43728388696E+03 -0.80292866439E+03  0.16949167803E+04  0.00000000000E+00 0.  1.
        -11    1    3    3    0    0  0.44711712312E+03 -0.18938149129E+03 -0.27541380283E+03  0.55823994287E+03  0.00000000000E+00 0. -1.
         22    1    1    2    0    0 -0.18742930948E+04  0.62666537825E+03  0.37391393833E+03  0.20113417747E+04  0.00000000000E+00 0. -1.
<mgrwt>
<rscale>  0 0.42059158E+04</rscale>
<asrwt>0</asrwt>
<pdfrwt beam="1">  1        1 0.38222516E+00 0.42059158E+04</pdfrwt>
<pdfrwt beam="2">  1       -1 0.27385154E+00 0.42059158E+04</pdfrwt>
<totfact> 0.52141740E-02</totfact>
</mgrwt>
</event>
<event>
 6    1  0.1028026E-006  0.2441036E+04  0.7818608E-02  0.8424298E-01
          1   -1    0    0  501    0  0.00000000000E+00  0.00000000000E+00  0.17456360880E+04  0.17456360880E+04  0.00000000000E+00 0. -1.
         -1   -1    0    0    0  501 -0.00000000000E+00 -0.00000000000E+00 -0.85336459194E+03  0.85336459194E+03  0.00000000000E+00 0.  1.
         23    2    1    2    0    0  0.70913767659E+03  0.76522451170E+03 -0.22420674030E+03  0.10709403245E+04  0.90552297436E+02 0.  0.
         13    1    3    3    0    0  0.15561413168E+03  0.21535819065E+03 -0.80253571421E+02  0.27755277693E+03  0.00000000000E+00 0.  1.
        -13    1    3    3    0    0  0.55352354491E+03  0.54986632105E+03 -0.14395316888E+03  0.79338754756E+03  0.00000000000E+00 0. -1.
         22    1    1    2    0    0 -0.70913767659E+03 -0.76522451170E+03  0.11164782364E+04  0.15280603555E+04  0.00000000000E+00 0. -1.
<mgrwt>
<rscale>  0 0.24410359E+04</rscale>
<asrwt>0</asrwt>
<pdfrwt beam="1">  1        1 0.26855940E+00 0.24410359E+04</pdfrwt>
<pdfrwt beam="2">  1       -1 0.13128686E+00 0.24410359E+04</pdfrwt>
<totfact> 0.19593689E+00</totfact>
</mgrwt>
</event>
<event>
 6    1  0.1028026E-006  0.2404657E+04  0.7818608E-02  0.8437762E-01
         -2   -1    0    0    0  501 -0.00000000000E+00  0.00000000000E+00  0.53973381779E+03  0.53973381779E+03  0.00000000000E+00 0.  1.
          2   -1    0    0  501    0  0.00000000000E+00 -0.00000000000E+00 -0.26783465194E+04  0.26783465194E+04  0.00000000000E+00 0. -1.
         23    2    1    2    0    0  0.11849036246E+04  0.17219208356E+03 -0.95365707829E+03  0.15335131695E+04  0.92488404645E+02 0.  0.
         11    1    3    3    0    0  0.78820552346E+03  0.82905690541E+02 -0.66892510445E+03  0.10371123835E+04  0.00000000000E+00 0. -1.
        -11    1    3    3    0    0  0.39669810110E+03  0.89286393016E+02 -0.28473197384E+03  0.49640078598E+03  0.00000000000E+00 0.  1.
         22    1    1    2    0    0 -0.11849036246E+04 -0.17219208356E+03 -0.11849556234E+04  0.16845671677E+04  0.00000000000E+00 0. -1.
<mgrwt>
<rscale>  0 0.24046573E+04</rscale>
<asrwt>0</asrwt>
<pdfrwt beam="1">  1        2 0.41205331E+00 0.24046573E+04</pdfrwt>
<pdfrwt beam="2">  1       -2 0.83035973E-01 0.24046573E+04</pdfrwt>
<totfact> 0.31244869E+00</totfact>
</mgrwt>
</event>
<event>
 6    1  0.1028026E-006  0.2531674E+04  0.7818608E-02  0.8391787E-01
          2   -1    0    0  501    0  0.00000000000E+00  0.00000000000E+00  0.32511914020E+04  0.32511914020E+04  0.00000000000E+00 0. -1.
         -2   -1    0    0    0  501 -0.00000000000E+00 -0.00000000000E+00 -0.49284819736E+03  0.49284819736E+03  0.00000000000E+00 0.  1.
         23    2    1    2    0    0 -0.74611375770E+03 -0.49598291473E+03  0.61973127910E+02  0.90272012034E+03  0.91532267217E+02 0.  0.
         13    1    3    3    0    0 -0.17068976508E+02 -0.30457365548E+02  0.92437612650E+01  0.36117145478E+02  0.00000000000E+00 0. -1.
        -13    1    3    3    0    0 -0.72904478119E+03 -0.46552554919E+03  0.52729366645E+02  0.86660297486E+03  0.00000000000E+00 0.  1.
         22    1    1    2    0    0  0.74611375770E+03  0.49598291473E+03  0.26963700767E+04  0.28413194790E+04  0.00000000000E+00 0. -1.
<mgrwt>
<rscale>  0 0.25316744E+04</rscale>
<asrwt>0</asrwt>
<pdfrwt beam="1">  1        2 0.50018328E+00 0.25316744E+04</pdfrwt>
<pdfrwt beam="2">  1       -2 0.75822802E-01 0.25316744E+04</pdfrwt>
<totfact> 0.16647541E+00</totfact>
</mgrwt>
</event>
<event>
 6    1  0.1028026E-006  0.2269476E+04  0.7818608E-02  0.8490054E-01
          2   -1    0    0  501    0  0.00000000000E+00  0.00000000000E+00  0.22519214753E+04  0.22519214753E+04  0.00000000000E+00 0. -1.
         -2   -1    0    0    0  501 -0.00000000000E+00 -0.00000000000E+00 -0.57179204942E+03  0.57179204942E+03  0.00000000000E+00 0.  1.
         23    2    1    2    0    0 -0.74924420056E+03 -0.53789978858E+03  0.16599463975E+04  0.19011570715E+04  0.90956657522E+02 0.  0.
         11    1    3    3    0    0 -0.13216832889E+03 -0.10208532545E+03  0.37653543661E+03  0.41190874701E+03  0.00000000000E+00 0.  1.
        -11    1    3    3    0    0 -0.61707587166E+03 -0.43581446313E+03  0.12834109609E+04  0.14892483245E+04  0.00000000000E+00 0. -1.
         22    1    1    2    0    0  0.74924420056E+03  0.53789978858E+03  0.20183028369E+02  0.92255645315E+03  0.00000000000E+00 0.  1.
<mgrwt>
<rscale>  0 0.22694764E+04</rscale>
<asrwt>0</asrwt>
<pdfrwt beam="1">  1        2 0.34644945E+00 0.22694764E+04</pdfrwt>
<pdfrwt beam="2">  1       -2 0.87968009E-01 0.22694764E+04</pdfrwt>
<totfact> 0.48862002E+00</totfact>
</mgrwt>
</event>
<event>
 6    1  0.1028026E-006  0.1662992E+04  0.7818608E-02  0.8782757E-01
          1   -1    0    0  501    0  0.00000000000E+00  0.00000000000E+00  0.66355115675E+03  0.66355115675E+03  0.00000000000E+00 0. -1.
         -1   -1    0    0    0  501 -0.00000000000E+00 -0.00000000000E+00 -0.10419476337E+04  0.10419476337E+04  0.00000000000E+00 0.  1.
         23    2    1    2    0    0 -0.48917454788E+03 -0.13709993570E+03  0.48193237740E+03  0.70637223777E+03  0.92815899773E+02 0.  0.
         13    1    3    3    0    0 -0.76709440434E+02 -0.42089916978E+02  0.12566763736E+03  0.15312822876E+03  0.00000000000E+00 0.  1.
        -13    1    3    3    0    0 -0.41246510744E+03 -0.95010018724E+02  0.35626474004E+03  0.55324400901E+03  0.00000000000E+00 0. -1.
         22    1    1    2    0    0  0.48917454788E+03  0.13709993570E+03 -0.86032885436E+03  0.99912655270E+03  0.00000000000E+00 0.  1.
<mgrwt>
<rscale>  0 0.16629920E+04</rscale>
<asrwt>0</asrwt>
<pdfrwt beam="1">  1        1 0.10208479E+00 0.16629920E+04</pdfrwt>
<pdfrwt beam="2">  1       -1 0.16029964E+00 0.16629920E+04</pdfrwt>
<totfact> 0.81958383E+00</totfact>
</mgrwt>
</event>
<event>
 6    1  0.1028026E-006  0.2039207E+04  0.7818608E-02  0.8588507E-01
         -2   -1    0    0    0  501 -0.00000000000E+00  0.00000000000E+00  0.29932876836E+03  0.29932876836E+03  0.00000000000E+00 0.  1.
          2   -1    0    0  501    0  0.00000000000E+00 -0.00000000000E+00 -0.34730734593E+04  0.34730734593E+04  0.00000000000E+00 0. -1.
         23    2    1    2    0    0  0.55089459868E+03 -0.84581671024E+03 -0.13518918032E+04  0.16896063397E+04  0.90925076549E+02 0.  0.
         11    1    3    3    0    0  0.17773845133E+03 -0.21661794024E+03 -0.41993456351E+03  0.50483594042E+03  0.00000000000E+00 0. -1.
        -11    1    3    3    0    0  0.37315614735E+03 -0.62919877000E+03 -0.93195723970E+03  0.11847703993E+04  0.00000000000E+00 0.  1.
         22    1    1    2    0    0 -0.55089459868E+03  0.84581671024E+03 -0.18218528877E+04  0.20827958879E+04  0.00000000000E+00 0. -1.
<mgrwt>
<rscale>  0 0.20392065E+04</rscale>
<asrwt>0</asrwt>
<pdfrwt beam="1">  1        2 0.53431898E+00 0.20392065E+04</pdfrwt>
<pdfrwt beam="2">  1       -2 0.46050581E-01 0.20392065E+04</pdfrwt>
<totfact> 0.35329673E+00</totfact>
</mgrwt>
</event>
<event>
 6    1  0.1028026E-006  0.2046555E+04  0.7818608E-02  0.8585159E-01
          2   -1    0    0  501    0  0.00000000000E+00  0.00000000000E+00  0.26406280008E+04  0.26406280008E+04  0.00000000000E+00 0. -1.
         -2   -1    0    0    0  501 -0.00000000000E+00 -0.00000000000E+00 -0.39653314347E+03  0.39653314347E+03  0.00000000000E+00 0.  1.
         23    2    1    2    0    0  0.79398261541E+03  0.85761344009E+02  0.20688983418E+04  0.22195688126E+04  0.91553065038E+02 0.  0.
         13    1    3    3    0    0  0.60243449011E+03  0.36498955381E+02  0.16306536155E+04  0.17387612551E+04  0.00000000000E+00 0.  1.
        -13    1    3    3    0    0  0.19154812530E+03  0.49262388628E+02  0.43824472627E+03  0.48080755749E+03  0.00000000000E+00 0. -1.
         22    1    1    2    0    0 -0.79398261541E+03 -0.85761344009E+02  0.17519651556E+03  0.81759233165E+03  0.00000000000E+00 0.  1.
<mgrwt>
<rscale>  0 0.20465547E+04</rscale>
<asrwt>0</asrwt>
<pdfrwt beam="1">  1        2 0.40625045E+00 0.20465547E+04</pdfrwt>
<pdfrwt beam="2">  1       -2 0.61005101E-01 0.20465547E+04</pdfrwt>
<totfact> 0.66700020E+00</totfact>
</mgrwt>
</event>
<event>
 6    1  0.1028026E-006  0.1122021E+04  0.7818608E-02  0.9183991E-01
         -4   -1    0    0    0  501 -0.00000000000E+00  0.00000000000E+00  0.12197046725E+04  0.12197046725E+04  0.00000000000E+00 0.  1.
          4   -1    0    0  501    0  0.00000000000E+00 -0.00000000000E+00 -0.25804012246E+03  0.25804012246E+03  0.00000000000E+00 0. -1.
         23    2    1    2    0    0 -0.49858757615E+03 -0.16618801791E+03  0.72799454474E+03  0.90258420889E+03  0.92055247363E+02 0.  0.
         13    1    3    3    0    0 -0.20357970104E+03 -0.22664195162E+02  0.25835339867E+03  0.32970416895E+03  0.00000000000E+00 0. -1.
        -13    1    3    3    0    0 -0.29500787511E+03 -0.14352382275E+03  0.46964114607E+03  0.57288003994E+03  0.00000000000E+00 0.  1.
         22    1    1    2    0    0  0.49858757615E+03  0.16618801791E+03  0.23367000528E+03  0.57516058606E+03  0.00000000000E+00 0. -1.
<mgrwt>
<rscale>  0 0.11220209E+04</rscale>
<asrwt>0</asrwt>
<pdfrwt beam="1">  1        4 0.39698481E-01 0.11220209E+04</pdfrwt>
<pdfrwt beam="2">  1       -4 0.18764687E+00 0.11220209E+04</pdfrwt>
<totfact> 0.19514722E+00</totfact>
</mgrwt>
</event>
<event>
 6    1  0.1028026E-006  0.1328750E+04  0.7818608E-02  0.9007072E-01
         -2   -1    0    0    0  501 -0.00000000000E+00  0.00000000000E+00  0.28167543633E+03  0.28167543633E+03  0.00000000000E+00 0.  1.
          2   -1    0    0  501    0  0.00000000000E+00 -0.00000000000E+00 -0.15670313770E+04  0.15670313770E+04  0.00000000000E+00 0. -1.
         23    2    1    2    0    0 -0.56601654988E+01  0.21010818272E+03 -0.15179549900E+04  0.15352107150E+04  0.92233950517E+02 0.  0.
         13    1    3    3    0    0 -0.45305675514E+02  0.13043497117E+03 -0.81006584230E+03  0.82174969108E+03  0.00000000000E+00 0.  1.
        -13    1    3    3    0    0  0.39645510015E+02  0.79673211548E+02 -0.70788914775E+03  0.71346102389E+03  0.00000000000E+00 0. -1.
         22    1    1    2    0    0  0.56601654988E+01 -0.21010818272E+03  0.23259904938E+03  0.31349609837E+03  0.00000000000E+00 0.  1.
<mgrwt>
<rscale>  0 0.13287502E+04</rscale>
<asrwt>0</asrwt>
<pdfrwt beam="1">  1        2 0.24108175E+00 0.13287502E+04</pdfrwt>
<pdfrwt beam="2">  1       -2 0.43334682E-01 0.13287502E+04</pdfrwt>
<totfact> 0.57461055E+01</totfact>
</mgrwt>
</event>
<event>
 6    1  0.1028026E-006  0.2569763E+04  0.7818608E-02  0.8378545E-01
         -2   -1    0    0    0  501 -0.00000000000E+00  0.00000000000E+00  0.76271067736E+03  0.76271067736E+03  0.00000000000E+00 0.  1.
          2   -1    0    0  501    0  0.00000000000E+00 -0.00000000000E+00 -0.21645429621E+04  0.21645429621E+04  0.00000000000E+00 0. -1.
         23    2    1    2    0    0 -0.12813644240E+04 -0.19176755637E+02 -0.62469902432E+03  0.14285212952E+04  0.90342043248E+02 0.  0.
         11    1    3    3    0    0 -0.10138869930E+04  0.20302131867E+02 -0.48229032961E+03  0.11229349817E+04  0.00000000000E+00 0.  1.
        -11    1    3    3    0    0 -0.26747743105E+03 -0.39478887505E+02 -0.14240869471E+03  0.30558631352E+03  0.00000000000E+00 0. -1.
         22    1    1    2    0    0  0.12813644240E+04  0.19176755637E+02 -0.77713326040E+03  0.14987323442E+04  0.00000000000E+00 0. -1.
<mgrwt>
<rscale>  0 0.25697627E+04</rscale>
<asrwt>0</asrwt>
<pdfrwt beam="1">  1        2 0.33300660E+00 0.25697627E+04</pdfrwt>
<pdfrwt beam="2">  1       -2 0.11734011E+00 0.25697627E+04</pdfrwt>
<totfact> 0.26906225E+00</totfact>
</mgrwt>
</event>
<event>
 6    1  0.1028026E-006  0.3640356E+04  0.7818608E-02  0.8081310E-01
          1   -1    0    0  501    0  0.00000000000E+00  0.00000000000E+00  0.20602610239E+04  0.20602610239E+04  0.00000000000E+00 0. -1.
         -1   -1    0    0    0  501 -0.00000000000E+00 -0.00000000000E+00 -0.16080721335E+04  0.16080721335E+04  0.00000000000E+00 0.  1.
         23    2    1    2    0    0  0.76557324183E+02 -0.16804899662E+04 -0.47111447482E+03  0.17493759785E+04  0.91977798707E+02 0.  0.
         13    1    3    3    0    0  0.17679169607E+02 -0.24603685245E+03 -0.36396270988E+02  0.24934188245E+03  0.00000000000E+00 0. -1.
        -13    1    3    3    0    0  0.58878154576E+02 -0.14344531137E+04 -0.43471820383E+03  0.15000340960E+04  0.00000000000E+00 0.  1.
         22    1    1    2    0    0 -0.76557324183E+02  0.16804899662E+04  0.92330336519E+03  0.19189571789E+04  0.00000000000E+00 0. -1.
<mgrwt>
<rscale>  0 0.36403562E+04</rscale>
<asrwt>0</asrwt>
<pdfrwt beam="1">  1        1 0.31696323E+00 0.36403562E+04</pdfrwt>
<pdfrwt beam="2">  1       -1 0.24739571E+00 0.36403562E+04</pdfrwt>
<totfact> 0.15857241E-01</totfact>
</mgrwt>
</event>
<event>
 6    1  0.1028026E-006  0.5112301E+04  0.7818608E-02  0.7811413E-01
         -2   -1    0    0    0  501 -0.00000000000E+00  0.00000000000E+00  0.23342294985E+04  0.23342294985E+04  0.00000000000E+00 0.  1.
          2   -1    0    0  501    0  0.00000000000E+00 -0.00000000000E+00 -0.27991697490E+04  0.27991697490E+04  0.00000000000E+00 0. -1.
         23    2    1    2    0    0 -0.12709810072E+03  0.60996823654E+03  0.22559596324E+04  0.23420713647E+04  0.87916080964E+02 0.  0.
         13    1    3    3    0    0 -0.10858169403E+03  0.49162040594E+03  0.16815165323E+04  0.17552716189E+04  0.00000000000E+00 0.  1.
        -13    1    3    3    0    0 -0.18516406688E+02  0.11834783060E+03  0.57444310012E+03  0.58679974574E+03  0.00000000000E+00 0. -1.
         22    1    1    2    0    0  0.12709810072E+03 -0.60996823654E+03 -0.27208998829E+04  0.27913278828E+04  0.00000000000E+00 0. -1.
<mgrwt>
<rscale>  0 0.51123007E+04</rscale>
<asrwt>0</asrwt>
<pdfrwt beam="1">  1        2 0.43064150E+00 0.51123007E+04</pdfrwt>
<pdfrwt beam="2">  1       -2 0.35911223E+00 0.51123007E+04</pdfrwt>
<totfact> 0.22757756E-02</totfact>
</mgrwt>
</event>
<event>
 6    1  0.1028026E-006  0.2303562E+04  0.7818608E-02  0.8476518E-01
          1   -1    0    0  501    0  0.00000000000E+00  0.00000000000E+00  0.12801340248E+04  0.12801340248E+04  0.00000000000E+00 0. -1.
         -1   -1    0    0    0  501 -0.00000000000E+00 -0.00000000000E+00 -0.10362974249E+04  0.10362974249E+04  0.00000000000E+00 0.  1.
         23    2    1    2    0    0 -0.10393190723E+04  0.15731705431E+03 -0.34663392738E+03  0.11107829797E+04  0.93546559387E+02 0.  0.
         13    1    3    3    0    0 -0.67712909751E+03  0.14293786430E+03 -0.20705035973E+03  0.72236064346E+03  0.00000000000E+00 0. -1.
        -13    1    3    3    0    0 -0.36218997478E+03  0.14379190014E+02 -0.13958356765E+03  0.38842233625E+03  0.00000000000E+00 0.  1.
         22    1    1    2    0    0  0.10393190723E+04 -0.15731705431E+03  0.59047052725E+03  0.12056484700E+04  0.00000000000E+00 0. -1.
<mgrwt>
<rscale>  0 0.23035621E+04</rscale>
<asrwt>0</asrwt>
<pdfrwt beam="1">  1        1 0.19694370E+00 0.23035621E+04</pdfrwt>
<pdfrwt beam="2">  1       -1 0.15943037E+00 0.23035621E+04</pdfrwt>
<totfact> 0.24932298E+00</totfact>
</mgrwt>
</event>
<event>
 6    1  0.1028026E-006  0.2716237E+04  0.7818608E-02  0.8329756E-01
          3   -1    0    0  501    0  0.00000000000E+00  0.00000000000E+00  0.28162793023E+04  0.28162793023E+04  0.00000000000E+00 0. -1.
         -3   -1    0    0    0  501 -0.00000000000E+00 -0.00000000000E+00 -0.65493719344E+03  0.65493719344E+03  0.00000000000E+00 0.  1.
         23    2    1    2    0    0  0.99328729090E+03 -0.74469961014E+03  0.17799650211E+04  0.21725072771E+04  0.10156397440E+03 0.  0.
         11    1    3    3    0    0  0.67038723277E+02 -0.75378034919E+02  0.11342272416E+03  0.15179180782E+03  0.00000000000E+00 0.  1.
        -11    1    3    3    0    0  0.92624856762E+03 -0.66932157522E+03  0.16665422970E+04  0.20207154692E+04  0.00000000000E+00 0. -1.
         22    1    1    2    0    0 -0.99328729090E+03  0.74469961014E+03  0.38137708775E+03  0.12987092187E+04  0.00000000000E+00 0. -1.
<mgrwt>
<rscale>  0 0.27162371E+04</rscale>
<asrwt>0</asrwt>
<pdfrwt beam="1">  1        3 0.43327373E+00 0.27162371E+04</pdfrwt>
<pdfrwt beam="2">  1       -3 0.10075957E+00 0.27162371E+04</pdfrwt>
<totfact> 0.14566909E-02</totfact>
</mgrwt>
</event>
<event>
 6    1  0.1028026E-006  0.1341467E+04  0.7818608E-02  0.8997313E-01
          1   -1    0    0  501    0  0.00000000000E+00  0.00000000000E+00  0.11925371065E+04  0.11925371065E+04  0.00000000000E+00 0. -1.
         -1   -1    0    0    0  501 -0.00000000000E+00 -0.00000000000E+00 -0.37724915298E+03  0.37724915298E+03  0.00000000000E+00 0.  1.
         23    2    1    2    0    0 -0.47004414455E+03  0.34216744366E+03  0.24577268557E+02  0.58833659463E+03  0.86693997075E+02 0.  0.
         11    1    3    3    0    0 -0.11493132974E+03  0.98817911584E+02  0.42668956254E+02  0.15746374197E+03  0.00000000000E+00 0. -1.
        -11    1    3    3    0    0 -0.35511281481E+03  0.24334953207E+03 -0.18091687697E+02  0.43087285267E+03  0.00000000000E+00 0.  1.
         22    1    1    2    0    0  0.47004414455E+03 -0.34216744366E+03  0.79071068496E+03  0.98144966485E+03  0.00000000000E+00 0. -1.
<mgrwt>
<rscale>  0 0.13414673E+04</rscale>
<asrwt>0</asrwt>
<pdfrwt beam="1">  1        1 0.18346724E+00 0.13414673E+04</pdfrwt>
<pdfrwt beam="2">  1       -1 0.58038332E-01 0.13414673E+04</pdfrwt>
<totfact> 0.31875605E+01</totfact>
</mgrwt>
</event>
<event>
 6    1  0.1028026E-006  0.2513831E+04  0.7818608E-02  0.8398075E-01
         -3   -1    0    0    0  501 -0.00000000000E+00  0.00000000000E+00  0.16794868373E+04  0.16794868373E+04  0.00000000000E+00 0.  1.
          3   -1    0    0  501    0  0.00000000000E+00 -0.00000000000E+00 -0.94066625699E+03  0.94066625699E+03  0.00000000000E+00 0. -1.
         23    2    1    2    0    0  0.76778118135E+03 -0.93264253968E+03  0.14442169621E+02  0.12115956297E+04  0.91898554715E+02 0.  0.
         13    1    3    3    0    0  0.26360635599E+03 -0.38831338112E+03 -0.58172295625E+01  0.46937131680E+03  0.00000000000E+00 0.  1.
        -13    1    3    3    0    0  0.50417482536E+03 -0.54432915856E+03  0.20259399183E+02  0.74222431289E+03  0.00000000000E+00 0. -1.
         22    1    1    2    0    0 -0.76778118135E+03  0.93264253968E+03  0.72437841073E+03  0.14085574646E+04  0.00000000000E+00 0.  1.
<mgrwt>
<rscale>  0 0.25138310E+04</rscale>
<asrwt>0</asrwt>
<pdfrwt beam="1">  1        3 0.14471789E+00 0.25138310E+04</pdfrwt>
<pdfrwt beam="2">  1       -3 0.25838259E+00 0.25138310E+04</pdfrwt>
<totfact> 0.53836611E-02</totfact>
</mgrwt>
</event>
<event>
 6    1  0.1028026E-006  0.2739410E+04  0.7818608E-02  0.8322330E-01
         -2   -1    0    0    0  501 -0.00000000000E+00  0.00000000000E+00  0.10896493100E+04  0.10896493100E+04  0.00000000000E+00 0.  1.
          2   -1    0    0  501    0  0.00000000000E+00 -0.00000000000E+00 -0.17217390631E+04  0.17217390631E+04  0.00000000000E+00 0. -1.
         23    2    1    2    0    0 -0.10729919749E+04 -0.18423745830E+03 -0.11668837100E+04  0.15984333881E+04  0.90091532393E+02 0.  0.
         13    1    3    3    0    0 -0.21222447603E+03 -0.71659059466E+02 -0.22388600275E+03  0.31670047562E+03  0.00000000000E+00 0. -1.
        -13    1    3    3    0    0 -0.86076749884E+03 -0.11257839884E+03 -0.94299770726E+03  0.12817329124E+04  0.00000000000E+00 0.  1.
         22    1    1    2    0    0  0.10729919749E+04  0.18423745830E+03  0.53479395690E+03  0.12129549850E+04  0.00000000000E+00 0.  1.
<mgrwt>
<rscale>  0 0.27394100E+04</rscale>
<asrwt>0</asrwt>
<pdfrwt beam="1">  1        2 0.26488293E+00 0.27394100E+04</pdfrwt>
<pdfrwt beam="2">  1       -2 0.16763835E+00 0.27394100E+04</pdfrwt>
<totfact> 0.18483833E+00</totfact>
</mgrwt>
</event>
<event>
 6    1  0.1028026E-006  0.2485453E+04  0.7818608E-02  0.8408186E-01
         -2   -1    0    0    0  501 -0.00000000000E+00  0.00000000000E+00  0.12737504172E+04  0.12737504172E+04  0.00000000000E+00 0.  1.
          2   -1    0    0  501    0  0.00000000000E+00 -0.00000000000E+00 -0.12124585430E+04  0.12124585430E+04  0.00000000000E+00 0. -1.
         23    2    1    2    0    0  0.28676021927E+03 -0.97586037405E+03 -0.68032059338E+03  0.12274302087E+04  0.95989137589E+02 0.  0.
         11    1    3    3    0    0  0.20522793686E+03 -0.74929625038E+03 -0.56391507856E+03  0.95998103769E+03  0.00000000000E+00 0.  1.
        -11    1    3    3    0    0  0.81532282407E+02 -0.22656412367E+03 -0.11640551482E+03  0.26744917104E+03  0.00000000000E+00 0. -1.
         22    1    1    2    0    0 -0.28676021927E+03  0.97586037405E+03  0.74161246763E+03  0.12587787515E+04  0.00000000000E+00 0.  1.
<mgrwt>
<rscale>  0 0.24854533E+04</rscale>
<asrwt>0</asrwt>
<pdfrwt beam="1">  1        2 0.18653208E+00 0.24854533E+04</pdfrwt>
<pdfrwt beam="2">  1       -2 0.19596160E+00 0.24854533E+04</pdfrwt>
<totfact> 0.23512143E+00</totfact>
</mgrwt>
</event>
<event>
 6    1  0.1028026E-006  0.2422592E+04  0.7818608E-02  0.8431094E-01
         -1   -1    0    0    0  501 -0.00000000000E+00  0.00000000000E+00  0.89378253509E+03  0.89378253509E+03  0.00000000000E+00 0.  1.
          1   -1    0    0  501    0  0.00000000000E+00 -0.00000000000E+00 -0.16416052293E+04  0.16416052293E+04  0.00000000000E+00 0. -1.
         23    2    1    2    0    0  0.74490005857E+03 -0.49491792913E+03  0.47789151250E+03  0.10180891219E+04  0.91133466106E+02 0.  0.
         11    1    3    3    0    0  0.50922606725E+03 -0.34393753473E+03  0.37503695935E+03  0.71990064331E+03  0.00000000000E+00 0. -1.
        -11    1    3    3    0    0  0.23567399132E+03 -0.15098039441E+03  0.10285455315E+03  0.29818847863E+03  0.00000000000E+00 0.  1.
         22    1    1    2    0    0 -0.74490005857E+03  0.49491792913E+03 -0.12257142067E+04  0.15172986424E+04  0.00000000000E+00 0. -1.
<mgrwt>
<rscale>  0 0.24225921E+04</rscale>
<asrwt>0</asrwt>
<pdfrwt beam="1">  1        1 0.25255465E+00 0.24225921E+04</pdfrwt>
<pdfrwt beam="2">  1       -1 0.13750501E+00 0.24225921E+04</pdfrwt>
<totfact> 0.20528709E+00</totfact>
</mgrwt>
</event>
<event>
 6    1  0.1028026E-006  0.3062136E+04  0.7818608E-02  0.8226207E-01
          1   -1    0    0  501    0  0.00000000000E+00  0.00000000000E+00  0.91699825824E+03  0.91699825824E+03  0.00000000000E+00 0. -1.
         -1   -1    0    0    0  501 -0.00000000000E+00 -0.00000000000E+00 -0.25563512467E+04  0.25563512467E+04  0.00000000000E+00 0.  1.
         23    2    1    2    0    0 -0.84182683807E+02  0.16514471101E+03 -0.25426857709E+04  0.25511946288E+04  0.94781877777E+02 0.  0.
         13    1    3    3    0    0 -0.89493989846E+02  0.78341598284E+02 -0.16506978708E+04  0.16549773536E+04  0.00000000000E+00 0. -1.
        -13    1    3    3    0    0  0.53113060385E+01  0.86803112729E+02 -0.89198790012E+03  0.89621727517E+03  0.00000000000E+00 0.  1.
         22    1    1    2    0    0  0.84182683807E+02 -0.16514471101E+03  0.90333278245E+03  0.92215487619E+03  0.00000000000E+00 0. -1.
<mgrwt>
<rscale>  0 0.30621363E+04</rscale>
<asrwt>0</asrwt>
<pdfrwt beam="1">  1        1 0.14107666E+00 0.30621363E+04</pdfrwt>
<pdfrwt beam="2">  1       -1 0.39328480E+00 0.30621363E+04</pdfrwt>
<totfact> 0.11852957E-01</totfact>
</mgrwt>
</event>
<event>
 6    1  0.1028026E-006  0.6048290E+03  0.7818608E-02  0.9895438E-01
          1   -1    0    0  501    0  0.00000000000E+00  0.00000000000E+00  0.74682063905E+03  0.74682063905E+03  0.00000000000E+00 0. -1.
         -1   -1    0    0    0  501 -0.00000000000E+00 -0.00000000000E+00 -0.12245849306E+03  0.12245849306E+03  0.00000000000E+00 0.  1.
         23    2    1    2    0    0  0.24920348775E+03 -0.11989988285E+03  0.17064036615E+03  0.33792067144E+03  0.92703211439E+02 0.  0.
         13    1    3    3    0    0  0.73759417581E+02 -0.62470465595E+00  0.16225200748E+02  0.75525486275E+02  0.00000000000E+00 0.  1.
        -13    1    3    3    0    0  0.17544407017E+03 -0.11927517819E+03  0.15441516540E+03  0.26239518517E+03  0.00000000000E+00 0. -1.
         22    1    1    2    0    0 -0.24920348775E+03  0.11989988285E+03  0.45372177985E+03  0.53135846067E+03  0.00000000000E+00 0. -1.
<mgrwt>
<rscale>  0 0.60482900E+03</rscale>
<asrwt>0</asrwt>
<pdfrwt beam="1">  1        1 0.11489548E+00 0.60482900E+03</pdfrwt>
<pdfrwt beam="2">  1       -1 0.18839769E-01 0.60482900E+03</pdfrwt>
<totfact> 0.56311195E+02</totfact>
</mgrwt>
</event>
<event>
 6    1  0.1028026E-006  0.6631627E+03  0.7818608E-02  0.9782389E-01
          1   -1    0    0  501    0  0.00000000000E+00  0.00000000000E+00  0.67503889594E+03  0.67503889594E+03  0.00000000000E+00 0. -1.
         -1   -1    0    0    0  501 -0.00000000000E+00 -0.00000000000E+00 -0.16287383926E+03  0.16287383926E+03  0.00000000000E+00 0.  1.
         23    2    1    2    0    0 -0.88763174135E+02  0.19656471264E+03 -0.46973358523E+02  0.23861952258E+03  0.90643217113E+02 0.  0.
         11    1    3    3    0    0 -0.34251647039E+01  0.80054821476E+02  0.14903245590E+02  0.81502226496E+02  0.00000000000E+00 0.  1.
        -11    1    3    3    0    0 -0.85338009432E+02  0.11650989116E+03 -0.61876604112E+02  0.15711729609E+03  0.00000000000E+00 0. -1.
         22    1    1    2    0    0  0.88763174135E+02 -0.19656471264E+03  0.55913841521E+03  0.59929321262E+03  0.00000000000E+00 0. -1.
<mgrwt>
<rscale>  0 0.66316265E+03</rscale>
<asrwt>0</asrwt>
<pdfrwt beam="1">  1        1 0.10385214E+00 0.66316265E+03</pdfrwt>
<pdfrwt beam="2">  1       -1 0.25057514E-01 0.66316265E+03</pdfrwt>
<totfact> 0.40598180E+02</totfact>
</mgrwt>
</event>
<event>
 6    1  0.1028026E-006  0.3595727E+04  0.7818608E-02  0.8091471E-01
         -2   -1    0    0    0  501 -0.00000000000E+00  0.00000000000E+00  0.13523525120E+04  0.13523525120E+04  0.00000000000E+00 0.  1.
          2   -1    0    0  501    0  0.00000000000E+00 -0.00000000000E+00 -0.23901408651E+04  0.23901408651E+04  0.00000000000E+00 0. -1.
         23    2    1    2    0    0  0.25052492938E+03 -0.17235444834E+04 -0.97856887617E+03  0.19998301069E+04  0.91406152195E+02 0.  0.
         13    1    3    3    0    0  0.23448936114E+02 -0.41342554289E+03 -0.21639124226E+03  0.46722125577E+03  0.00000000000E+00 0.  1.
        -13    1    3    3    0    0  0.22707599326E+03 -0.13101189405E+04 -0.76217763391E+03  0.15326088512E+04  0.00000000000E+00 0. -1.
         22    1    1    2    0    0 -0.25052492938E+03  0.17235444834E+04 -0.59219476887E+02  0.17426632701E+04  0.00000000000E+00 0.  1.
<mgrwt>
<rscale>  0 0.35957269E+04</rscale>
<asrwt>0</asrwt>
<pdfrwt beam="1">  1        2 0.36771397E+00 0.35957269E+04</pdfrwt>
<pdfrwt beam="2">  1       -2 0.20805424E+00 0.35957269E+04</pdfrwt>
<totfact> 0.38702939E-01</totfact>
</mgrwt>
</event>
<event>
 6    1  0.1028026E-006  0.1959264E+04  0.7818608E-02  0.8625906E-01
          2   -1    0    0  501    0  0.00000000000E+00  0.00000000000E+00  0.20771441643E+04  0.20771441643E+04  0.00000000000E+00 0. -1.
         -2   -1    0    0    0  501 -0.00000000000E+00 -0.00000000000E+00 -0.46201851542E+03  0.46201851542E+03  0.00000000000E+00 0.  1.
         23    2    1    2    0    0  0.90756879180E+03 -0.19814548468E+03  0.12038140850E+04  0.15232296369E+04  0.90096784126E+02 0.  0.
         11    1    3    3    0    0  0.44127847376E+03 -0.51090007392E+02  0.58674162024E+03  0.73593655241E+03  0.00000000000E+00 0. -1.
        -11    1    3    3    0    0  0.46629031804E+03 -0.14705547729E+03  0.61707246478E+03  0.78729308449E+03  0.00000000000E+00 0.  1.
         22    1    1    2    0    0 -0.90756879180E+03  0.19814548468E+03  0.41131156389E+03  0.10159330428E+04  0.00000000000E+00 0. -1.
<mgrwt>
<rscale>  0 0.19592642E+04</rscale>
<asrwt>0</asrwt>
<pdfrwt beam="1">  1        2 0.31956064E+00 0.19592642E+04</pdfrwt>
<pdfrwt beam="2">  1       -2 0.71079773E-01 0.19592642E+04</pdfrwt>
<totfact> 0.10139093E+01</totfact>
</mgrwt>
</event>
<event>
 6    1  0.1028026E-006  0.5323468E+04  0.7818608E-02  0.7780458E-01
          2   -1    0    0  501    0  0.00000000000E+00  0.00000000000E+00  0.34069811253E+04  0.34069811253E+04  0.00000000000E+00 0. -1.
         -2   -1    0    0    0  501 -0.00000000000E+00 -0.00000000000E+00 -0.20795032577E+04  0.20795032577E+04  0.00000000000E+00 0.  1.
         23    2    1    2    0    0  0.28771055852E+02 -0.17690661270E+04  0.27120164302E+04  0.32398491729E+04  0.10567312955E+03 0.  0.
         13    1    3    3    0    0  0.52840577857E+02 -0.11280646068E+04  0.16607205722E+04  0.20083114058E+04  0.00000000000E+00 0.  1.
        -13    1    3    3    0    0 -0.24069522006E+02 -0.64100152015E+03  0.10512958580E+04  0.12315377671E+04  0.00000000000E+00 0. -1.
         22    1    1    2    0    0 -0.28771055852E+02  0.17690661270E+04 -0.13845385626E+04  0.22466352100E+04  0.00000000000E+00 0.  1.
<mgrwt>
<rscale>  0 0.53234682E+04</rscale>
<asrwt>0</asrwt>
<pdfrwt beam="1">  1        2 0.52415094E+00 0.53234682E+04</pdfrwt>
<pdfrwt beam="2">  1       -2 0.31992358E+00 0.53234682E+04</pdfrwt>
<totfact> 0.16013549E-02</totfact>
</mgrwt>
</event>
<event>
 6    1  0.1028026E-006  0.4111147E+04  0.7818608E-02  0.7982492E-01
          2   -1    0    0  501    0  0.00000000000E+00  0.00000000000E+00  0.24686422157E+04  0.24686422157E+04  0.00000000000E+00 0. -1.
         -2   -1    0    0    0  501 -0.00000000000E+00 -0.00000000000E+00 -0.17116223509E+04  0.17116223509E+04  0.00000000000E+00 0.  1.
         23    2    1    2    0    0 -0.40119124870E+03 -0.11766138917E+04  0.20420162462E+04  0.23923634595E+04  0.90542281624E+02 0.  0.
         11    1    3    3    0    0 -0.13717324468E+03 -0.53220752244E+03  0.93194833896E+03  0.10819376380E+04  0.00000000000E+00 0. -1.
        -11    1    3    3    0    0 -0.26401800403E+03 -0.64440636924E+03  0.11100679072E+04  0.13104258216E+04  0.00000000000E+00 0.  1.
         22    1    1    2    0    0  0.40119124870E+03  0.11766138917E+04 -0.12849963814E+04  0.17879011070E+04  0.00000000000E+00 0.  1.
<mgrwt>
<rscale>  0 0.41111474E+04</rscale>
<asrwt>0</asrwt>
<pdfrwt beam="1">  1        2 0.37979111E+00 0.41111474E+04</pdfrwt>
<pdfrwt beam="2">  1       -2 0.26332652E+00 0.41111474E+04</pdfrwt>
<totfact> 0.15109103E-01</totfact>
</mgrwt>
</event>
<event>
 6    1  0.1028026E-006  0.1748259E+04  0.7818608E-02  0.8734309E-01
          1   -1    0    0  501    0  0.00000000000E+00  0.00000000000E+00  0.53694274871E+03  0.53694274871E+03  0.00000000000E+00 0. -1.
         -1   -1    0    0    0  501 -0.00000000000E+00 -0.00000000000E+00 -0.14230614380E+04  0.14230614380E+04  0.00000000000E+00 0.  1.
         23    2    1    2    0    0 -0.50429015903E+03 -0.32726050804E+03  0.26327037939E+03  0.66289076230E+03  0.93299868471E+02 0.  0.
         11    1    3    3    0    0 -0.37439788889E+03 -0.28415460562E+03  0.22295802331E+03  0.52021908775E+03  0.00000000000E+00 0.  1.
        -11    1    3    3    0    0 -0.12989227014E+03 -0.43105902420E+02  0.40312356081E+02  0.14267167455E+03  0.00000000000E+00 0. -1.
         22    1    1    2    0    0  0.50429015903E+03  0.32726050804E+03 -0.11493890687E+04  0.12971134244E+04  0.00000000000E+00 0.  1.
<mgrwt>
<rscale>  0 0.17482592E+04</rscale>
<asrwt>0</asrwt>
<pdfrwt beam="1">  1        1 0.82606578E-01 0.17482592E+04</pdfrwt>
<pdfrwt beam="2">  1       -1 0.21893253E+00 0.17482592E+04</pdfrwt>
<totfact> 0.42544257E+00</totfact>
</mgrwt>
</event>
<event>
 6    1  0.1028026E-006  0.5248458E+03  0.7818608E-02  0.1007490E+00
         -2   -1    0    0    0  501 -0.00000000000E+00  0.00000000000E+00  0.51570264124E+02  0.51570264124E+02  0.00000000000E+00 0.  1.
          2   -1    0    0  501    0  0.00000000000E+00 -0.00000000000E+00 -0.13353776212E+04  0.13353776212E+04  0.00000000000E+00 0. -1.
         23    2    1    2    0    0 -0.21244547970E+03 -0.57439401823E+02 -0.32772311226E+03  0.40586203286E+03  0.94282472810E+02 0.  0.
         13    1    3    3    0    0 -0.13037481639E+03  0.89333843164E+01 -0.21365551301E+03  0.25045174454E+03  0.00000000000E+00 0.  1.
        -13    1    3    3    0    0 -0.82070663316E+02 -0.66372786139E+02 -0.11406759925E+03  0.15541028832E+03  0.00000000000E+00 0. -1.
         22    1    1    2    0    0  0.21244547970E+03  0.57439401823E+02 -0.95608424486E+03  0.98108585251E+03  0.00000000000E+00 0. -1.
<mgrwt>
<rscale>  0 0.52484579E+03</rscale>
<asrwt>0</asrwt>
<pdfrwt beam="1">  1        2 0.20544270E+00 0.52484579E+03</pdfrwt>
<pdfrwt beam="2">  1       -2 0.79338874E-02 0.52484579E+03</pdfrwt>
<totfact> 0.15957095E+03</totfact>
</mgrwt>
</event>
<event>
 6    1  0.1028026E-006  0.1651838E+04  0.7818608E-02  0.8789320E-01
         -2   -1    0    0    0  501 -0.00000000000E+00  0.00000000000E+00  0.38017850335E+03  0.38017850335E+03  0.00000000000E+00 0.  1.
          2   -1    0    0  501    0  0.00000000000E+00 -0.00000000000E+00 -0.17942673522E+04  0.17942673522E+04  0.00000000000E+00 0. -1.
         23    2    1    2    0    0 -0.21088002351E+03 -0.40673570060E+03  0.19180425567E+03  0.50447670087E+03  0.88337731289E+02 0.  0.
         13    1    3    3    0    0 -0.11188065181E+03 -0.30347802824E+03  0.12819337552E+03  0.34792202488E+03  0.00000000000E+00 0. -1.
        -13    1    3    3    0    0 -0.98999371706E+02 -0.10325767236E+03  0.63610880151E+02  0.15655467598E+03  0.00000000000E+00 0.  1.
         22    1    1    2    0    0  0.21088002351E+03  0.40673570060E+03 -0.16058931045E+04  0.16699691547E+04  0.00000000000E+00 0. -1.
<mgrwt>
<rscale>  0 0.16518376E+04</rscale>
<asrwt>0</asrwt>
<pdfrwt beam="1">  1        2 0.27604113E+00 0.16518376E+04</pdfrwt>
<pdfrwt beam="2">  1       -2 0.58489002E-01 0.16518376E+04</pdfrwt>
<totfact> 0.22690239E+01</totfact>
</mgrwt>
</event>
<event>
 6    1  0.1028026E-006  0.3682351E+04  0.7818608E-02  0.8071884E-01
          1   -1    0    0  501    0  0.00000000000E+00  0.00000000000E+00  0.20300145799E+04  0.20300145799E+04  0.00000000000E+00 0. -1.
         -1   -1    0    0    0  501 -0.00000000000E+00 -0.00000000000E+00 -0.16699028823E+04  0.16699028823E+04  0.00000000000E+00 0.  1.
         23    2    1    2    0    0  0.55272175945E+03 -0.21759171745E+03 -0.15696682394E+04  0.16807844542E+04  0.91271576561E+02 0.  0.
         13    1    3    3    0    0  0.54645398163E+03 -0.21800461107E+03 -0.15065281596E+04  0.16173326993E+04  0.00000000000E+00 0. -1.
        -13    1    3    3    0    0  0.62677778182E+01  0.41289361839E+00 -0.63140079834E+02  0.63451754912E+02  0.00000000000E+00 0.  1.
         22    1    1    2    0    0 -0.55272175945E+03  0.21759171745E+03  0.19297799370E+04  0.20191330080E+04  0.00000000000E+00 0. -1.
<mgrwt>
<rscale>  0 0.36823510E+04</rscale>
<asrwt>0</asrwt>
<pdfrwt beam="1">  1        1 0.31230993E+00 0.36823510E+04</pdfrwt>
<pdfrwt beam="2">  1       -1 0.25690814E+00 0.36823510E+04</pdfrwt>
<totfact> 0.14359492E-01</totfact>
</mgrwt>
</event>
<event>
 6    1  0.1028026E-006  0.4218709E+04  0.7818608E-02  0.7961823E-01
          1   -1    0    0  501    0  0.00000000000E+00  0.00000000000E+00  0.30563317939E+04  0.30563317939E+04  0.00000000000E+00 0. -1.
         -1   -1    0    0    0  501 -0.00000000000E+00 -0.00000000000E+00 -0.14557900270E+04  0.14557900270E+04  0.00000000000E+00 0.  1.
         23    2    1    2    0    0 -0.34725183063E+03 -0.13333517676E+04  0.25075727857E+04  0.28625412563E+04  0.88376458910E+02 0.  0.
         13    1    3    3    0    0 -0.12529522303E+03 -0.34863324121E+03  0.71628626788E+03  0.80641803510E+03  0.00000000000E+00 0. -1.
        -13    1    3    3    0    0 -0.22195660760E+03 -0.98471852643E+03  0.17912865178E+04  0.20561232212E+04  0.00000000000E+00 0.  1.
         22    1    1    2    0    0  0.34725183063E+03  0.13333517676E+04 -0.90703101881E+03  0.16495805646E+04  0.00000000000E+00 0.  1.
<mgrwt>
<rscale>  0 0.42187094E+04</rscale>
<asrwt>0</asrwt>
<pdfrwt beam="1">  1        1 0.47020489E+00 0.42187094E+04</pdfrwt>
<pdfrwt beam="2">  1       -1 0.22396770E+00 0.42187094E+04</pdfrwt>
<totfact> 0.43240252E-02</totfact>
</mgrwt>
</event>
<event>
 6    1  0.1895723E-006  0.2308047E+04  0.7818608E-02  0.8474755E-01
          2   -1    0    0  501    0  0.00000000000E+00  0.00000000000E+00  0.19712199405E+04  0.19712199405E+04  0.00000000000E+00 0. -1.
         -2   -1    0    0    0  501 -0.00000000000E+00 -0.00000000000E+00 -0.67560739341E+03  0.67560739341E+03  0.00000000000E+00 0.  1.
         23    2    1    2    0    0  0.56647164936E+03 -0.42529349432E+03 -0.39335924744E+03  0.81532783663E+03  0.90902683077E+02 0.  0.
         13    1    3    3    0    0  0.31455713874E+03 -0.18358157931E+03 -0.18116184893E+03  0.40677758702E+03  0.00000000000E+00 0. -1.
        -13    1    3    3    0    0  0.25191451063E+03 -0.24171191501E+03 -0.21219739851E+03  0.40855024961E+03  0.00000000000E+00 0.  1.
         22    1    1    2    0    0 -0.56647164936E+03  0.42529349432E+03  0.16889717945E+04  0.18314994973E+04  0.00000000000E+00 0. -1.
<mgrwt>
<rscale>  0 0.23080475E+04</rscale>
<asrwt>0</asrwt>
<pdfrwt beam="1">  1        2 0.30326460E+00 0.23080475E+04</pdfrwt>
<pdfrwt beam="2">  1       -2 0.10393960E+00 0.23080475E+04</pdfrwt>
<totfact> 0.47304524E+00</totfact>
</mgrwt>
</event>
<event>
 6    1  0.1028026E-006  0.3717710E+04  0.7818608E-02  0.8064048E-01
          2   -1    0    0  501    0  0.00000000000E+00  0.00000000000E+00  0.21038452458E+04  0.21038452458E+04  0.00000000000E+00 0. -1.
         -2   -1    0    0    0  501 -0.00000000000E+00 -0.00000000000E+00 -0.16423933810E+04  0.16423933810E+04  0.00000000000E+00 0.  1.
         23    2    1    2    0    0  0.48293526265E+03 -0.63757373405E+03 -0.14588397352E+04  0.16660351360E+04  0.87937290650E+02 0.  0.
         11    1    3    3    0    0  0.22344821132E+03 -0.35036295961E+03 -0.69612677107E+03  0.81072547019E+03  0.00000000000E+00 0.  1.
        -11    1    3    3    0    0  0.25948705133E+03 -0.28721077444E+03 -0.76271296410E+03  0.85530966577E+03  0.00000000000E+00 0. -1.
         22    1    1    2    0    0 -0.48293526265E+03  0.63757373405E+03  0.19202916000E+04  0.20802034908E+04  0.00000000000E+00 0. -1.
<mgrwt>
<rscale>  0 0.37177098E+04</rscale>
<asrwt>0</asrwt>
<pdfrwt beam="1">  1        2 0.32366850E+00 0.37177098E+04</pdfrwt>
<pdfrwt beam="2">  1       -2 0.25267591E+00 0.37177098E+04</pdfrwt>
<totfact> 0.29204033E-01</totfact>
</mgrwt>
</event>
<event>
 6    1  0.1028026E-006  0.2933584E+04  0.7818608E-02  0.8262955E-01
          2   -1    0    0  501    0  0.00000000000E+00  0.00000000000E+00  0.28980336030E+04  0.28980336030E+04  0.00000000000E+00 0. -1.
         -2   -1    0    0    0  501 -0.00000000000E+00 -0.00000000000E+00 -0.74239254031E+03  0.74239254031E+03  0.00000000000E+00 0.  1.
         23    2    1    2    0    0 -0.14375254375E+04 -0.15746877339E+03  0.78833994119E+03  0.16502532476E+04  0.10285971060E+03 0.  0.
         13    1    3    3    0    0 -0.96296875828E+03 -0.14678352841E+03  0.50095634289E+03  0.10953590695E+04  0.00000000000E+00 0. -1.
        -13    1    3    3    0    0 -0.47455667924E+03 -0.10685244987E+02  0.28738359831E+03  0.55489417806E+03  0.00000000000E+00 0.  1.
         22    1    1    2    0    0  0.14375254375E+04  0.15746877339E+03  0.13673011215E+04  0.19901728958E+04  0.00000000000E+00 0. -1.
<mgrwt>
<rscale>  0 0.29335838E+04</rscale>
<asrwt>0</asrwt>
<pdfrwt beam="1">  1        2 0.44585132E+00 0.29335838E+04</pdfrwt>
<pdfrwt beam="2">  1       -2 0.11421424E+00 0.29335838E+04</pdfrwt>
<totfact> 0.10392108E+00</totfact>
</mgrwt>
</event>
<event>
 6    1  0.1028026E-006  0.2981194E+04  0.7818608E-02  0.8249121E-01
         -2   -1    0    0    0  501 -0.00000000000E+00  0.00000000000E+00  0.15431968419E+04  0.15431968419E+04  0.00000000000E+00 0.  1.
          2   -1    0    0  501    0  0.00000000000E+00 -0.00000000000E+00 -0.14397902717E+04  0.14397902717E+04  0.00000000000E+00 0. -1.
         23    2    1    2    0    0 -0.29272995514E+03  0.52341119193E+03  0.14159025947E+04  0.15399708569E+04  0.84142617124E+02 0.  0.
         11    1    3    3    0    0 -0.17241917707E+03  0.26695076963E+03  0.84167412364E+03  0.89967017091E+03  0.00000000000E+00 0. -1.
        -11    1    3    3    0    0 -0.12031077807E+03  0.25646042230E+03  0.57422847107E+03  0.64030068602E+03  0.00000000000E+00 0.  1.
         22    1    1    2    0    0  0.29272995514E+03 -0.52341119193E+03 -0.13124960245E+04  0.14430162566E+04  0.00000000000E+00 0. -1.
<mgrwt>
<rscale>  0 0.29811943E+04</rscale>
<asrwt>0</asrwt>
<pdfrwt beam="1">  1        2 0.22150620E+00 0.29811943E+04</pdfrwt>
<pdfrwt beam="2">  1       -2 0.23741490E+00 0.29811943E+04</pdfrwt>
<totfact> 0.90497230E-01</totfact>
</mgrwt>
</event>
<event>
 6    1  0.1028026E-006  0.2607141E+04  0.7818608E-02  0.8365780E-01
          1   -1    0    0  501    0  0.00000000000E+00  0.00000000000E+00  0.26021573840E+04  0.26021573840E+04  0.00000000000E+00 0. -1.
         -1   -1    0    0    0  501 -0.00000000000E+00 -0.00000000000E+00 -0.65303347846E+03  0.65303347846E+03  0.00000000000E+00 0.  1.
         23    2    1    2    0    0 -0.10602249096E+04  0.21484775972E+03  0.71135137496E+02  0.10879164839E+04  0.90915616525E+02 0.  0.
         11    1    3    3    0    0 -0.33198522907E+03  0.10859906311E+03  0.35668301109E+02  0.35111276897E+03  0.00000000000E+00 0. -1.
        -11    1    3    3    0    0 -0.72823968058E+03  0.10624869661E+03  0.35466836387E+02  0.73680371496E+03  0.00000000000E+00 0.  1.
         22    1    1    2    0    0  0.10602249096E+04 -0.21484775972E+03  0.18779887680E+04  0.21672743785E+04  0.00000000000E+00 0. -1.
<mgrwt>
<rscale>  0 0.26071409E+04</rscale>
<asrwt>0</asrwt>
<pdfrwt beam="1">  1        1 0.40033190E+00 0.26071409E+04</pdfrwt>
<pdfrwt beam="2">  1       -1 0.10046669E+00 0.26071409E+04</pdfrwt>
<totfact> 0.95399787E-01</totfact>
</mgrwt>
</event>
<event>
 6    1  0.1028026E-006  0.1693047E+04  0.7818608E-02  0.8765340E-01
         -2   -1    0    0    0  501 -0.00000000000E+00  0.00000000000E+00  0.54613480784E+03  0.54613480784E+03  0.00000000000E+00 0.  1.
          2   -1    0    0  501    0  0.00000000000E+00 -0.00000000000E+00 -0.13121344749E+04  0.13121344749E+04  0.00000000000E+00 0. -1.
         23    2    1    2    0    0 -0.26112418847E+03 -0.43124885196E+03 -0.11275698954E+04  0.12378706656E+04  0.82149264057E+02 0.  0.
         11    1    3    3    0    0 -0.12695341490E+03 -0.18380630240E+03 -0.59382788685E+03  0.63445526679E+03  0.00000000000E+00 0. -1.
        -11    1    3    3    0    0 -0.13417077356E+03 -0.24744254955E+03 -0.53374200852E+03  0.60341539877E+03  0.00000000000E+00 0.  1.
         22    1    1    2    0    0  0.26112418847E+03  0.43124885196E+03  0.36157022835E+03  0.62039861714E+03  0.00000000000E+00 0.  1.
<mgrwt>
<rscale>  0 0.16930473E+04</rscale>
<asrwt>0</asrwt>
<pdfrwt beam="1">  1        2 0.20186684E+00 0.16930473E+04</pdfrwt>
<pdfrwt beam="2">  1       -2 0.84020740E-01 0.16930473E+04</pdfrwt>
<totfact> 0.19158065E+01</totfact>
</mgrwt>
</event>
<event>
 6    1  0.1028026E-006  0.1476920E+04  0.7818608E-02  0.8899947E-01
         -1   -1    0    0    0  501 -0.00000000000E+00  0.00000000000E+00  0.35347827107E+03  0.35347827107E+03  0.00000000000E+00 0.  1.
          1   -1    0    0  501    0  0.00000000000E+00 -0.00000000000E+00 -0.15427349912E+04  0.15427349912E+04  0.00000000000E+00 0. -1.
         23    2    1    2    0    0 -0.30019846383E+03 -0.66911805259E+03 -0.67055367462E+03  0.99794218101E+03  0.91696674490E+02 0.  0.
         13    1    3    3    0    0 -0.19441988661E+03 -0.51807167465E+03 -0.47640141597E+03  0.73017508963E+03  0.00000000000E+00 0. -1.
        -13    1    3    3    0    0 -0.10577857722E+03 -0.15104637795E+03 -0.19415225864E+03  0.26776709138E+03  0.00000000000E+00 0.  1.
         22    1    1    2    0    0  0.30019846383E+03  0.66911805259E+03 -0.51870304548E+03  0.89827108124E+03  0.00000000000E+00 0.  1.
<mgrwt>
<rscale>  0 0.14769202E+04</rscale>
<asrwt>0</asrwt>
<pdfrwt beam="1">  1        1 0.23734385E+00 0.14769202E+04</pdfrwt>
<pdfrwt beam="2">  1       -1 0.54381272E-01 0.14769202E+04</pdfrwt>
<totfact> 0.20225342E+01</totfact>
</mgrwt>
</event>
<event>
 6    1  0.1028026E-006  0.1665653E+04  0.7818608E-02  0.8781200E-01
         -1   -1    0    0    0  501 -0.00000000000E+00  0.00000000000E+00  0.45483294657E+03  0.45483294657E+03  0.00000000000E+00 0.  1.
          1   -1    0    0  501    0  0.00000000000E+00 -0.00000000000E+00 -0.15249560524E+04  0.15249560524E+04  0.00000000000E+00 0. -1.
         23    2    1    2    0    0  0.89348133504E+02  0.30739672906E+03  0.37395220995E+03  0.50065771485E+03  0.91334846129E+02 0.  0.
         13    1    3    3    0    0 -0.15758092783E+02  0.39818026708E+02  0.71756572274E+02  0.83563140221E+02  0.00000000000E+00 0. -1.
        -13    1    3    3    0    0  0.10510622629E+03  0.26757870235E+03  0.30219563768E+03  0.41709457463E+03  0.00000000000E+00 0.  1.
         22    1    1    2    0    0 -0.89348133504E+02 -0.30739672906E+03 -0.14440753157E+04  0.14791312841E+04  0.00000000000E+00 0. -1.
<mgrwt>
<rscale>  0 0.16656533E+04</rscale>
<asrwt>0</asrwt>
<pdfrwt beam="1">  1        1 0.23460863E+00 0.16656533E+04</pdfrwt>
<pdfrwt beam="2">  1       -1 0.69974298E-01 0.16656533E+04</pdfrwt>
<totfact> 0.12386687E+01</totfact>
</mgrwt>
</event>
<event>
 6    1  0.1028026E-006  0.4607615E+04  0.7818608E-02  0.7892063E-01
          2   -1    0    0  501    0  0.00000000000E+00  0.00000000000E+00  0.29755040526E+04  0.29755040526E+04  0.00000000000E+00 0. -1.
         -2   -1    0    0    0  501 -0.00000000000E+00 -0.00000000000E+00 -0.17837412512E+04  0.17837412512E+04  0.00000000000E+00 0.  1.
         23    2    1    2    0    0  0.15301917526E+04  0.40529377461E+03  0.23237930473E+04  0.28131614615E+04  0.90074627249E+02 0.  0.
         13    1    3    3    0    0  0.86231705516E+03  0.21035924997E+03  0.12292654723E+04  0.15162240332E+04  0.00000000000E+00 0.  1.
        -13    1    3    3    0    0  0.66787469740E+03  0.19493452464E+03  0.10945275750E+04  0.12969374283E+04  0.00000000000E+00 0. -1.
         22    1    1    2    0    0 -0.15301917526E+04 -0.40529377461E+03 -0.11320302460E+04  0.19460838423E+04  0.00000000000E+00 0.  1.
<mgrwt>
<rscale>  0 0.46076151E+04</rscale>
<asrwt>0</asrwt>
<pdfrwt beam="1">  1        2 0.45776986E+00 0.46076151E+04</pdfrwt>
<pdfrwt beam="2">  1       -2 0.27442173E+00 0.46076151E+04</pdfrwt>
<totfact> 0.61678955E-02</totfact>
</mgrwt>
</event>
<event>
 6    1  0.1028026E-006  0.1670324E+04  0.7818608E-02  0.8778473E-01
          2   -1    0    0  501    0  0.00000000000E+00  0.00000000000E+00  0.13148145496E+04  0.13148145496E+04  0.00000000000E+00 0. -1.
         -2   -1    0    0    0  501 -0.00000000000E+00 -0.00000000000E+00 -0.53048967903E+03  0.53048967903E+03  0.00000000000E+00 0.  1.
         23    2    1    2    0    0 -0.69266952030E+03  0.34526339130E+03  0.54679035640E+02  0.78164031641E+03  0.94730742491E+02 0.  0.
         11    1    3    3    0    0 -0.27185619116E+03  0.85633125699E+02  0.10655539467E+02  0.28522335355E+03  0.00000000000E+00 0.  1.
        -11    1    3    3    0    0 -0.42081332913E+03  0.25963026561E+03  0.44023496174E+02  0.49641696286E+03  0.00000000000E+00 0. -1.
         22    1    1    2    0    0  0.69266952030E+03 -0.34526339130E+03  0.72964583494E+03  0.10636639122E+04  0.00000000000E+00 0. -1.
<mgrwt>
<rscale>  0 0.16703240E+04</rscale>
<asrwt>0</asrwt>
<pdfrwt beam="1">  1        2 0.20227916E+00 0.16703240E+04</pdfrwt>
<pdfrwt beam="2">  1       -2 0.81613797E-01 0.16703240E+04</pdfrwt>
<totfact> 0.20425661E+01</totfact>
</mgrwt>
</event>
<event>
 6    1  0.1028026E-006  0.3393991E+04  0.7818608E-02  0.8139383E-01
          1   -1    0    0  501    0  0.00000000000E+00  0.00000000000E+00  0.32938918732E+04  0.32938918732E+04  0.00000000000E+00 0. -1.
         -1   -1    0    0    0  501 -0.00000000000E+00 -0.00000000000E+00 -0.87428303940E+03  0.87428303940E+03  0.00000000000E+00 0.  1.
         23    2    1    2    0    0 -0.27766405916E+03  0.13838060574E+04  0.23651337431E+04  0.27557358627E+04  0.90586906631E+02 0.  0.
         11    1    3    3    0    0 -0.25734797092E+03  0.12109148026E+04  0.20194995787E+04  0.23687383110E+04  0.00000000000E+00 0.  1.
        -11    1    3    3    0    0 -0.20316088241E+02  0.17289125474E+03  0.34563416443E+03  0.38699755171E+03  0.00000000000E+00 0. -1.
         22    1    1    2    0    0  0.27766405916E+03 -0.13838060574E+04  0.54475090632E+02  0.14124390499E+04  0.00000000000E+00 0.  1.
<mgrwt>
<rscale>  0 0.33939910E+04</rscale>
<asrwt>0</asrwt>
<pdfrwt beam="1">  1        1 0.50675259E+00 0.33939910E+04</pdfrwt>
<pdfrwt beam="2">  1       -1 0.13450508E+00 0.33939910E+04</pdfrwt>
<totfact> 0.13799923E-01</totfact>
</mgrwt>
</event>
<event>
 6    1  0.1028026E-006  0.3140337E+04  0.7818608E-02  0.8204754E-01
         -2   -1    0    0    0  501 -0.00000000000E+00  0.00000000000E+00  0.12050986536E+04  0.12050986536E+04  0.00000000000E+00 0.  1.
          2   -1    0    0  501    0  0.00000000000E+00 -0.00000000000E+00 -0.20458314317E+04  0.20458314317E+04  0.00000000000E+00 0. -1.
         23    2    1    2    0    0 -0.81346991072E+03 -0.49229078070E+03  0.87095342306E+03  0.12928817815E+04  0.94339427085E+02 0.  0.
         11    1    3    3    0    0 -0.59987316297E+03 -0.32852416326E+03  0.58272798652E+03  0.89852537180E+03  0.00000000000E+00 0.  1.
        -11    1    3    3    0    0 -0.21359674775E+03 -0.16376661744E+03  0.28822543655E+03  0.39435640975E+03  0.00000000000E+00 0. -1.
         22    1    1    2    0    0  0.81346991072E+03  0.49229078070E+03 -0.17116862012E+04  0.19580483037E+04  0.00000000000E+00 0. -1.
<mgrwt>
<rscale>  0 0.31403367E+04</rscale>
<asrwt>0</asrwt>
<pdfrwt beam="1">  1        2 0.31474330E+00 0.31403367E+04</pdfrwt>
<pdfrwt beam="2">  1       -2 0.18539979E+00 0.31403367E+04</pdfrwt>
<totfact> 0.88767523E-01</totfact>
</mgrwt>
</event>
<event>
 6    1  0.1028026E-006  0.1799190E+04  0.7818608E-02  0.8706730E-01
          2   -1    0    0  501    0  0.00000000000E+00  0.00000000000E+00  0.16675924075E+04  0.16675924075E+04  0.00000000000E+00 0. -1.
         -2   -1    0    0    0  501 -0.00000000000E+00 -0.00000000000E+00 -0.48529335452E+03  0.48529335452E+03  0.00000000000E+00 0.  1.
         23    2    1    2    0    0  0.81126817121E+03 -0.35389959438E+03  0.41599171099E+03  0.98214757143E+03  0.90353638118E+02 0.  0.
         11    1    3    3    0    0  0.11157688184E+03 -0.69439501800E+02  0.34026972925E+02  0.13575374712E+03  0.00000000000E+00 0.  1.
        -11    1    3    3    0    0  0.69969128937E+03 -0.28446009258E+03  0.38196473806E+03  0.84639382430E+03  0.00000000000E+00 0. -1.
         22    1    1    2    0    0 -0.81126817121E+03  0.35389959438E+03  0.76630734196E+03  0.11707381906E+04  0.00000000000E+00 0.  1.
<mgrwt>
<rscale>  0 0.17991904E+04</rscale>
<asrwt>0</asrwt>
<pdfrwt beam="1">  1        2 0.25655267E+00 0.17991904E+04</pdfrwt>
<pdfrwt beam="2">  1       -2 0.74660517E-01 0.17991904E+04</pdfrwt>
<totfact> 0.15566996E+01</totfact>
</mgrwt>
</event>
<event>
 6    1  0.1028026E-006  0.2329664E+04  0.7818608E-02  0.8466316E-01
          2   -1    0    0  501    0  0.00000000000E+00  0.00000000000E+00  0.15014569436E+04  0.15014569436E+04  0.00000000000E+00 0. -1.
         -2   -1    0    0    0  501 -0.00000000000E+00 -0.00000000000E+00 -0.90367790458E+03  0.90367790458E+03  0.00000000000E+00 0.  1.
         23    2    1    2    0    0 -0.52743603414E+03 -0.16563604472E+03  0.13556285330E+04  0.14670730565E+04  0.94607421177E+02 0.  0.
         11    1    3    3    0    0 -0.13577465884E+03 -0.19847207354E+01  0.30013591916E+03  0.32942414463E+03  0.00000000000E+00 0. -1.
        -11    1    3    3    0    0 -0.39166137530E+03 -0.16365132398E+03  0.10554926139E+04  0.11376489119E+04  0.00000000000E+00 0.  1.
         22    1    1    2    0    0  0.52743603414E+03  0.16563604472E+03 -0.75784949401E+03  0.93806179167E+03  0.00000000000E+00 0.  1.
<mgrwt>
<rscale>  0 0.23296639E+04</rscale>
<asrwt>0</asrwt>
<pdfrwt beam="1">  1        2 0.23099338E+00 0.23296639E+04</pdfrwt>
<pdfrwt beam="2">  1       -2 0.13902737E+00 0.23296639E+04</pdfrwt>
<totfact> 0.41915243E+00</totfact>
</mgrwt>
</event>
<event>
 6    1  0.1028026E-006  0.1463996E+04  0.7818608E-02  0.8908754E-01
          2   -1    0    0  501    0  0.00000000000E+00  0.00000000000E+00  0.11007089135E+04  0.11007089135E+04  0.00000000000E+00 0. -1.
         -2   -1    0    0    0  501 -0.00000000000E+00 -0.00000000000E+00 -0.48679666397E+03  0.48679666397E+03  0.00000000000E+00 0.  1.
         23    2    1    2    0    0 -0.35448918912E+03 -0.61227386089E+03  0.11822219812E+03  0.72364766496E+03  0.95643028713E+02 0.  0.
         11    1    3    3    0    0 -0.37509407351E+02 -0.79971720631E+02 -0.15929344782E+02  0.89756201823E+02  0.00000000000E+00 0. -1.
        -11    1    3    3    0    0 -0.31697978177E+03 -0.53230214026E+03  0.13415154291E+03  0.63389146314E+03  0.00000000000E+00 0.  1.
         22    1    1    2    0    0  0.35448918912E+03  0.61227386089E+03  0.49569005139E+03  0.86385791250E+03  0.00000000000E+00 0. -1.
<mgrwt>
<rscale>  0 0.14639965E+04</rscale>
<asrwt>0</asrwt>
<pdfrwt beam="1">  1        2 0.16933983E+00 0.14639965E+04</pdfrwt>
<pdfrwt beam="2">  1       -2 0.74891795E-01 0.14639965E+04</pdfrwt>
<totfact> 0.33782319E+01</totfact>
</mgrwt>
</event>
<event>
 6    1  0.1028026E-006  0.1256892E+04  0.7818608E-02  0.9064467E-01
         -1   -1    0    0    0  501 -0.00000000000E+00  0.00000000000E+00  0.36232266894E+03  0.36232266894E+03  0.00000000000E+00 0.  1.
          1   -1    0    0  501    0  0.00000000000E+00 -0.00000000000E+00 -0.10900341280E+04  0.10900341280E+04  0.00000000000E+00 0. -1.
         23    2    1    2    0    0 -0.24600978641E+03  0.52812475642E+03 -0.10164189835E+03  0.59713772081E+03  0.82497325754E+02 0.  0.
         13    1    3    3    0    0 -0.14339093787E+03  0.34760303350E+03 -0.28944395629E+02  0.37712943136E+03  0.00000000000E+00 0. -1.
        -13    1    3    3    0    0 -0.10261884854E+03  0.18052172291E+03 -0.72697502723E+02  0.22000828944E+03  0.00000000000E+00 0.  1.
         22    1    1    2    0    0  0.24600978641E+03 -0.52812475642E+03 -0.62606956072E+03  0.85521907615E+03  0.00000000000E+00 0. -1.
<mgrwt>
<rscale>  0 0.12568915E+04</rscale>
<asrwt>0</asrwt>
<pdfrwt beam="1">  1        1 0.16769756E+00 0.12568915E+04</pdfrwt>
<pdfrwt beam="2">  1       -1 0.55741949E-01 0.12568915E+04</pdfrwt>
<totfact> 0.41384760E+01</totfact>
</mgrwt>
</event>
<event>
 6    1  0.1028026E-006  0.1160331E+04  0.7818608E-02  0.9148306E-01
          1   -1    0    0  501    0  0.00000000000E+00  0.00000000000E+00  0.13350212685E+04  0.13350212685E+04  0.00000000000E+00 0. -1.
         -1   -1    0    0    0  501 -0.00000000000E+00 -0.00000000000E+00 -0.25212463888E+03  0.25212463888E+03  0.00000000000E+00 0.  1.
         23    2    1    2    0    0  0.32795111793E+03 -0.31014194237E+01 -0.10405673094E+03  0.35571591152E+03  0.90246617127E+02 0.  0.
         13    1    3    3    0    0  0.55286908347E+02 -0.97447333049E+01 -0.55005344535E+02  0.78595101560E+02  0.00000000000E+00 0. -1.
        -13    1    3    3    0    0  0.27266420958E+03  0.66433138811E+01 -0.49051386406E+02  0.27712080996E+03  0.00000000000E+00 0.  1.
         22    1    1    2    0    0 -0.32795111793E+03  0.31014194237E+01  0.11869533606E+04  0.12314299959E+04  0.00000000000E+00 0. -1.
<mgrwt>
<rscale>  0 0.11603306E+04</rscale>
<asrwt>0</asrwt>
<pdfrwt beam="1">  1        1 0.20538788E+00 0.11603306E+04</pdfrwt>
<pdfrwt beam="2">  1       -1 0.38788407E-01 0.11603306E+04</pdfrwt>
<totfact> 0.54583899E+01</totfact>
</mgrwt>
</event>
<event>
 6    1  0.1028026E-006  0.3516651E+04  0.7818608E-02  0.8109855E-01
         -1   -1    0    0    0  501 -0.00000000000E+00  0.00000000000E+00  0.34482170811E+04  0.34482170811E+04  0.00000000000E+00 0.  1.
          1   -1    0    0  501    0  0.00000000000E+00 -0.00000000000E+00 -0.89661091317E+03  0.89661091317E+03  0.00000000000E+00 0. -1.
         23    2    1    2    0    0  0.15919414609E+04  0.52262788833E+03  0.19308320616E+04  0.25579933585E+04  0.88317878702E+02 0.  0.
         13    1    3    3    0    0  0.85978373705E+03  0.31373981608E+03  0.11030288042E+04  0.14332945579E+04  0.00000000000E+00 0.  1.
        -13    1    3    3    0    0  0.73215772380E+03  0.20888807225E+03  0.82780325736E+03  0.11246988006E+04  0.00000000000E+00 0. -1.
         22    1    1    2    0    0 -0.15919414609E+04 -0.52262788833E+03  0.62077410633E+03  0.17868346358E+04  0.00000000000E+00 0. -1.
<mgrwt>
<rscale>  0 0.35166513E+04</rscale>
<asrwt>0</asrwt>
<pdfrwt beam="1">  1        1 0.13794014E+00 0.35166513E+04</pdfrwt>
<pdfrwt beam="2">  1       -1 0.53049493E+00 0.35166513E+04</pdfrwt>
<totfact> 0.14381517E-02</totfact>
</mgrwt>
</event>
<event>
 6    1  0.1028026E-006  0.1216568E+04  0.7818608E-02  0.9098477E-01
          1   -1    0    0  501    0  0.00000000000E+00  0.00000000000E+00  0.82636213688E+03  0.82636213688E+03  0.00000000000E+00 0. -1.
         -1   -1    0    0    0  501 -0.00000000000E+00 -0.00000000000E+00 -0.44775664514E+03  0.44775664514E+03  0.00000000000E+00 0.  1.
         23    2    1    2    0    0  0.56494612937E+03 -0.15165625229E+03  0.28666926210E+02  0.59248783524E+03  0.89756862109E+02 0.  0.
         13    1    3    3    0    0  0.18104368999E+03 -0.82832608623E+02 -0.16915751892E+02  0.19981041364E+03  0.00000000000E+00 0. -1.
        -13    1    3    3    0    0  0.38390243938E+03 -0.68823643671E+02  0.45582678102E+02  0.39267742160E+03  0.00000000000E+00 0.  1.
         22    1    1    2    0    0 -0.56494612937E+03  0.15165625229E+03  0.34993856553E+03  0.68163094678E+03  0.00000000000E+00 0. -1.
<mgrwt>
<rscale>  0 0.12165675E+04</rscale>
<asrwt>0</asrwt>
<pdfrwt beam="1">  1        1 0.12713264E+00 0.12165675E+04</pdfrwt>
<pdfrwt beam="2">  1       -1 0.68885638E-01 0.12165675E+04</pdfrwt>
<totfact> 0.44231842E+01</totfact>
</mgrwt>
</event>
<event>
 6    1  0.1028026E-006  0.1847677E+04  0.7818608E-02  0.8681349E-01
          2   -1    0    0  501    0  0.00000000000E+00  0.00000000000E+00  0.27446274757E+04  0.27446274757E+04  0.00000000000E+00 0. -1.
         -2   -1    0    0    0  501 -0.00000000000E+00 -0.00000000000E+00 -0.31096288063E+03  0.31096288063E+03  0.00000000000E+00 0.  1.
         23    2    1    2    0    0 -0.13711449324E+02  0.55798402351E+03  0.67404100638E+01  0.56531021665E+03  0.89420543469E+02 0.  0.
         13    1    3    3    0    0  0.32785724168E+02  0.35519718257E+03 -0.73677934795E+01  0.35678316467E+03  0.00000000000E+00 0.  1.
        -13    1    3    3    0    0 -0.46497173492E+02  0.20278684094E+03  0.14108203543E+02  0.20852705198E+03  0.00000000000E+00 0. -1.
         22    1    1    2    0    0  0.13711449324E+02 -0.55798402351E+03  0.24269241850E+04  0.24902801397E+04  0.00000000000E+00 0. -1.
<mgrwt>
<rscale>  0 0.18476767E+04</rscale>
<asrwt>0</asrwt>
<pdfrwt beam="1">  1        2 0.42225037E+00 0.18476767E+04</pdfrwt>
<pdfrwt beam="2">  1       -2 0.47840445E-01 0.18476767E+04</pdfrwt>
<totfact> 0.97423322E+00</totfact>
</mgrwt>
</event>
<event>
 6    1  0.1028026E-006  0.2272645E+04  0.7818608E-02  0.8488786E-01
          2   -1    0    0  501    0  0.00000000000E+00  0.00000000000E+00  0.16822394132E+04  0.16822394132E+04  0.00000000000E+00 0. -1.
         -2   -1    0    0    0  501 -0.00000000000E+00 -0.00000000000E+00 -0.76756534253E+03  0.76756534253E+03  0.00000000000E+00 0.  1.
         23    2    1    2    0    0  0.34965437700E+03  0.10126598480E+04  0.86053977832E+03  0.13771125012E+04  0.90399003206E+02 0.  0.
         11    1    3    3    0    0  0.50738541889E+02  0.15153125770E+03  0.89142105777E+02  0.18298206665E+03  0.00000000000E+00 0. -1.
        -11    1    3    3    0    0  0.29891583511E+03  0.86112859034E+03  0.77139767255E+03  0.11941304346E+04  0.00000000000E+00 0.  1.
         22    1    1    2    0    0 -0.34965437700E+03 -0.10126598480E+04  0.54134292315E+02  0.10726922545E+04  0.00000000000E+00 0.  1.
<mgrwt>
<rscale>  0 0.22726449E+04</rscale>
<asrwt>0</asrwt>
<pdfrwt beam="1">  1        2 0.25880606E+00 0.22726449E+04</pdfrwt>
<pdfrwt beam="2">  1       -2 0.11808698E+00 0.22726449E+04</pdfrwt>
<totfact> 0.50381196E+00</totfact>
</mgrwt>
</event>
<event>
 6    1  0.1028026E-006  0.4226316E+04  0.7818608E-02  0.7960385E-01
         -2   -1    0    0    0  501 -0.00000000000E+00  0.00000000000E+00  0.10705866711E+04  0.10705866711E+04  0.00000000000E+00 0.  1.
          2   -1    0    0  501    0  0.00000000000E+00 -0.00000000000E+00 -0.41710176228E+04  0.41710176228E+04  0.00000000000E+00 0. -1.
         23    2    1    2    0    0  0.14468109253E+04 -0.13766527430E+04 -0.24037702211E+04  0.31264752666E+04  0.91113602290E+02 0.  0.
         13    1    3    3    0    0  0.38631013120E+03 -0.40235313597E+03 -0.72212201547E+03  0.91246028337E+03  0.00000000000E+00 0. -1.
        -13    1    3    3    0    0  0.10605007941E+04 -0.97429960700E+03 -0.16816482056E+04  0.22140149832E+04  0.00000000000E+00 0.  1.
         22    1    1    2    0    0 -0.14468109253E+04  0.13766527430E+04 -0.69666073064E+03  0.21151290273E+04  0.00000000000E+00 0.  1.
<mgrwt>
<rscale>  0 0.42263156E+04</rscale>
<asrwt>0</asrwt>
<pdfrwt beam="1">  1        2 0.64169500E+00 0.42263156E+04</pdfrwt>
<pdfrwt beam="2">  1       -2 0.16470565E+00 0.42263156E+04</pdfrwt>
<totfact> 0.44171917E-02</totfact>
</mgrwt>
</event>
<event>
 6    1  0.1028026E-006  0.1613617E+04  0.7818608E-02  0.8812226E-01
         -2   -1    0    0    0  501 -0.00000000000E+00  0.00000000000E+00  0.14032692327E+04  0.14032692327E+04  0.00000000000E+00 0.  1.
          2   -1    0    0  501    0  0.00000000000E+00 -0.00000000000E+00 -0.46387397247E+03  0.46387397247E+03  0.00000000000E+00 0. -1.
         23    2    1    2    0    0 -0.47045096818E+02 -0.70871635460E+03  0.34327429982E+02  0.71664770767E+03  0.88957585682E+02 0.  0.
         11    1    3    3    0    0 -0.34634501748E+02 -0.30607646079E+03  0.56661996309E+02  0.31319790929E+03  0.00000000000E+00 0. -1.
        -11    1    3    3    0    0 -0.12410595070E+02 -0.40263989382E+03 -0.22334566328E+02  0.40344979838E+03  0.00000000000E+00 0.  1.
         22    1    1    2    0    0  0.47045096818E+02  0.70871635460E+03  0.90506783026E+03  0.11504954975E+04  0.00000000000E+00 0.  1.
<mgrwt>
<rscale>  0 0.16136171E+04</rscale>
<asrwt>0</asrwt>
<pdfrwt beam="1">  1        2 0.71365227E-01 0.16136171E+04</pdfrwt>
<pdfrwt beam="2">  1       -2 0.21588757E+00 0.16136171E+04</pdfrwt>
<totfact> 0.67486305E+00</totfact>
</mgrwt>
</event>
<event>
 6    1  0.1028026E-006  0.2461193E+04  0.7818608E-02  0.8416943E-01
          1   -1    0    0  501    0  0.00000000000E+00  0.00000000000E+00  0.13734227341E+04  0.13734227341E+04  0.00000000000E+00 0. -1.
         -1   -1    0    0    0  501 -0.00000000000E+00 -0.00000000000E+00 -0.11026230340E+04  0.11026230340E+04  0.00000000000E+00 0.  1.
         23    2    1    2    0    0 -0.10166746477E+04 -0.53486606055E+03  0.57455092470E+03  0.12877807100E+04  0.92527563447E+02 0.  0.
         11    1    3    3    0    0 -0.65067388731E+03 -0.29312092135E+03  0.36816774334E+03  0.80302171166E+03  0.00000000000E+00 0. -1.
        -11    1    3    3    0    0 -0.36600076036E+03 -0.24174513920E+03  0.20638318135E+03  0.48475899833E+03  0.00000000000E+00 0.  1.
         22    1    1    2    0    0  0.10166746477E+04  0.53486606055E+03 -0.30375122466E+03  0.11882650582E+04  0.00000000000E+00 0.  1.
<mgrwt>
<rscale>  0 0.24611928E+04</rscale>
<asrwt>0</asrwt>
<pdfrwt beam="1">  1        1 0.21129581E+00 0.24611928E+04</pdfrwt>
<pdfrwt beam="2">  1       -1 0.16963431E+00 0.24611928E+04</pdfrwt>
<totfact> 0.17704654E+00</totfact>
</mgrwt>
</event>
<event>
 6    1  0.1028026E-006  0.2655449E+04  0.7818608E-02  0.8349607E-01
         -1   -1    0    0    0  501 -0.00000000000E+00  0.00000000000E+00  0.72701498842E+03  0.72701498842E+03  0.00000000000E+00 0.  1.
          1   -1    0    0  501    0  0.00000000000E+00 -0.00000000000E+00 -0.24247807273E+04  0.24247807273E+04  0.00000000000E+00 0. -1.
         23    2    1    2    0    0 -0.11997438472E+04 -0.16155477347E+03 -0.20723663792E+03  0.12315972248E+04  0.91648547921E+02 0.  0.
         13    1    3    3    0    0 -0.70219193445E+03 -0.11981023827E+03 -0.83690565051E+02  0.71723923253E+03  0.00000000000E+00 0.  1.
        -13    1    3    3    0    0 -0.49755191275E+03 -0.41744535196E+02 -0.12354607287E+03  0.51435799228E+03  0.00000000000E+00 0. -1.
         22    1    1    2    0    0  0.11997438472E+04  0.16155477347E+03 -0.14905291010E+04  0.19201984909E+04  0.00000000000E+00 0. -1.
<mgrwt>
<rscale>  0 0.26554487E+04</rscale>
<asrwt>0</asrwt>
<pdfrwt beam="1">  1        1 0.37304319E+00 0.26554487E+04</pdfrwt>
<pdfrwt beam="2">  1       -1 0.11184846E+00 0.26554487E+04</pdfrwt>
<totfact> 0.98168382E-01</totfact>
</mgrwt>
</event>
<event>
 6    1  0.1028026E-006  0.2210474E+04  0.7818608E-02  0.8514081E-01
          1   -1    0    0  501    0  0.00000000000E+00  0.00000000000E+00  0.11883748089E+04  0.11883748089E+04  0.00000000000E+00 0. -1.
         -1   -1    0    0    0  501 -0.00000000000E+00 -0.00000000000E+00 -0.10279150400E+04  0.10279150400E+04  0.00000000000E+00 0.  1.
         23    2    1    2    0    0  0.77701230448E+03  0.77698595739E+03  0.18185446907E+03  0.11172388799E+04  0.87728943946E+02 0.  0.
         11    1    3    3    0    0  0.56075243264E+03  0.53333258417E+03  0.92249489542E+02  0.77935672472E+03  0.00000000000E+00 0. -1.
        -11    1    3    3    0    0  0.21625987184E+03  0.24365337322E+03  0.89604979528E+02  0.33788215520E+03  0.00000000000E+00 0.  1.
         22    1    1    2    0    0 -0.77701230448E+03 -0.77698595739E+03 -0.21394700114E+02  0.10990509690E+04  0.00000000000E+00 0.  1.
<mgrwt>
<rscale>  0 0.22104736E+04</rscale>
<asrwt>0</asrwt>
<pdfrwt beam="1">  1        1 0.18282689E+00 0.22104736E+04</pdfrwt>
<pdfrwt beam="2">  1       -1 0.15814078E+00 0.22104736E+04</pdfrwt>
<totfact> 0.29971608E+00</totfact>
</mgrwt>
</event>
<event>
 6    1  0.1028026E-006  0.6896174E+03  0.7818608E-02  0.9735154E-01
          1   -1    0    0  501    0  0.00000000000E+00  0.00000000000E+00  0.69559308635E+03  0.69559308635E+03  0.00000000000E+00 0. -1.
         -1   -1    0    0    0  501 -0.00000000000E+00 -0.00000000000E+00 -0.17092324147E+03  0.17092324147E+03  0.00000000000E+00 0.  1.
         23    2    1    2    0    0  0.68906761318E+02  0.10286393950E+03 -0.12985341220E+03  0.20038584070E+03  0.89238134721E+02 0.  0.
         13    1    3    3    0    0  0.47721769737E+02  0.10641448147E+03 -0.68210827380E+02  0.13510783154E+03  0.00000000000E+00 0. -1.
        -13    1    3    3    0    0  0.21184991582E+02 -0.35505419615E+01 -0.61642584822E+02  0.65278009161E+02  0.00000000000E+00 0.  1.
         22    1    1    2    0    0 -0.68906761318E+02 -0.10286393950E+03  0.65452325708E+03  0.66613048711E+03  0.00000000000E+00 0. -1.
<mgrwt>
<rscale>  0 0.68961736E+03</rscale>
<asrwt>0</asrwt>
<pdfrwt beam="1">  1        1 0.10701432E+00 0.68961736E+03</pdfrwt>
<pdfrwt beam="2">  1       -1 0.26295884E-01 0.68961736E+03</pdfrwt>
<totfact> 0.35708412E+02</totfact>
</mgrwt>
</event>
<event>
 6    1  0.1028026E-006  0.6423691E+03  0.7818608E-02  0.9821204E-01
         -3   -1    0    0    0  501 -0.00000000000E+00  0.00000000000E+00  0.14442624413E+03  0.14442624413E+03  0.00000000000E+00 0.  1.
          3   -1    0    0  501    0  0.00000000000E+00 -0.00000000000E+00 -0.71427126502E+03  0.71427126502E+03  0.00000000000E+00 0. -1.
         23    2    1    2    0    0 -0.19249764538E+03 -0.54463777779E+02 -0.61575049984E+03  0.65344410586E+03  0.88424402007E+02 0.  0.
         11    1    3    3    0    0 -0.72220885387E+02 -0.19210565646E+02 -0.37117262484E+03  0.37862120854E+03  0.00000000000E+00 0.  1.
        -11    1    3    3    0    0 -0.12027675999E+03 -0.35253212132E+02 -0.24457787499E+03  0.27482289732E+03  0.00000000000E+00 0. -1.
         22    1    1    2    0    0  0.19249764538E+03  0.54463777779E+02  0.45905478946E+02  0.20525340329E+03  0.00000000000E+00 0.  1.
<mgrwt>
<rscale>  0 0.64236910E+03</rscale>
<asrwt>0</asrwt>
<pdfrwt beam="1">  1        3 0.10988789E+00 0.64236910E+03</pdfrwt>
<pdfrwt beam="2">  1       -3 0.22219422E-01 0.64236910E+03</pdfrwt>
<totfact> 0.34992226E+01</totfact>
</mgrwt>
</event>
<event>
 6    1  0.1028026E-006  0.3008976E+04  0.7818608E-02  0.8241172E-01
         -2   -1    0    0    0  501 -0.00000000000E+00  0.00000000000E+00  0.23964634702E+04  0.23964634702E+04  0.00000000000E+00 0.  1.
          2   -1    0    0  501    0  0.00000000000E+00 -0.00000000000E+00 -0.94450999144E+03  0.94450999144E+03  0.00000000000E+00 0. -1.
         23    2    1    2    0    0 -0.11185757481E+04 -0.30789878491E+02  0.18409117377E+04  0.21563012505E+04  0.92300250173E+02 0.  0.
         11    1    3    3    0    0 -0.51441312479E+03  0.29776098921E+02  0.81889397758E+03  0.96751993548E+03  0.00000000000E+00 0. -1.
        -11    1    3    3    0    0 -0.60416262326E+03 -0.60565977412E+02  0.10220177601E+04  0.11887813150E+04  0.00000000000E+00 0.  1.
         22    1    1    2    0    0  0.11185757481E+04  0.30789878491E+02 -0.38895825891E+03  0.11846722112E+04  0.00000000000E+00 0. -1.
<mgrwt>
<rscale>  0 0.30089757E+04</rscale>
<asrwt>0</asrwt>
<pdfrwt beam="1">  1        2 0.14530923E+00 0.30089757E+04</pdfrwt>
<pdfrwt beam="2">  1       -2 0.36868669E+00 0.30089757E+04</pdfrwt>
<totfact> 0.27708870E-01</totfact>
</mgrwt>
</event>
<event>
 6    1  0.1028026E-006  0.2927983E+04  0.7818608E-02  0.8264600E-01
         -1   -1    0    0    0  501 -0.00000000000E+00  0.00000000000E+00  0.14013193397E+04  0.14013193397E+04  0.00000000000E+00 0.  1.
          1   -1    0    0  501    0  0.00000000000E+00 -0.00000000000E+00 -0.15294668692E+04  0.15294668692E+04  0.00000000000E+00 0. -1.
         23    2    1    2    0    0  0.93523614661E+03  0.43361432073E+03 -0.11022968612E+04  0.15124579854E+04  0.98907827868E+02 0.  0.
         11    1    3    3    0    0  0.27116646799E+03  0.92414383776E+02 -0.25960098888E+03  0.38660618867E+03  0.00000000000E+00 0. -1.
        -11    1    3    3    0    0  0.66406967861E+03  0.34119993695E+03 -0.84269587235E+03  0.11258517968E+04  0.00000000000E+00 0.  1.
         22    1    1    2    0    0 -0.93523614661E+03 -0.43361432073E+03  0.97414933173E+03  0.14183282235E+04  0.00000000000E+00 0.  1.
<mgrwt>
<rscale>  0 0.29279833E+04</rscale>
<asrwt>0</asrwt>
<pdfrwt beam="1">  1        1 0.23530260E+00 0.29279833E+04</pdfrwt>
<pdfrwt beam="2">  1       -1 0.21558759E+00 0.29279833E+04</pdfrwt>
<totfact> 0.62977904E-01</totfact>
</mgrwt>
</event>
<event>
 6    1  0.3110681E-006  0.3205936E+04  0.7818608E-02  0.8187251E-01
         -1   -1    0    0    0  501 -0.00000000000E+00  0.00000000000E+00  0.14616637798E+04  0.14616637798E+04  0.00000000000E+00 0.  1.
          1   -1    0    0  501    0  0.00000000000E+00 -0.00000000000E+00 -0.17579326615E+04  0.17579326615E+04  0.00000000000E+00 0. -1.
         23    2    1    2    0    0  0.11279809847E+04  0.11329871582E+04 -0.24542249278E+03  0.16200382656E+04  0.91053717569E+02 0.  0.
         13    1    3    3    0    0  0.59989387995E+03  0.54710351742E+03 -0.14802790469E+03  0.82529218253E+03  0.00000000000E+00 0.  1.
        -13    1    3    3    0    0  0.52808710476E+03  0.58588364074E+03 -0.97394588092E+02  0.79474608303E+03  0.00000000000E+00 0. -1.
         22    1    1    2    0    0 -0.11279809847E+04 -0.11329871582E+04 -0.50846388883E+02  0.15995581758E+04  0.00000000000E+00 0. -1.
<mgrwt>
<rscale>  0 0.32059361E+04</rscale>
<asrwt>0</asrwt>
<pdfrwt beam="1">  1        1 0.27045118E+00 0.32059361E+04</pdfrwt>
<pdfrwt beam="2">  1       -1 0.22487135E+00 0.32059361E+04</pdfrwt>
<totfact> 0.37156469E-01</totfact>
</mgrwt>
</event>
<event>
 6    1  0.1028026E-006  0.3399727E+04  0.7818608E-02  0.8137973E-01
         -1   -1    0    0    0  501 -0.00000000000E+00  0.00000000000E+00  0.72990444348E+03  0.72990444348E+03  0.00000000000E+00 0.  1.
          1   -1    0    0  501    0  0.00000000000E+00 -0.00000000000E+00 -0.39587859818E+04  0.39587859818E+04  0.00000000000E+00 0. -1.
         23    2    1    2    0    0 -0.58768115024E+03 -0.34085331864E+01 -0.38135338016E+04  0.38597157444E+04  0.94788288169E+02 0.  0.
         11    1    3    3    0    0 -0.46804785955E+03  0.40092619818E+01 -0.27629648041E+04  0.28023310621E+04  0.00000000000E+00 0. -1.
        -11    1    3    3    0    0 -0.11963329069E+03 -0.74177951683E+01 -0.10505689975E+04  0.10573846824E+04  0.00000000000E+00 0.  1.
         22    1    1    2    0    0  0.58768115024E+03  0.34085331864E+01  0.58465226330E+03  0.82897468081E+03  0.00000000000E+00 0.  1.
<mgrwt>
<rscale>  0 0.33997267E+04</rscale>
<asrwt>0</asrwt>
<pdfrwt beam="1">  1        1 0.60904400E+00 0.33997267E+04</pdfrwt>
<pdfrwt beam="2">  1       -1 0.11229299E+00 0.33997267E+04</pdfrwt>
<totfact> 0.62200323E-02</totfact>
</mgrwt>
</event>
<event>
 6    1  0.1028026E-006  0.5744644E+04  0.7818608E-02  0.7722895E-01
         -1   -1    0    0    0  501 -0.00000000000E+00  0.00000000000E+00  0.46047299313E+04  0.46047299313E+04  0.00000000000E+00 0.  1.
          1   -1    0    0  501    0  0.00000000000E+00 -0.00000000000E+00 -0.17916869865E+04  0.17916869865E+04  0.00000000000E+00 0. -1.
         23    2    1    2    0    0  0.11545784724E+04  0.23709373672E+04  0.26722936851E+04  0.37555447507E+04  0.92560179012E+02 0.  0.
         13    1    3    3    0    0  0.47867024030E+03  0.10740807976E+04  0.11584879464E+04  0.16507177471E+04  0.00000000000E+00 0. -1.
        -13    1    3    3    0    0  0.67590823213E+03  0.12968565697E+04  0.15138057387E+04  0.21048270036E+04  0.00000000000E+00 0.  1.
         22    1    1    2    0    0 -0.11545784724E+04 -0.23709373672E+04  0.14074925966E+03  0.26408721670E+04  0.00000000000E+00 0. -1.
<mgrwt>
<rscale>  0 0.57446444E+04</rscale>
<asrwt>0</asrwt>
<pdfrwt beam="1">  1        1 0.27564415E+00 0.57446444E+04</pdfrwt>
<pdfrwt beam="2">  1       -1 0.70841999E+00 0.57446444E+04</pdfrwt>
<totfact> 0.53345684E-04</totfact>
</mgrwt>
</event>
<event>
 6    1  0.1028026E-006  0.3004271E+04  0.7818608E-02  0.8242512E-01
          2   -1    0    0  501    0  0.00000000000E+00  0.00000000000E+00  0.19480066843E+04  0.19480066843E+04  0.00000000000E+00 0. -1.
         -2   -1    0    0    0  501 -0.00000000000E+00 -0.00000000000E+00 -0.11583176816E+04  0.11583176816E+04  0.00000000000E+00 0.  1.
         23    2    1    2    0    0 -0.68437923223E+03  0.72072624072E+03  0.15578340781E+04  0.18501921656E+04  0.92427199523E+02 0.  0.
         13    1    3    3    0    0 -0.44904656843E+03  0.41476033152E+03  0.99271050409E+03  0.11658229274E+04  0.00000000000E+00 0. -1.
        -13    1    3    3    0    0 -0.23533266380E+03  0.30596590920E+03  0.56512357404E+03  0.68436923819E+03  0.00000000000E+00 0.  1.
         22    1    1    2    0    0  0.68437923223E+03 -0.72072624072E+03 -0.76814507542E+03  0.12561322002E+04  0.00000000000E+00 0.  1.
<mgrwt>
<rscale>  0 0.30042707E+04</rscale>
<asrwt>0</asrwt>
<pdfrwt beam="1">  1        2 0.29969334E+00 0.30042707E+04</pdfrwt>
<pdfrwt beam="2">  1       -2 0.17820272E+00 0.30042707E+04</pdfrwt>
<totfact> 0.11404434E+00</totfact>
</mgrwt>
</event>
<event>
 6    1  0.1028026E-006  0.3038951E+04  0.7818608E-02  0.8232695E-01
          1   -1    0    0  501    0  0.00000000000E+00  0.00000000000E+00  0.19106202460E+04  0.19106202460E+04  0.00000000000E+00 0. -1.
         -1   -1    0    0    0  501 -0.00000000000E+00 -0.00000000000E+00 -0.12084066064E+04  0.12084066064E+04  0.00000000000E+00 0.  1.
         23    2    1    2    0    0  0.12876470588E+04 -0.43093593083E+03 -0.34546096842E+03  0.14039866753E+04  0.89969879043E+02 0.  0.
         11    1    3    3    0    0  0.19439196208E+03 -0.32045130173E+02 -0.54395331125E+02  0.20438683259E+03  0.00000000000E+00 0. -1.
        -11    1    3    3    0    0  0.10932550968E+04 -0.39889080066E+03 -0.29106563730E+03  0.11995998427E+04  0.00000000000E+00 0.  1.
         22    1    1    2    0    0 -0.12876470588E+04  0.43093593083E+03  0.10476746080E+04  0.17150401770E+04  0.00000000000E+00 0. -1.
<mgrwt>
<rscale>  0 0.30389512E+04</rscale>
<asrwt>0</asrwt>
<pdfrwt beam="1">  1        1 0.29394158E+00 0.30389512E+04</pdfrwt>
<pdfrwt beam="2">  1       -1 0.18590871E+00 0.30389512E+04</pdfrwt>
<totfact> 0.54893127E-01</totfact>
</mgrwt>
</event>
<event>
 6    1  0.1028026E-006  0.1045560E+04  0.7818608E-02  0.9259940E-01
         -1   -1    0    0    0  501 -0.00000000000E+00  0.00000000000E+00  0.28875678655E+03  0.28875678655E+03  0.00000000000E+00 0.  1.
          1   -1    0    0  501    0  0.00000000000E+00 -0.00000000000E+00 -0.94646694760E+03  0.94646694760E+03  0.00000000000E+00 0. -1.
         23    2    1    2    0    0  0.36177980595E+03 -0.15989737300E+03  0.66389549792E+02  0.41013453344E+03  0.85737770617E+02 0.  0.
         11    1    3    3    0    0  0.22997519532E+03 -0.55529445939E+02  0.36853803110E+02  0.23943749212E+03  0.00000000000E+00 0. -1.
        -11    1    3    3    0    0  0.13180461063E+03 -0.10436792706E+03  0.29535746682E+02  0.17069704132E+03  0.00000000000E+00 0.  1.
         22    1    1    2    0    0 -0.36177980595E+03  0.15989737300E+03 -0.72409971084E+03  0.82508920071E+03  0.00000000000E+00 0. -1.
<mgrwt>
<rscale>  0 0.10455597E+04</rscale>
<asrwt>0</asrwt>
<pdfrwt beam="1">  1        1 0.14561030E+00 0.10455597E+04</pdfrwt>
<pdfrwt beam="2">  1       -1 0.44424121E-01 0.10455597E+04</pdfrwt>
<totfact> 0.83631951E+01</totfact>
</mgrwt>
</event>
<event>
 6    1  0.1028026E-006  0.1946250E+04  0.7818608E-02  0.8632171E-01
          1   -1    0    0  501    0  0.00000000000E+00  0.00000000000E+00  0.13038204671E+04  0.13038204671E+04  0.00000000000E+00 0. -1.
         -1   -1    0    0    0  501 -0.00000000000E+00 -0.00000000000E+00 -0.72630561647E+03  0.72630561647E+03  0.00000000000E+00 0.  1.
         23    2    1    2    0    0  0.89293710565E+03  0.17027379132E+03  0.64535805905E+03  0.11185710718E+04  0.91566258028E+02 0.  0.
         13    1    3    3    0    0  0.42693989924E+03  0.92255657440E+02  0.25566285465E+03  0.50611488729E+03  0.00000000000E+00 0. -1.
        -13    1    3    3    0    0  0.46599720641E+03  0.78018133879E+02  0.38969520440E+03  0.61245618450E+03  0.00000000000E+00 0.  1.
         22    1    1    2    0    0 -0.89293710565E+03 -0.17027379132E+03 -0.67843208374E+02  0.91155501182E+03  0.00000000000E+00 0.  1.
<mgrwt>
<rscale>  0 0.19462499E+04</rscale>
<asrwt>0</asrwt>
<pdfrwt beam="1">  1        1 0.20058776E+00 0.19462499E+04</pdfrwt>
<pdfrwt beam="2">  1       -1 0.11173933E+00 0.19462499E+04</pdfrwt>
<totfact> 0.61597966E+00</totfact>
</mgrwt>
</event>
<event>
 6    1  0.1240903E-006  0.2542912E+04  0.7818608E-02  0.8387855E-01
         -2   -1    0    0    0  501 -0.00000000000E+00  0.00000000000E+00  0.13607020414E+04  0.13607020414E+04  0.00000000000E+00 0.  1.
          2   -1    0    0  501    0  0.00000000000E+00 -0.00000000000E+00 -0.11880634480E+04  0.11880634480E+04  0.00000000000E+00 0. -1.
         23    2    1    2    0    0 -0.19936094185E+03 -0.96581496865E+03 -0.71536158834E+03  0.12217057087E+04  0.90990646211E+02 0.  0.
         13    1    3    3    0    0 -0.10617042161E+03 -0.69547615141E+03 -0.48499972756E+03  0.85450802883E+03  0.00000000000E+00 0. -1.
        -13    1    3    3    0    0 -0.93190520239E+02 -0.27033881723E+03 -0.23036186078E+03  0.36719767982E+03  0.00000000000E+00 0.  1.
         22    1    1    2    0    0  0.19936094185E+03  0.96581496865E+03  0.88800018171E+03  0.13270597807E+04  0.00000000000E+00 0. -1.
<mgrwt>
<rscale>  0 0.25429120E+04</rscale>
<asrwt>0</asrwt>
<pdfrwt beam="1">  1        2 0.18277899E+00 0.25429120E+04</pdfrwt>
<pdfrwt beam="2">  1       -2 0.20933878E+00 0.25429120E+04</pdfrwt>
<totfact> 0.19788311E+00</totfact>
</mgrwt>
</event>
<event>
 6    1  0.1028026E-006  0.1464418E+04  0.7818608E-02  0.8908466E-01
         -2   -1    0    0    0  501 -0.00000000000E+00  0.00000000000E+00  0.35726429961E+03  0.35726429961E+03  0.00000000000E+00 0.  1.
          2   -1    0    0  501    0  0.00000000000E+00 -0.00000000000E+00 -0.15006531685E+04  0.15006531685E+04  0.00000000000E+00 0. -1.
         23    2    1    2    0    0  0.28483262361E+02  0.24917711939E+03  0.29502575328E+03  0.39780200750E+03  0.91135662699E+02 0.  0.
         13    1    3    3    0    0  0.58637705790E+02  0.20007983565E+03  0.21854984298E+03  0.30205025251E+03  0.00000000000E+00 0. -1.
        -13    1    3    3    0    0 -0.30154443429E+02  0.49097283743E+02  0.76475910293E+02  0.95751754994E+02  0.00000000000E+00 0.  1.
         22    1    1    2    0    0 -0.28483262361E+02 -0.24917711939E+03 -0.14384146221E+04  0.14601154606E+04  0.00000000000E+00 0. -1.
<mgrwt>
<rscale>  0 0.14644177E+04</rscale>
<asrwt>0</asrwt>
<pdfrwt beam="1">  1        2 0.23086972E+00 0.14644177E+04</pdfrwt>
<pdfrwt beam="2">  1       -2 0.54963738E-01 0.14644177E+04</pdfrwt>
<totfact> 0.38244936E+01</totfact>
</mgrwt>
</event>
<event>
 6    1  0.1028026E-006  0.1206669E+04  0.7818608E-02  0.9107039E-01
          2   -1    0    0  501    0  0.00000000000E+00  0.00000000000E+00  0.18307736908E+04  0.18307736908E+04  0.00000000000E+00 0. -1.
         -2   -1    0    0    0  501 -0.00000000000E+00 -0.00000000000E+00 -0.19882981262E+03  0.19882981262E+03  0.00000000000E+00 0.  1.
         23    2    1    2    0    0  0.36757759149E+03 -0.97222459974E+02  0.40159878087E+02  0.39303948223E+03  0.91113809593E+02 0.  0.
         13    1    3    3    0    0  0.67137775368E+02  0.13337568902E+02  0.23855803387E+02  0.72487729864E+02  0.00000000000E+00 0.  1.
        -13    1    3    3    0    0  0.30043981612E+03 -0.11056002888E+03  0.16304074700E+02  0.32055175237E+03  0.00000000000E+00 0. -1.
         22    1    1    2    0    0 -0.36757759149E+03  0.97222459974E+02  0.15917840001E+04  0.16365640212E+04  0.00000000000E+00 0. -1.
<mgrwt>
<rscale>  0 0.12066688E+04</rscale>
<asrwt>0</asrwt>
<pdfrwt beam="1">  1        2 0.28165748E+00 0.12066688E+04</pdfrwt>
<pdfrwt beam="2">  1       -2 0.30589203E-01 0.12066688E+04</pdfrwt>
<totfact> 0.80936729E+01</totfact>
</mgrwt>
</event>
<event>
 6    1  0.1028026E-006  0.1682499E+04  0.7818608E-02  0.8771409E-01
          1   -1    0    0  501    0  0.00000000000E+00  0.00000000000E+00  0.36862517993E+04  0.36862517993E+04  0.00000000000E+00 0. -1.
         -1   -1    0    0    0  501 -0.00000000000E+00 -0.00000000000E+00 -0.19198373781E+03  0.19198373781E+03  0.00000000000E+00 0.  1.
         23    2    1    2    0    0 -0.28146813847E+02 -0.77169332148E+03  0.25068221999E+04  0.26246996760E+04  0.92671579634E+02 0.  0.
         13    1    3    3    0    0 -0.38080342199E+02 -0.30769649075E+03  0.11299069661E+04  0.11716727337E+04  0.00000000000E+00 0. -1.
        -13    1    3    3    0    0  0.99335283511E+01 -0.46399683073E+03  0.13769152339E+04  0.14530269423E+04  0.00000000000E+00 0.  1.
         22    1    1    2    0    0  0.28146813847E+02  0.77169332148E+03  0.98744586159E+03  0.12535358611E+04  0.00000000000E+00 0.  1.
<mgrwt>
<rscale>  0 0.16824986E+04</rscale>
<asrwt>0</asrwt>
<pdfrwt beam="1">  1        1 0.56711561E+00 0.16824986E+04</pdfrwt>
<pdfrwt beam="2">  1       -1 0.29535962E-01 0.16824986E+04</pdfrwt>
<totfact> 0.17879073E+00</totfact>
</mgrwt>
</event>
<event>
 6    1  0.1028026E-006  0.2870611E+04  0.7818608E-02  0.8281676E-01
          1   -1    0    0  501    0  0.00000000000E+00  0.00000000000E+00  0.23171757011E+04  0.23171757011E+04  0.00000000000E+00 0. -1.
         -1   -1    0    0    0  501 -0.00000000000E+00 -0.00000000000E+00 -0.88905727484E+03  0.88905727484E+03  0.00000000000E+00 0.  1.
         23    2    1    2    0    0  0.65177440247E+03  0.21646610408E+03 -0.69099503828E+03  0.97860883315E+03  0.92377808279E+02 0.  0.
         11    1    3    3    0    0  0.11204860533E+03  0.20300439850E+01 -0.11896140798E+03  0.16343447501E+03  0.00000000000E+00 0. -1.
        -11    1    3    3    0    0  0.53972579715E+03  0.21443606009E+03 -0.57203363030E+03  0.81517435814E+03  0.00000000000E+00 0.  1.
         22    1    1    2    0    0 -0.65177440247E+03 -0.21646610408E+03  0.21191134646E+04  0.22276241428E+04  0.00000000000E+00 0. -1.
<mgrwt>
<rscale>  0 0.28706110E+04</rscale>
<asrwt>0</asrwt>
<pdfrwt beam="1">  1        1 0.35648857E+00 0.28706110E+04</pdfrwt>
<pdfrwt beam="2">  1       -1 0.13677804E+00 0.28706110E+04</pdfrwt>
<totfact> 0.69401883E-01</totfact>
</mgrwt>
</event>
<event>
 6    1  0.1028026E-006  0.1011028E+04  0.7818608E-02  0.9296531E-01
          1   -1    0    0  501    0  0.00000000000E+00  0.00000000000E+00  0.21045392298E+03  0.21045392298E+03  0.00000000000E+00 0. -1.
         -1   -1    0    0    0  501 -0.00000000000E+00 -0.00000000000E+00 -0.12142535710E+04  0.12142535710E+04  0.00000000000E+00 0.  1.
         23    2    1    2    0    0  0.12537347630E+03 -0.46960286612E+03 -0.67963472791E+03  0.84047444470E+03  0.90821629519E+02 0.  0.
         13    1    3    3    0    0  0.76499797554E+02 -0.37731570925E+03 -0.48138182311E+03  0.61639907779E+03  0.00000000000E+00 0. -1.
        -13    1    3    3    0    0  0.48873678745E+02 -0.92287156865E+02 -0.19825290480E+03  0.22407536692E+03  0.00000000000E+00 0.  1.
         22    1    1    2    0    0 -0.12537347630E+03  0.46960286612E+03 -0.32416492006E+03  0.58423304924E+03  0.00000000000E+00 0. -1.
<mgrwt>
<rscale>  0 0.10110280E+04</rscale>
<asrwt>0</asrwt>
<pdfrwt beam="1">  1        1 0.32377528E-01 0.10110280E+04</pdfrwt>
<pdfrwt beam="2">  1       -1 0.18680823E+00 0.10110280E+04</pdfrwt>
<totfact> 0.25985847E+01</totfact>
</mgrwt>
</event>
<event>
 6    1  0.1028026E-006  0.2307395E+04  0.7818608E-02  0.8475011E-01
          1   -1    0    0  501    0  0.00000000000E+00  0.00000000000E+00  0.13853771233E+04  0.13853771233E+04  0.00000000000E+00 0. -1.
         -1   -1    0    0    0  501 -0.00000000000E+00 -0.00000000000E+00 -0.96076198983E+03  0.96076198983E+03  0.00000000000E+00 0.  1.
         23    2    1    2    0    0 -0.65130939268E+03 -0.37571302374E+03 -0.67473714781E+03  0.10142458593E+04  0.89778857808E+02 0.  0.
         11    1    3    3    0    0 -0.18091130869E+03 -0.13383299212E+03 -0.24568658798E+03  0.33316973287E+03  0.00000000000E+00 0.  1.
        -11    1    3    3    0    0 -0.47039808400E+03 -0.24188003162E+03 -0.42905055982E+03  0.68107612644E+03  0.00000000000E+00 0. -1.
         22    1    1    2    0    0  0.65130939268E+03  0.37571302374E+03  0.10993522812E+04  0.13318932538E+04  0.00000000000E+00 0. -1.
<mgrwt>
<rscale>  0 0.23073948E+04</rscale>
<asrwt>0</asrwt>
<pdfrwt beam="1">  1        1 0.21313494E+00 0.23073948E+04</pdfrwt>
<pdfrwt beam="2">  1       -1 0.14780954E+00 0.23073948E+04</pdfrwt>
<totfact> 0.25797326E+00</totfact>
</mgrwt>
</event>
<event>
 6    1  0.1028026E-006  0.1070633E+04  0.7818608E-02  0.9234297E-01
          2   -1    0    0  501    0  0.00000000000E+00  0.00000000000E+00  0.90506629639E+03  0.90506629639E+03  0.00000000000E+00 0. -1.
         -2   -1    0    0    0  501 -0.00000000000E+00 -0.00000000000E+00 -0.31662188088E+03  0.31662188088E+03  0.00000000000E+00 0.  1.
         23    2    1    2    0    0  0.12550843281E+03  0.12702250109E+03 -0.27517443086E+03  0.33980122630E+03  0.88638724666E+02 0.  0.
         13    1    3    3    0    0  0.10977788599E+03  0.51249350684E+02 -0.15266118286E+03  0.19489257798E+03  0.00000000000E+00 0.  1.
        -13    1    3    3    0    0  0.15730546823E+02  0.75773150406E+02 -0.12251324800E+03  0.14490864833E+03  0.00000000000E+00 0. -1.
         22    1    1    2    0    0 -0.12550843281E+03 -0.12702250109E+03  0.86361884636E+03  0.88188695096E+03  0.00000000000E+00 0. -1.
<mgrwt>
<rscale>  0 0.10706331E+04</rscale>
<asrwt>0</asrwt>
<pdfrwt beam="1">  1        2 0.13924097E+00 0.10706331E+04</pdfrwt>
<pdfrwt beam="2">  1       -2 0.48711059E-01 0.10706331E+04</pdfrwt>
<totfact> 0.11545230E+02</totfact>
</mgrwt>
</event>
<event>
 6    1  0.1028026E-006  0.4326286E+04  0.7818608E-02  0.7941775E-01
          1   -1    0    0  501    0  0.00000000000E+00  0.00000000000E+00  0.33055115359E+04  0.33055115359E+04  0.00000000000E+00 0. -1.
         -1   -1    0    0    0  501 -0.00000000000E+00 -0.00000000000E+00 -0.14155714614E+04  0.14155714614E+04  0.00000000000E+00 0.  1.
         23    2    1    2    0    0 -0.77260931871E+03  0.10301481429E+04  0.28406928837E+04  0.31204389832E+04  0.97329508267E+02 0.  0.
         13    1    3    3    0    0 -0.14456117400E+03  0.25535692782E+03  0.68463743219E+03  0.74487147023E+03  0.00000000000E+00 0.  1.
        -13    1    3    3    0    0 -0.62804814471E+03  0.77479121505E+03  0.21560554515E+04  0.23755675130E+04  0.00000000000E+00 0. -1.
         22    1    1    2    0    0  0.77260931871E+03 -0.10301481429E+04 -0.95075280919E+03  0.16006440141E+04  0.00000000000E+00 0.  1.
<mgrwt>
<rscale>  0 0.43262861E+04</rscale>
<asrwt>0</asrwt>
<pdfrwt beam="1">  1        1 0.50854023E+00 0.43262861E+04</pdfrwt>
<pdfrwt beam="2">  1       -1 0.21778023E+00 0.43262861E+04</pdfrwt>
<totfact> 0.30671401E-02</totfact>
</mgrwt>
</event>
<event>
 6    1  0.1028026E-006  0.2691638E+04  0.7818608E-02  0.8337723E-01
          2   -1    0    0  501    0  0.00000000000E+00  0.00000000000E+00  0.17326955303E+04  0.17326955303E+04  0.00000000000E+00 0. -1.
         -2   -1    0    0    0  501 -0.00000000000E+00 -0.00000000000E+00 -0.10453246743E+04  0.10453246743E+04  0.00000000000E+00 0.  1.
         23    2    1    2    0    0  0.10460879187E+04  0.22360015220E+02  0.12151034363E+04  0.16061406971E+04  0.91715179277E+02 0.  0.
         11    1    3    3    0    0  0.75799637470E+03  0.37620908578E+02  0.82546485793E+03  0.11213233559E+04  0.00000000000E+00 0. -1.
        -11    1    3    3    0    0  0.28809154398E+03 -0.15260893358E+02  0.38963857833E+03  0.48481734118E+03  0.00000000000E+00 0.  1.
         22    1    1    2    0    0 -0.10460879187E+04 -0.22360015220E+02 -0.52773258021E+03  0.11718795075E+04  0.00000000000E+00 0.  1.
<mgrwt>
<rscale>  0 0.26916385E+04</rscale>
<asrwt>0</asrwt>
<pdfrwt beam="1">  1        2 0.26656854E+00 0.26916385E+04</pdfrwt>
<pdfrwt beam="2">  1       -2 0.16081918E+00 0.26916385E+04</pdfrwt>
<totfact> 0.20512441E+00</totfact>
</mgrwt>
</event>
<event>
 6    1  0.1028026E-006  0.3913587E+04  0.7818608E-02  0.8022209E-01
         -2   -1    0    0    0  501 -0.00000000000E+00  0.00000000000E+00  0.20469467983E+04  0.20469467983E+04  0.00000000000E+00 0.  1.
          2   -1    0    0  501    0  0.00000000000E+00 -0.00000000000E+00 -0.18706103427E+04  0.18706103427E+04  0.00000000000E+00 0. -1.
         23    2    1    2    0    0 -0.65340892584E+03 -0.40595179945E+03  0.18881397309E+04  0.20408551026E+04  0.90982515854E+02 0.  0.
         11    1    3    3    0    0 -0.75851579422E+02 -0.31420493668E+02  0.14353284184E+03  0.16535533318E+03  0.00000000000E+00 0.  1.
        -11    1    3    3    0    0 -0.57755734642E+03 -0.37453130578E+03  0.17446068891E+04  0.18754997694E+04  0.00000000000E+00 0. -1.
         22    1    1    2    0    0  0.65340892584E+03  0.40595179945E+03 -0.17118032753E+04  0.18767020385E+04  0.00000000000E+00 0. -1.
<mgrwt>
<rscale>  0 0.39135865E+04</rscale>
<asrwt>0</asrwt>
<pdfrwt beam="1">  1        2 0.28778621E+00 0.39135865E+04</pdfrwt>
<pdfrwt beam="2">  1       -2 0.31491489E+00 0.39135865E+04</pdfrwt>
<totfact> 0.16119187E-01</totfact>
</mgrwt>
</event>
<event>
 6    1  0.1028026E-006  0.1829375E+04  0.7818608E-02  0.8690832E-01
          2   -1    0    0  501    0  0.00000000000E+00  0.00000000000E+00  0.20580794353E+04  0.20580794353E+04  0.00000000000E+00 0. -1.
         -2   -1    0    0    0  501 -0.00000000000E+00 -0.00000000000E+00 -0.40652128866E+03  0.40652128866E+03  0.00000000000E+00 0.  1.
         23    2    1    2    0    0 -0.64045495903E+03 -0.64295577734E+03  0.95548553118E+03  0.13208823267E+04  0.90569501524E+02 0.  0.
         13    1    3    3    0    0 -0.13834220813E+03 -0.94713647527E+02  0.15330394130E+03  0.22718129324E+03  0.00000000000E+00 0. -1.
        -13    1    3    3    0    0 -0.50211275090E+03 -0.54824212981E+03  0.80218158987E+03  0.10937010335E+04  0.00000000000E+00 0.  1.
         22    1    1    2    0    0  0.64045495903E+03  0.64295577734E+03  0.69607261544E+03  0.11437183972E+04  0.00000000000E+00 0. -1.
<mgrwt>
<rscale>  0 0.18293749E+04</rscale>
<asrwt>0</asrwt>
<pdfrwt beam="1">  1        2 0.31662760E+00 0.18293749E+04</pdfrwt>
<pdfrwt beam="2">  1       -2 0.62541738E-01 0.18293749E+04</pdfrwt>
<totfact> 0.13850448E+01</totfact>
</mgrwt>
</event>
<event>
 6    1  0.1028026E-006  0.2538460E+04  0.7818608E-02  0.8389411E-01
          1   -1    0    0  501    0  0.00000000000E+00  0.00000000000E+00  0.23731241750E+04  0.23731241750E+04  0.00000000000E+00 0. -1.
         -1   -1    0    0    0  501 -0.00000000000E+00 -0.00000000000E+00 -0.67882894608E+03  0.67882894608E+03  0.00000000000E+00 0.  1.
         23    2    1    2    0    0  0.79448495573E+03  0.92481276928E+03  0.12654026316E+04  0.17595004670E+04  0.90072582274E+02 0.  0.
         11    1    3    3    0    0  0.11763599723E+03  0.14511520998E+03  0.15001646795E+03  0.23958629483E+03  0.00000000000E+00 0.  1.
        -11    1    3    3    0    0  0.67684895850E+03  0.77969755929E+03  0.11153861637E+04  0.15199141722E+04  0.00000000000E+00 0. -1.
         22    1    1    2    0    0 -0.79448495573E+03 -0.92481276928E+03  0.42889259731E+03  0.12924526541E+04  0.00000000000E+00 0.  1.
<mgrwt>
<rscale>  0 0.25384605E+04</rscale>
<asrwt>0</asrwt>
<pdfrwt beam="1">  1        1 0.36509602E+00 0.25384605E+04</pdfrwt>
<pdfrwt beam="2">  1       -1 0.10443522E+00 0.25384605E+04</pdfrwt>
<totfact> 0.12651683E+00</totfact>
</mgrwt>
</event>
<event>
 6    1  0.1028026E-006  0.2305024E+04  0.7818608E-02  0.8475943E-01
          2   -1    0    0  501    0  0.00000000000E+00  0.00000000000E+00  0.31260033732E+04  0.31260033732E+04  0.00000000000E+00 0. -1.
         -2   -1    0    0    0  501 -0.00000000000E+00 -0.00000000000E+00 -0.42491436797E+03  0.42491436797E+03  0.00000000000E+00 0.  1.
         23    2    1    2    0    0  0.32646019970E+03  0.11044951684E+04  0.13298449834E+04  0.17601648251E+04  0.56627666365E+02 0.  0.
         13    1    3    3    0    0  0.23871916716E+03  0.87234288046E+03  0.10212801938E+04  0.13641782054E+04  0.00000000000E+00 0. -1.
        -13    1    3    3    0    0  0.87741032543E+02  0.23215228795E+03  0.30856478957E+03  0.39598661967E+03  0.00000000000E+00 0.  1.
         22    1    1    2    0    0 -0.32646019970E+03 -0.11044951684E+04  0.13712440218E+04  0.17907529161E+04  0.00000000000E+00 0.  1.
<mgrwt>
<rscale>  0 0.23050239E+04</rscale>
<asrwt>0</asrwt>
<pdfrwt beam="1">  1        2 0.48092358E+00 0.23050239E+04</pdfrwt>
<pdfrwt beam="2">  1       -2 0.65371443E-01 0.23050239E+04</pdfrwt>
<totfact> 0.28334455E+00</totfact>
</mgrwt>
</event>
<event>
 6    1  0.1028026E-006  0.2060281E+04  0.7818608E-02  0.8578944E-01
          1   -1    0    0  501    0  0.00000000000E+00  0.00000000000E+00  0.16374516526E+04  0.16374516526E+04  0.00000000000E+00 0. -1.
         -1   -1    0    0    0  501 -0.00000000000E+00 -0.00000000000E+00 -0.64807390488E+03  0.64807390488E+03  0.00000000000E+00 0.  1.
         23    2    1    2    0    0  0.17017385812E+03  0.10129863818E+04  0.54532839769E+03  0.11664722178E+04  0.90409190997E+02 0.  0.
         13    1    3    3    0    0  0.99321673732E+02  0.80513332491E+03  0.41719138497E+03  0.91222426927E+03  0.00000000000E+00 0.  1.
        -13    1    3    3    0    0  0.70852184386E+02  0.20785305692E+03  0.12813701272E+03  0.25424794853E+03  0.00000000000E+00 0. -1.
         22    1    1    2    0    0 -0.17017385812E+03 -0.10129863818E+04  0.44404935002E+03  0.11190533397E+04  0.00000000000E+00 0.  1.
<mgrwt>
<rscale>  0 0.20602812E+04</rscale>
<asrwt>0</asrwt>
<pdfrwt beam="1">  1        1 0.25191564E+00 0.20602812E+04</pdfrwt>
<pdfrwt beam="2">  1       -1 0.99703678E-01 0.20602812E+04</pdfrwt>
<totfact> 0.46572802E+00</totfact>
</mgrwt>
</event>
<event>
 6    1  0.1028026E-006  0.4698993E+04  0.7818608E-02  0.7876696E-01
         -2   -1    0    0    0  501 -0.00000000000E+00  0.00000000000E+00  0.15914449443E+04  0.15914449443E+04  0.00000000000E+00 0.  1.
          2   -1    0    0  501    0  0.00000000000E+00 -0.00000000000E+00 -0.34686298697E+04  0.34686298697E+04  0.00000000000E+00 0. -1.
         23    2    1    2    0    0  0.39708358362E+03  0.39605579588E+03 -0.33948753605E+04  0.34420761049E+04  0.90408144930E+02 0.  0.
         11    1    3    3    0    0  0.25330213726E+03  0.19174238276E+03 -0.18247843695E+04  0.18522324663E+04  0.00000000000E+00 0.  1.
        -11    1    3    3    0    0  0.14378144636E+03  0.20431341312E+03 -0.15700909910E+04  0.15898436386E+04  0.00000000000E+00 0. -1.
         22    1    1    2    0    0 -0.39708358362E+03 -0.39605579588E+03  0.15176904351E+04  0.16179987091E+04  0.00000000000E+00 0.  1.
<mgrwt>
<rscale>  0 0.46989929E+04</rscale>
<asrwt>0</asrwt>
<pdfrwt beam="1">  1        2 0.53363535E+00 0.46989929E+04</pdfrwt>
<pdfrwt beam="2">  1       -2 0.24483769E+00 0.46989929E+04</pdfrwt>
<totfact> 0.44001848E-02</totfact>
</mgrwt>
</event>
<event>
 6    1  0.1028026E-006  0.1280308E+04  0.7818608E-02  0.9045329E-01
          2   -1    0    0  501    0  0.00000000000E+00  0.00000000000E+00  0.70739850889E+03  0.70739850889E+03  0.00000000000E+00 0. -1.
         -2   -1    0    0    0  501 -0.00000000000E+00 -0.00000000000E+00 -0.57930162645E+03  0.57930162645E+03  0.00000000000E+00 0.  1.
         23    2    1    2    0    0 -0.64334303178E+02  0.63376964263E+03  0.64101034841E+02  0.64646710668E+03  0.89486953583E+02 0.  0.
         13    1    3    3    0    0 -0.39169382399E+00  0.29777451674E+03  0.63359611686E+02  0.30444089186E+03  0.00000000000E+00 0.  1.
        -13    1    3    3    0    0 -0.63942609354E+02  0.33599512589E+03  0.74142315567E+00  0.34202621482E+03  0.00000000000E+00 0. -1.
         22    1    1    2    0    0  0.64334303178E+02 -0.63376964263E+03  0.63995847599E+02  0.64023302867E+03  0.00000000000E+00 0.  1.
<mgrwt>
<rscale>  0 0.12803079E+04</rscale>
<asrwt>0</asrwt>
<pdfrwt beam="1">  1        2 0.10883054E+00 0.12803079E+04</pdfrwt>
<pdfrwt beam="2">  1       -2 0.89123327E-01 0.12803079E+04</pdfrwt>
<totfact> 0.42910308E+01</totfact>
</mgrwt>
</event>
<event>
 6    1  0.1028026E-006  0.2505240E+04  0.7818608E-02  0.8401121E-01
         -2   -1    0    0    0  501 -0.00000000000E+00  0.00000000000E+00  0.19402152268E+04  0.19402152268E+04  0.00000000000E+00 0.  1.
          2   -1    0    0  501    0  0.00000000000E+00 -0.00000000000E+00 -0.80870265518E+03  0.80870265518E+03  0.00000000000E+00 0. -1.
         23    2    1    2    0    0 -0.52352679475E+03 -0.74889084947E+03  0.15039257485E+04  0.17622014163E+04  0.92969701907E+02 0.  0.
         11    1    3    3    0    0 -0.90512759874E+02 -0.19834121143E+03  0.35447218733E+03  0.41615180817E+03  0.00000000000E+00 0. -1.
        -11    1    3    3    0    0 -0.43301403488E+03 -0.55054963805E+03  0.11494535612E+04  0.13460496082E+04  0.00000000000E+00 0.  1.
         22    1    1    2    0    0  0.52352679475E+03  0.74889084947E+03 -0.37241317689E+03  0.98671646564E+03  0.00000000000E+00 0. -1.
<mgrwt>
<rscale>  0 0.25052403E+04</rscale>
<asrwt>0</asrwt>
<pdfrwt beam="1">  1        2 0.12441579E+00 0.25052403E+04</pdfrwt>
<pdfrwt beam="2">  1       -2 0.29849465E+00 0.25052403E+04</pdfrwt>
<totfact> 0.98281018E-01</totfact>
</mgrwt>
</event>
<event>
 6    1  0.1028026E-006  0.2270230E+04  0.7818608E-02  0.8489752E-01
          2   -1    0    0  501    0  0.00000000000E+00  0.00000000000E+00  0.29021020270E+04  0.29021020270E+04  0.00000000000E+00 0. -1.
         -2   -1    0    0    0  501 -0.00000000000E+00 -0.00000000000E+00 -0.44398376013E+03  0.44398376013E+03  0.00000000000E+00 0.  1.
         23    2    1    2    0    0  0.54854746899E+03 -0.40991407128E+03 -0.99875562837E+02  0.69801737707E+03  0.91209972430E+02 0.  0.
         13    1    3    3    0    0  0.26705149496E+03 -0.14666542176E+03 -0.27952738687E+02  0.30595522957E+03  0.00000000000E+00 0. -1.
        -13    1    3    3    0    0  0.28149597403E+03 -0.26324864952E+03 -0.71922824150E+02  0.39206214750E+03  0.00000000000E+00 0.  1.
         22    1    1    2    0    0 -0.54854746899E+03  0.40991407128E+03  0.25579938297E+04  0.26480684101E+04  0.00000000000E+00 0. -1.
<mgrwt>
<rscale>  0 0.22702301E+04</rscale>
<asrwt>0</asrwt>
<pdfrwt beam="1">  1        2 0.44647722E+00 0.22702301E+04</pdfrwt>
<pdfrwt beam="2">  1       -2 0.68305196E-01 0.22702301E+04</pdfrwt>
<totfact> 0.35722287E+00</totfact>
</mgrwt>
</event>
<event>
 6    1  0.1028026E-006  0.2852871E+04  0.7818608E-02  0.8287040E-01
          2   -1    0    0  501    0  0.00000000000E+00  0.00000000000E+00  0.16044416573E+04  0.16044416573E+04  0.00000000000E+00 0. -1.
         -2   -1    0    0    0  501 -0.00000000000E+00 -0.00000000000E+00 -0.12681779524E+04  0.12681779524E+04  0.00000000000E+00 0.  1.
         23    2    1    2    0    0  0.45700628016E+03 -0.12774613948E+04 -0.27022876057E+03  0.13864852061E+04  0.92494801758E+02 0.  0.
         13    1    3    3    0    0  0.33904467602E+03 -0.10262410851E+04 -0.24164007235E+03  0.11074800141E+04  0.00000000000E+00 0. -1.
        -13    1    3    3    0    0  0.11796160414E+03 -0.25122030968E+03 -0.28588688215E+02  0.27900519196E+03  0.00000000000E+00 0.  1.
         22    1    1    2    0    0 -0.45700628016E+03  0.12774613948E+04  0.60649246542E+03  0.14861344037E+04  0.00000000000E+00 0. -1.
<mgrwt>
<rscale>  0 0.28528705E+04</rscale>
<asrwt>0</asrwt>
<pdfrwt beam="1">  1        2 0.24683718E+00 0.28528705E+04</pdfrwt>
<pdfrwt beam="2">  1       -2 0.19510430E+00 0.28528705E+04</pdfrwt>
<totfact> 0.13767286E+00</totfact>
</mgrwt>
</event>
<event>
 6    1  0.1028026E-006  0.3341361E+04  0.7818608E-02  0.8152450E-01
          2   -1    0    0  501    0  0.00000000000E+00  0.00000000000E+00  0.20386157601E+04  0.20386157601E+04  0.00000000000E+00 0. -1.
         -2   -1    0    0    0  501 -0.00000000000E+00 -0.00000000000E+00 -0.13691516420E+04  0.13691516420E+04  0.00000000000E+00 0.  1.
         23    2    1    2    0    0  0.71847252410E+03 -0.17449735950E+03  0.18615109245E+04  0.20050458742E+04  0.91290412068E+02 0.  0.
         11    1    3    3    0    0  0.22961082424E+03 -0.95330761804E+02  0.67517046638E+03  0.71948887651E+03  0.00000000000E+00 0.  1.
        -11    1    3    3    0    0  0.48886169986E+03 -0.79166597693E+02  0.11863404581E+04  0.12855569977E+04  0.00000000000E+00 0. -1.
         22    1    1    2    0    0 -0.71847252410E+03  0.17449735950E+03 -0.11920468063E+04  0.14027215279E+04  0.00000000000E+00 0.  1.
<mgrwt>
<rscale>  0 0.33413615E+04</rscale>
<asrwt>0</asrwt>
<pdfrwt beam="1">  1        2 0.31363319E+00 0.33413615E+04</pdfrwt>
<pdfrwt beam="2">  1       -2 0.21063871E+00 0.33413615E+04</pdfrwt>
<totfact> 0.60039081E-01</totfact>
</mgrwt>
</event>
<event>
 6    1  0.1028026E-006  0.2765200E+04  0.7818608E-02  0.8314154E-01
          2   -1    0    0  501    0  0.00000000000E+00  0.00000000000E+00  0.39239805874E+04  0.39239805874E+04  0.00000000000E+00 0. -1.
         -2   -1    0    0    0  501 -0.00000000000E+00 -0.00000000000E+00 -0.48715414717E+03  0.48715414717E+03  0.00000000000E+00 0.  1.
         23    2    1    2    0    0  0.22172073704E+03 -0.12317243646E+04  0.26519952050E+04  0.29338855805E+04  0.91110022972E+02 0.  0.
         13    1    3    3    0    0  0.12079552465E+03 -0.49784771348E+03  0.10085964272E+04  0.11312429702E+04  0.00000000000E+00 0. -1.
        -13    1    3    3    0    0  0.10092521239E+03 -0.73387665109E+03  0.16433987778E+04  0.18026426103E+04  0.00000000000E+00 0.  1.
         22    1    1    2    0    0 -0.22172073704E+03  0.12317243646E+04  0.78483123516E+03  0.14772491541E+04  0.00000000000E+00 0.  1.
<mgrwt>
<rscale>  0 0.27652005E+04</rscale>
<asrwt>0</asrwt>
<pdfrwt beam="1">  1        2 0.60368930E+00 0.27652005E+04</pdfrwt>
<pdfrwt beam="2">  1       -2 0.74946794E-01 0.27652005E+04</pdfrwt>
<totfact> 0.54971066E-01</totfact>
</mgrwt>
</event>
<event>
 6    1  0.1028026E-006  0.4175224E+04  0.7818608E-02  0.7970102E-01
          1   -1    0    0  501    0  0.00000000000E+00  0.00000000000E+00  0.10908901896E+04  0.10908901896E+04  0.00000000000E+00 0. -1.
         -1   -1    0    0    0  501 -0.00000000000E+00 -0.00000000000E+00 -0.39950170234E+04  0.39950170234E+04  0.00000000000E+00 0.  1.
         23    2    1    2    0    0  0.32120178901E+03 -0.17836056795E+04 -0.27125168807E+04  0.32635092918E+04  0.91242864160E+02 0.  0.
         13    1    3    3    0    0  0.10632341909E+03 -0.40236568478E+03 -0.65690083269E+03  0.77763842352E+03  0.00000000000E+00 0.  1.
        -13    1    3    3    0    0  0.21487836992E+03 -0.13812399947E+04 -0.20556160480E+04  0.24858708683E+04  0.00000000000E+00 0. -1.
         22    1    1    2    0    0 -0.32120178901E+03  0.17836056795E+04 -0.19160995309E+03  0.18223979212E+04  0.00000000000E+00 0. -1.
<mgrwt>
<rscale>  0 0.41752245E+04</rscale>
<asrwt>0</asrwt>
<pdfrwt beam="1">  1        1 0.16782926E+00 0.41752245E+04</pdfrwt>
<pdfrwt beam="2">  1       -1 0.61461802E+00 0.41752245E+04</pdfrwt>
<totfact> 0.38596456E-03</totfact>
</mgrwt>
</event>
<event>
 6    1  0.1028026E-006  0.1374427E+04  0.7818608E-02  0.8972540E-01
          1   -1    0    0  501    0  0.00000000000E+00  0.00000000000E+00  0.12712809846E+04  0.12712809846E+04  0.00000000000E+00 0. -1.
         -1   -1    0    0    0  501 -0.00000000000E+00 -0.00000000000E+00 -0.37148552519E+03  0.37148552519E+03  0.00000000000E+00 0.  1.
         23    2    1    2    0    0 -0.66628197688E+03 -0.52068867272E+02  0.27750029055E+03  0.72958847848E+03  0.93005897742E+02 0.  0.
         11    1    3    3    0    0 -0.41981175400E+03 -0.40772675266E+02  0.12662050792E+03  0.44038287077E+03  0.00000000000E+00 0. -1.
        -11    1    3    3    0    0 -0.24647022289E+03 -0.11296192007E+02  0.15087978263E+03  0.28920560771E+03  0.00000000000E+00 0.  1.
         22    1    1    2    0    0  0.66628197688E+03  0.52068867272E+02  0.62229516884E+03  0.91317803129E+03  0.00000000000E+00 0. -1.
<mgrwt>
<rscale>  0 0.13744271E+04</rscale>
<asrwt>0</asrwt>
<pdfrwt beam="1">  1        1 0.19558169E+00 0.13744271E+04</pdfrwt>
<pdfrwt beam="2">  1       -1 0.57151620E-01 0.13744271E+04</pdfrwt>
<totfact> 0.28725872E+01</totfact>
</mgrwt>
</event>
<event>
 6    1  0.1028026E-006  0.3670694E+04  0.7818608E-02  0.8074488E-01
          2   -1    0    0  501    0  0.00000000000E+00  0.00000000000E+00  0.19637645019E+04  0.19637645019E+04  0.00000000000E+00 0. -1.
         -2   -1    0    0    0  501 -0.00000000000E+00 -0.00000000000E+00 -0.17153270609E+04  0.17153270609E+04  0.00000000000E+00 0.  1.
         23    2    1    2    0    0  0.12779369614E+04  0.78163755590E+03  0.11849404709E+04  0.19124229264E+04  0.95902991303E+02 0.  0.
         13    1    3    3    0    0  0.83414819086E+03  0.53970161051E+03  0.73678379091E+03  0.12369039523E+04  0.00000000000E+00 0. -1.
        -13    1    3    3    0    0  0.44378877050E+03  0.24193594539E+03  0.44815668002E+03  0.67551897408E+03  0.00000000000E+00 0.  1.
         22    1    1    2    0    0 -0.12779369614E+04 -0.78163755590E+03 -0.93650302993E+03  0.17666686365E+04  0.00000000000E+00 0.  1.
<mgrwt>
<rscale>  0 0.36706939E+04</rscale>
<asrwt>0</asrwt>
<pdfrwt beam="1">  1        2 0.30211762E+00 0.36706939E+04</pdfrwt>
<pdfrwt beam="2">  1       -2 0.26389647E+00 0.36706939E+04</pdfrwt>
<totfact> 0.29953855E-01</totfact>
</mgrwt>
</event>
<event>
 6    1  0.1028026E-006  0.8268165E+03  0.7818608E-02  0.9521992E-01
         -1   -1    0    0    0  501 -0.00000000000E+00  0.00000000000E+00  0.92268469428E+03  0.92268469428E+03  0.00000000000E+00 0.  1.
          1   -1    0    0  501    0  0.00000000000E+00 -0.00000000000E+00 -0.18522730474E+03  0.18522730474E+03  0.00000000000E+00 0. -1.
         23    2    1    2    0    0 -0.15909753063E+02 -0.27084924291E+02  0.91896617952E+03  0.92370517448E+03  0.88009640962E+02 0.  0.
         13    1    3    3    0    0  0.15131989037E+02  0.14537417086E+02  0.61340611879E+03  0.61376492255E+03  0.00000000000E+00 0.  1.
        -13    1    3    3    0    0 -0.31041742100E+02 -0.41622341376E+02  0.30556006073E+03  0.30994025194E+03  0.00000000000E+00 0. -1.
         22    1    1    2    0    0  0.15909753063E+02  0.27084924291E+02 -0.18150878998E+03  0.18420682454E+03  0.00000000000E+00 0. -1.
<mgrwt>
<rscale>  0 0.82681654E+03</rscale>
<asrwt>0</asrwt>
<pdfrwt beam="1">  1        1 0.28496509E-01 0.82681654E+03</pdfrwt>
<pdfrwt beam="2">  1       -1 0.14195149E+00 0.82681654E+03</pdfrwt>
<totfact> 0.67317813E+01</totfact>
</mgrwt>
</event>
<event>
 6    1  0.1028026E-006  0.2765191E+04  0.7818608E-02  0.8314157E-01
         -2   -1    0    0    0  501 -0.00000000000E+00  0.00000000000E+00  0.12365173172E+04  0.12365173172E+04  0.00000000000E+00 0.  1.
          2   -1    0    0  501    0  0.00000000000E+00 -0.00000000000E+00 -0.15459306659E+04  0.15459306659E+04  0.00000000000E+00 0. -1.
         23    2    1    2    0    0  0.45952414338E+03  0.30234246170E+02  0.11553347458E+04  0.12470120422E+04  0.90355467535E+02 0.  0.
         13    1    3    3    0    0  0.20926954208E+03 -0.11359604051E+02  0.42485775132E+03  0.47373715360E+03  0.00000000000E+00 0. -1.
        -13    1    3    3    0    0  0.25025460130E+03  0.41593850222E+02  0.73047699453E+03  0.77327488863E+03  0.00000000000E+00 0.  1.
         22    1    1    2    0    0 -0.45952414338E+03 -0.30234246170E+02 -0.14647480945E+04  0.15354359408E+04  0.00000000000E+00 0. -1.
<mgrwt>
<rscale>  0 0.27651908E+04</rscale>
<asrwt>0</asrwt>
<pdfrwt beam="1">  1        2 0.23783549E+00 0.27651908E+04</pdfrwt>
<pdfrwt beam="2">  1       -2 0.19023343E+00 0.27651908E+04</pdfrwt>
<totfact> 0.16119453E+00</totfact>
</mgrwt>
</event>
<event>
 6    1  0.1028026E-006  0.3263269E+03  0.7818608E-02  0.1072774E+00
          2   -1    0    0  501    0  0.00000000000E+00  0.00000000000E+00  0.70884732605E+03  0.70884732605E+03  0.00000000000E+00 0. -1.
         -2   -1    0    0    0  501 -0.00000000000E+00 -0.00000000000E+00 -0.37557178324E+02  0.37557178324E+02  0.00000000000E+00 0.  1.
         23    2    1    2    0    0  0.66765667335E+02  0.10597639395E+03  0.55244425379E+03  0.57374009891E+03  0.91073580887E+02 0.  0.
         11    1    3    3    0    0  0.42808452708E+02  0.96129933887E+02  0.26496654459E+03  0.28509787366E+03  0.00000000000E+00 0.  1.
        -11    1    3    3    0    0  0.23957214626E+02  0.98464600673E+01  0.28747770920E+03  0.28864222525E+03  0.00000000000E+00 0. -1.
         22    1    1    2    0    0 -0.66765667335E+02 -0.10597639395E+03  0.11884589393E+03  0.17266440546E+03  0.00000000000E+00 0.  1.
<mgrwt>
<rscale>  0 0.32632686E+03</rscale>
<asrwt>0</asrwt>
<pdfrwt beam="1">  1        2 0.10905342E+00 0.32632686E+03</pdfrwt>
<pdfrwt beam="2">  1       -2 0.57780280E-02 0.32632686E+03</pdfrwt>
<totfact> 0.64950061E+03</totfact>
</mgrwt>
</event>
<event>
 6    1  0.1028026E-006  0.1699225E+04  0.7818608E-02  0.8761807E-01
          1   -1    0    0  501    0  0.00000000000E+00  0.00000000000E+00  0.19421156806E+04  0.19421156806E+04  0.00000000000E+00 0. -1.
         -1   -1    0    0    0  501 -0.00000000000E+00 -0.00000000000E+00 -0.37167770015E+03  0.37167770015E+03  0.00000000000E+00 0.  1.
         23    2    1    2    0    0  0.22302968248E+03  0.44616664169E+03  0.17201028549E+04  0.17930184907E+04  0.85758760917E+02 0.  0.
         13    1    3    3    0    0  0.12449593751E+02  0.28843568646E+02  0.20660687272E+03  0.20898168268E+03  0.00000000000E+00 0. -1.
        -13    1    3    3    0    0  0.21058008873E+03  0.41732307305E+03  0.15134959822E+04  0.15840368080E+04  0.00000000000E+00 0.  1.
         22    1    1    2    0    0 -0.22302968248E+03 -0.44616664169E+03 -0.14966487449E+03  0.52077489003E+03  0.00000000000E+00 0.  1.
<mgrwt>
<rscale>  0 0.16992246E+04</rscale>
<asrwt>0</asrwt>
<pdfrwt beam="1">  1        1 0.29878702E+00 0.16992246E+04</pdfrwt>
<pdfrwt beam="2">  1       -1 0.57181186E-01 0.16992246E+04</pdfrwt>
<totfact> 0.96160806E+00</totfact>
</mgrwt>
</event>
<event>
 6    1  0.1028026E-006  0.3903095E+04  0.7818608E-02  0.8024386E-01
         -2   -1    0    0    0  501 -0.00000000000E+00  0.00000000000E+00  0.16895361095E+04  0.16895361095E+04  0.00000000000E+00 0.  1.
          2   -1    0    0  501    0  0.00000000000E+00 -0.00000000000E+00 -0.22541917492E+04  0.22541917492E+04  0.00000000000E+00 0. -1.
         23    2    1    2    0    0 -0.23145829964E+03 -0.73905832892E+03 -0.20912469839E+04  0.22319272598E+04  0.91679807144E+02 0.  0.
         13    1    3    3    0    0 -0.20895786470E+03 -0.53746875640E+03 -0.15764209721E+04  0.16785824777E+04  0.00000000000E+00 0.  1.
        -13    1    3    3    0    0 -0.22500434940E+02 -0.20158957252E+03 -0.51482601185E+03  0.55334478203E+03  0.00000000000E+00 0. -1.
         22    1    1    2    0    0  0.23145829964E+03  0.73905832892E+03  0.15265913442E+04  0.17118005989E+04  0.00000000000E+00 0.  1.
<mgrwt>
<rscale>  0 0.39030954E+04</rscale>
<asrwt>0</asrwt>
<pdfrwt beam="1">  1        2 0.34679873E+00 0.39030954E+04</pdfrwt>
<pdfrwt beam="2">  1       -2 0.25992863E+00 0.39030954E+04</pdfrwt>
<totfact> 0.21372313E-01</totfact>
</mgrwt>
</event>
<event>
 6    1  0.1028026E-006  0.2438567E+04  0.7818608E-02  0.8425204E-01
         -1   -1    0    0    0  501 -0.00000000000E+00  0.00000000000E+00  0.57589124414E+03  0.57589124414E+03  0.00000000000E+00 0.  1.
          1   -1    0    0  501    0  0.00000000000E+00 -0.00000000000E+00 -0.25814818424E+04  0.25814818424E+04  0.00000000000E+00 0. -1.
         23    2    1    2    0    0  0.29373649400E+02 -0.87615316896E+03 -0.20983877826E+04  0.22758298351E+04  0.87538363281E+02 0.  0.
         13    1    3    3    0    0 -0.17881184354E+02 -0.38603845056E+03 -0.84419203182E+03  0.92844257155E+03  0.00000000000E+00 0.  1.
        -13    1    3    3    0    0  0.47254833755E+02 -0.49011471840E+03 -0.12541957508E+04  0.13473872635E+04  0.00000000000E+00 0. -1.
         22    1    1    2    0    0 -0.29373649400E+02  0.87615316896E+03  0.92797184409E+02  0.88154325146E+03  0.00000000000E+00 0.  1.
<mgrwt>
<rscale>  0 0.24385674E+04</rscale>
<asrwt>0</asrwt>
<pdfrwt beam="1">  1        1 0.39715105E+00 0.24385674E+04</pdfrwt>
<pdfrwt beam="2">  1       -1 0.88598654E-01 0.24385674E+04</pdfrwt>
<totfact> 0.13273641E+00</totfact>
</mgrwt>
</event>
<event>
 6    1  0.1028026E-006  0.2251349E+04  0.7818608E-02  0.8497354E-01
          2   -1    0    0  501    0  0.00000000000E+00  0.00000000000E+00  0.20871796240E+04  0.20871796240E+04  0.00000000000E+00 0. -1.
         -2   -1    0    0    0  501 -0.00000000000E+00 -0.00000000000E+00 -0.60710786218E+03  0.60710786218E+03  0.00000000000E+00 0.  1.
         23    2    1    2    0    0  0.15618194501E+03  0.85612514437E+03  0.15923541356E+04  0.18168193134E+04  0.88868789789E+02 0.  0.
         13    1    3    3    0    0  0.14533566287E+03  0.66226679487E+03  0.11770383325E+04  0.13583589359E+04  0.00000000000E+00 0.  1.
        -13    1    3    3    0    0  0.10846282140E+02  0.19385834950E+03  0.41531580305E+03  0.45846037754E+03  0.00000000000E+00 0. -1.
         22    1    1    2    0    0 -0.15618194501E+03 -0.85612514437E+03 -0.11228237375E+03  0.87746817277E+03  0.00000000000E+00 0.  1.
<mgrwt>
<rscale>  0 0.22513491E+04</rscale>
<asrwt>0</asrwt>
<pdfrwt beam="1">  1        2 0.32110455E+00 0.22513491E+04</pdfrwt>
<pdfrwt beam="2">  1       -2 0.93401211E-01 0.22513491E+04</pdfrwt>
<totfact> 0.52718365E+00</totfact>
</mgrwt>
</event>
<event>
 6    1  0.1028026E-006  0.1587997E+04  0.7818608E-02  0.8827956E-01
          1   -1    0    0  501    0  0.00000000000E+00  0.00000000000E+00  0.14531057786E+04  0.14531057786E+04  0.00000000000E+00 0. -1.
         -1   -1    0    0    0  501 -0.00000000000E+00 -0.00000000000E+00 -0.43385276728E+03  0.43385276728E+03  0.00000000000E+00 0.  1.
         23    2    1    2    0    0  0.66379673877E+03 -0.37905534484E+03  0.26812214829E+03  0.81527452610E+03  0.92054340753E+02 0.  0.
         11    1    3    3    0    0  0.26244522777E+03 -0.12993623080E+03  0.14669595165E+03  0.32753720992E+03  0.00000000000E+00 0.  1.
        -11    1    3    3    0    0  0.40135151100E+03 -0.24911911404E+03  0.12142619664E+03  0.48773731618E+03  0.00000000000E+00 0. -1.
         22    1    1    2    0    0 -0.66379673877E+03  0.37905534484E+03  0.75113086300E+03  0.10716840198E+04  0.00000000000E+00 0.  1.
<mgrwt>
<rscale>  0 0.15879974E+04</rscale>
<asrwt>0</asrwt>
<pdfrwt beam="1">  1        1 0.22355473E+00 0.15879974E+04</pdfrwt>
<pdfrwt beam="2">  1       -1 0.66746580E-01 0.15879974E+04</pdfrwt>
<totfact> 0.15403092E+01</totfact>
</mgrwt>
</event>
<event>
 6    1  0.1028026E-006  0.1741546E+04  0.7818608E-02  0.8738018E-01
          2   -1    0    0  501    0  0.00000000000E+00  0.00000000000E+00  0.13117851221E+04  0.13117851221E+04  0.00000000000E+00 0. -1.
         -2   -1    0    0    0  501 -0.00000000000E+00 -0.00000000000E+00 -0.57802554120E+03  0.57802554120E+03  0.00000000000E+00 0.  1.
         23    2    1    2    0    0 -0.75225483322E+03 -0.45172238919E+01 -0.10259964068E+03  0.76490867339E+03  0.93009961522E+02 0.  0.
         13    1    3    3    0    0 -0.53080076447E+03 -0.40379407608E+02 -0.51470233442E+02  0.53481691545E+03  0.00000000000E+00 0.  1.
        -13    1    3    3    0    0 -0.22145406875E+03  0.35862183716E+02 -0.51129407234E+02  0.23009175794E+03  0.00000000000E+00 0. -1.
         22    1    1    2    0    0  0.75225483322E+03  0.45172238919E+01  0.83635922160E+03  0.11249019899E+04  0.00000000000E+00 0. -1.
<mgrwt>
<rscale>  0 0.17415456E+04</rscale>
<asrwt>0</asrwt>
<pdfrwt beam="1">  1        2 0.20181310E+00 0.17415456E+04</pdfrwt>
<pdfrwt beam="2">  1       -2 0.88927007E-01 0.17415456E+04</pdfrwt>
<totfact> 0.16769210E+01</totfact>
</mgrwt>
</event>
<event>
 6    1  0.1028026E-006  0.2163379E+04  0.7818608E-02  0.8533827E-01
         -2   -1    0    0    0  501 -0.00000000000E+00  0.00000000000E+00  0.60512222676E+03  0.60512222676E+03  0.00000000000E+00 0.  1.
          2   -1    0    0  501    0  0.00000000000E+00 -0.00000000000E+00 -0.19335802470E+04  0.19335802470E+04  0.00000000000E+00 0. -1.
         23    2    1    2    0    0 -0.18855028087E+03 -0.80330511184E+02 -0.19094638224E+04  0.19226083724E+04  0.91469475837E+02 0.  0.
         13    1    3    3    0    0 -0.43730924566E+02 -0.15086904477E+02 -0.17939911515E+03  0.18526751190E+03  0.00000000000E+00 0. -1.
        -13    1    3    3    0    0 -0.14481935631E+03 -0.65243606706E+02 -0.17300647073E+04  0.17373408605E+04  0.00000000000E+00 0.  1.
         22    1    1    2    0    0  0.18855028087E+03  0.80330511184E+02  0.58100580224E+03  0.61609410132E+03  0.00000000000E+00 0.  1.
<mgrwt>
<rscale>  0 0.21633792E+04</rscale>
<asrwt>0</asrwt>
<pdfrwt beam="1">  1        2 0.29747388E+00 0.21633792E+04</pdfrwt>
<pdfrwt beam="2">  1       -2 0.93095730E-01 0.21633792E+04</pdfrwt>
<totfact> 0.65158487E+00</totfact>
</mgrwt>
</event>
<event>
 6    1  0.1028026E-006  0.2751946E+04  0.7818608E-02  0.8318344E-01
          2   -1    0    0  501    0  0.00000000000E+00  0.00000000000E+00  0.20657778400E+04  0.20657778400E+04  0.00000000000E+00 0. -1.
         -2   -1    0    0    0  501 -0.00000000000E+00 -0.00000000000E+00 -0.91650798454E+03  0.91650798454E+03  0.00000000000E+00 0.  1.
         23    2    1    2    0    0  0.24975747717E+03 -0.10646362220E+04 -0.32724394901E+03  0.11449175715E+04  0.88986295894E+02 0.  0.
         11    1    3    3    0    0  0.20628269872E+03 -0.69497211258E+03 -0.21726451725E+03  0.75679763446E+03  0.00000000000E+00 0. -1.
        -11    1    3    3    0    0  0.43474778445E+02 -0.36966410937E+03 -0.10997943176E+03  0.38811993704E+03  0.00000000000E+00 0.  1.
         22    1    1    2    0    0 -0.24975747717E+03  0.10646362220E+04  0.14765138045E+04  0.18373682531E+04  0.00000000000E+00 0. -1.
<mgrwt>
<rscale>  0 0.27519461E+04</rscale>
<asrwt>0</asrwt>
<pdfrwt beam="1">  1        2 0.31781197E+00 0.27519461E+04</pdfrwt>
<pdfrwt beam="2">  1       -2 0.14100123E+00 0.27519461E+04</pdfrwt>
<totfact> 0.18912021E+00</totfact>
</mgrwt>
</event>
<event>
 6    1  0.1028026E-006  0.2619635E+04  0.7818608E-02  0.8361562E-01
          2   -1    0    0  501    0  0.00000000000E+00  0.00000000000E+00  0.29471726713E+04  0.29471726713E+04  0.00000000000E+00 0. -1.
         -2   -1    0    0    0  501 -0.00000000000E+00 -0.00000000000E+00 -0.58212485187E+03  0.58212485187E+03  0.00000000000E+00 0.  1.
         23    2    1    2    0    0  0.11652238254E+04  0.27979642241E+03  0.47695975218E+03  0.12930262626E+04  0.91617188127E+02 0.  0.
         11    1    3    3    0    0  0.58997691451E+03  0.12540449060E+03  0.28622824314E+03  0.66762688164E+03  0.00000000000E+00 0. -1.
        -11    1    3    3    0    0  0.57524691091E+03  0.15439193181E+03  0.19073150904E+03  0.62539938092E+03  0.00000000000E+00 0.  1.
         22    1    1    2    0    0 -0.11652238254E+04 -0.27979642241E+03  0.18880880673E+04  0.22362712606E+04  0.00000000000E+00 0. -1.
<mgrwt>
<rscale>  0 0.26196354E+04</rscale>
<asrwt>0</asrwt>
<pdfrwt beam="1">  1        2 0.45341117E+00 0.26196354E+04</pdfrwt>
<pdfrwt beam="2">  1       -2 0.89557671E-01 0.26196354E+04</pdfrwt>
<totfact> 0.17729755E+00</totfact>
</mgrwt>
</event>
<event>
 6    1  0.1028026E-006  0.2699860E+04  0.7818608E-02  0.8335050E-01
         -2   -1    0    0    0  501 -0.00000000000E+00  0.00000000000E+00  0.10386764037E+04  0.10386764037E+04  0.00000000000E+00 0.  1.
          2   -1    0    0  501    0  0.00000000000E+00 -0.00000000000E+00 -0.17544553749E+04  0.17544553749E+04  0.00000000000E+00 0. -1.
         23    2    1    2    0    0  0.81824121158E+03  0.39681804892E+02 -0.14668473260E+04  0.16817376093E+04  0.74209049517E+02 0.  0.
         11    1    3    3    0    0  0.22045566341E+03 -0.10649956103E+02 -0.34485637911E+03  0.40943869298E+03  0.00000000000E+00 0. -1.
        -11    1    3    3    0    0  0.59778554816E+03  0.50331760995E+02 -0.11219909469E+04  0.12722989164E+04  0.00000000000E+00 0.  1.
         22    1    1    2    0    0 -0.81824121158E+03 -0.39681804892E+02  0.75106835481E+03  0.11113941693E+04  0.00000000000E+00 0.  1.
<mgrwt>
<rscale>  0 0.26998603E+04</rscale>
<asrwt>0</asrwt>
<pdfrwt beam="1">  1        2 0.26991621E+00 0.26998603E+04</pdfrwt>
<pdfrwt beam="2">  1       -2 0.15979637E+00 0.26998603E+04</pdfrwt>
<totfact> 0.20285571E+00</totfact>
</mgrwt>
</event>
<event>
 6    1  0.1028026E-006  0.2064714E+04  0.7818608E-02  0.8576948E-01
          2   -1    0    0  501    0  0.00000000000E+00  0.00000000000E+00  0.26265937570E+04  0.26265937570E+04  0.00000000000E+00 0. -1.
         -2   -1    0    0    0  501 -0.00000000000E+00 -0.00000000000E+00 -0.40575789517E+03  0.40575789517E+03  0.00000000000E+00 0.  1.
         23    2    1    2    0    0 -0.89019315247E+02 -0.74929480566E+03  0.21429672212E+04  0.22737801859E+04  0.91655214455E+02 0.  0.
         11    1    3    3    0    0 -0.10513443142E+03 -0.53720812810E+03  0.15493042525E+04  0.16431644740E+04  0.00000000000E+00 0. -1.
        -11    1    3    3    0    0  0.16115116175E+02 -0.21208667756E+03  0.59366296866E+03  0.63061571193E+03  0.00000000000E+00 0.  1.
         22    1    1    2    0    0  0.89019315247E+02  0.74929480566E+03  0.77868640646E+02  0.75857146630E+03  0.00000000000E+00 0.  1.
<mgrwt>
<rscale>  0 0.20647142E+04</rscale>
<asrwt>0</asrwt>
<pdfrwt beam="1">  1        2 0.40409134E+00 0.20647142E+04</pdfrwt>
<pdfrwt beam="2">  1       -2 0.62424293E-01 0.20647142E+04</pdfrwt>
<totfact> 0.64634165E+00</totfact>
</mgrwt>
</event>
<event>
 6    1  0.1028026E-006  0.2184081E+04  0.7818608E-02  0.8525083E-01
          2   -1    0    0  501    0  0.00000000000E+00  0.00000000000E+00  0.23567807315E+04  0.23567807315E+04  0.00000000000E+00 0. -1.
         -2   -1    0    0    0  501 -0.00000000000E+00 -0.00000000000E+00 -0.50600914839E+03  0.50600914839E+03  0.00000000000E+00 0.  1.
         23    2    1    2    0    0  0.95613925200E+03  0.52331688830E+03  0.90643907554E+03  0.14206294451E+04  0.92159578185E+02 0.  0.
         11    1    3    3    0    0  0.23734967191E+03  0.87097637099E+02  0.19696555569E+03  0.32049383031E+03  0.00000000000E+00 0. -1.
        -11    1    3    3    0    0  0.71878958010E+03  0.43621925120E+03  0.70947351985E+03  0.11001356148E+04  0.00000000000E+00 0.  1.
         22    1    1    2    0    0 -0.95613925200E+03 -0.52331688830E+03  0.94433250758E+03  0.14421604348E+04  0.00000000000E+00 0.  1.
<mgrwt>
<rscale>  0 0.21840811E+04</rscale>
<asrwt>0</asrwt>
<pdfrwt beam="1">  1        2 0.36258164E+00 0.21840811E+04</pdfrwt>
<pdfrwt beam="2">  1       -2 0.77847563E-01 0.21840811E+04</pdfrwt>
<totfact> 0.56601426E+00</totfact>
</mgrwt>
</event>
<event>
 6    1  0.1028026E-006  0.4089299E+04  0.7818608E-02  0.7986770E-01
         -1   -1    0    0    0  501 -0.00000000000E+00  0.00000000000E+00  0.11582775709E+04  0.11582775709E+04  0.00000000000E+00 0.  1.
          1   -1    0    0  501    0  0.00000000000E+00 -0.00000000000E+00 -0.36093174304E+04  0.36093174304E+04  0.00000000000E+00 0. -1.
         23    2    1    2    0    0  0.21705595203E+03  0.11956342181E+04 -0.31418801789E+04  0.33697699706E+04  0.85347091830E+02 0.  0.
         11    1    3    3    0    0  0.44690184915E+02  0.37338622353E+03 -0.88425540814E+03  0.96089651439E+03  0.00000000000E+00 0.  1.
        -11    1    3    3    0    0  0.17236576712E+03  0.82224799458E+03 -0.22576247708E+04  0.24088734562E+04  0.00000000000E+00 0. -1.
         22    1    1    2    0    0 -0.21705595203E+03 -0.11956342181E+04  0.69084031935E+03  0.13978250308E+04  0.00000000000E+00 0.  1.
<mgrwt>
<rscale>  0 0.40892989E+04</rscale>
<asrwt>0</asrwt>
<pdfrwt beam="1">  1        1 0.55527960E+00 0.40892989E+04</pdfrwt>
<pdfrwt beam="2">  1       -1 0.17819655E+00 0.40892989E+04</pdfrwt>
<totfact> 0.34000332E-02</totfact>
</mgrwt>
</event>
<event>
 6    1  0.1028026E-006  0.1360372E+04  0.7818608E-02  0.8983014E-01
         -2   -1    0    0    0  501 -0.00000000000E+00  0.00000000000E+00  0.26304027700E+03  0.26304027700E+03  0.00000000000E+00 0.  1.
          2   -1    0    0  501    0  0.00000000000E+00 -0.00000000000E+00 -0.17588664437E+04  0.17588664437E+04  0.00000000000E+00 0. -1.
         23    2    1    2    0    0 -0.28930662360E+03  0.49287334849E+03 -0.21176437559E+03  0.61640426838E+03  0.92128232325E+02 0.  0.
         13    1    3    3    0    0 -0.18236195067E+03  0.23455458347E+03 -0.82243593718E+02  0.30827867650E+03  0.00000000000E+00 0. -1.
        -13    1    3    3    0    0 -0.10694467293E+03  0.25831876502E+03 -0.12952078187E+03  0.30812559187E+03  0.00000000000E+00 0.  1.
         22    1    1    2    0    0  0.28930662360E+03 -0.49287334849E+03 -0.12840617911E+04  0.14055024523E+04  0.00000000000E+00 0. -1.
<mgrwt>
<rscale>  0 0.13603716E+04</rscale>
<asrwt>0</asrwt>
<pdfrwt beam="1">  1        2 0.27059485E+00 0.13603716E+04</pdfrwt>
<pdfrwt beam="2">  1       -2 0.40467733E-01 0.13603716E+04</pdfrwt>
<totfact> 0.51315718E+01</totfact>
</mgrwt>
</event>
<event>
 6    1  0.1028026E-006  0.5827214E+04  0.7818608E-02  0.7712202E-01
          2   -1    0    0  501    0  0.00000000000E+00  0.00000000000E+00  0.36207408248E+04  0.36207408248E+04  0.00000000000E+00 0. -1.
         -2   -1    0    0    0  501 -0.00000000000E+00 -0.00000000000E+00 -0.23445774109E+04  0.23445774109E+04  0.00000000000E+00 0.  1.
         23    2    1    2    0    0 -0.17499693301E+04  0.22681191845E+04  0.98297284725E+02  0.28678796311E+04  0.91180761604E+02 0.  0.
         11    1    3    3    0    0 -0.64637566301E+03  0.76670479772E+03  0.37009221617E+02  0.10034975969E+04  0.00000000000E+00 0. -1.
        -11    1    3    3    0    0 -0.11035936671E+04  0.15014143867E+04  0.61288063109E+02  0.18643820342E+04  0.00000000000E+00 0.  1.
         22    1    1    2    0    0  0.17499693301E+04 -0.22681191845E+04  0.11778661291E+04  0.30974386046E+04  0.00000000000E+00 0. -1.
<mgrwt>
<rscale>  0 0.58272145E+04</rscale>
<asrwt>0</asrwt>
<pdfrwt beam="1">  1        2 0.55703705E+00 0.58272145E+04</pdfrwt>
<pdfrwt beam="2">  1       -2 0.36070422E+00 0.58272145E+04</pdfrwt>
<totfact> 0.60408811E-03</totfact>
</mgrwt>
</event>
<event>
 6    1  0.1028026E-006  0.1863981E+04  0.7818608E-02  0.8672996E-01
         -2   -1    0    0    0  501 -0.00000000000E+00  0.00000000000E+00  0.11790645562E+04  0.11790645562E+04  0.00000000000E+00 0.  1.
          2   -1    0    0  501    0  0.00000000000E+00 -0.00000000000E+00 -0.73669140752E+03  0.73669140752E+03  0.00000000000E+00 0. -1.
         23    2    1    2    0    0  0.86026971275E+03 -0.32375115282E+03  0.36487334677E+03  0.99332168047E+03  0.93148344501E+02 0.  0.
         13    1    3    3    0    0  0.19516452162E+03 -0.11600523815E+03  0.85353031675E+02  0.24255215067E+03  0.00000000000E+00 0. -1.
        -13    1    3    3    0    0  0.66510519113E+03 -0.20774591467E+03  0.27952031509E+03  0.75076952980E+03  0.00000000000E+00 0.  1.
         22    1    1    2    0    0 -0.86026971275E+03  0.32375115282E+03  0.77499801933E+02  0.92243428326E+03  0.00000000000E+00 0. -1.
<mgrwt>
<rscale>  0 0.18639815E+04</rscale>
<asrwt>0</asrwt>
<pdfrwt beam="1">  1        2 0.11333714E+00 0.18639815E+04</pdfrwt>
<pdfrwt beam="2">  1       -2 0.18139455E+00 0.18639815E+04</pdfrwt>
<totfact> 0.63892654E+00</totfact>
</mgrwt>
</event>
<event>
 6    1  0.1028026E-006  0.4506085E+04  0.7818608E-02  0.7909572E-01
          1   -1    0    0  501    0  0.00000000000E+00  0.00000000000E+00  0.10228613348E+04  0.10228613348E+04  0.00000000000E+00 0. -1.
         -1   -1    0    0    0  501 -0.00000000000E+00 -0.00000000000E+00 -0.49627446515E+04  0.49627446515E+04  0.00000000000E+00 0.  1.
         23    2    1    2    0    0  0.14585062209E+04 -0.14070733272E+04 -0.32755588756E+04  0.38529028407E+04  0.92079356269E+02 0.  0.
         11    1    3    3    0    0  0.23980230056E+03 -0.27937050552E+03 -0.60972039028E+03  0.71225836396E+03  0.00000000000E+00 0.  1.
        -11    1    3    3    0    0  0.12187039203E+04 -0.11277028217E+04 -0.26658384853E+04  0.31406444767E+04  0.00000000000E+00 0. -1.
         22    1    1    2    0    0 -0.14585062209E+04  0.14070733272E+04 -0.66432444110E+03  0.21327031457E+04  0.00000000000E+00 0. -1.
<mgrwt>
<rscale>  0 0.45060846E+04</rscale>
<asrwt>0</asrwt>
<pdfrwt beam="1">  1        1 0.15736328E+00 0.45060846E+04</pdfrwt>
<pdfrwt beam="2">  1       -1 0.76349918E+00 0.45060846E+04</pdfrwt>
<totfact> 0.12065390E-03</totfact>
</mgrwt>
</event>
<event>
 6    1  0.1028026E-006  0.1623010E+04  0.7818608E-02  0.8806536E-01
          1   -1    0    0  501    0  0.00000000000E+00  0.00000000000E+00  0.46215599632E+03  0.46215599632E+03  0.00000000000E+00 0. -1.
         -1   -1    0    0    0  501 -0.00000000000E+00 -0.00000000000E+00 -0.14249306739E+04  0.14249306739E+04  0.00000000000E+00 0.  1.
         23    2    1    2    0    0  0.34523534650E+03 -0.49842177363E+03 -0.11055034960E+04  0.12642036760E+04  0.91985030670E+02 0.  0.
         13    1    3    3    0    0  0.16892618819E+03 -0.17435367586E+03 -0.48339112744E+03  0.54092720715E+03  0.00000000000E+00 0. -1.
        -13    1    3    3    0    0  0.17630915830E+03 -0.32406809778E+03 -0.62211236854E+03  0.72327646885E+03  0.00000000000E+00 0.  1.
         22    1    1    2    0    0 -0.34523534650E+03  0.49842177363E+03  0.14272881840E+03  0.62288299423E+03  0.00000000000E+00 0. -1.
<mgrwt>
<rscale>  0 0.16230099E+04</rscale>
<asrwt>0</asrwt>
<pdfrwt beam="1">  1        1 0.71100923E-01 0.16230099E+04</pdfrwt>
<pdfrwt beam="2">  1       -1 0.21922010E+00 0.16230099E+04</pdfrwt>
<totfact> 0.52671595E+00</totfact>
</mgrwt>
</event>
<event>
 6    1  0.1028026E-006  0.1381556E+04  0.7818608E-02  0.8967278E-01
          1   -1    0    0  501    0  0.00000000000E+00  0.00000000000E+00  0.25667192081E+04  0.25667192081E+04  0.00000000000E+00 0. -1.
         -1   -1    0    0    0  501 -0.00000000000E+00 -0.00000000000E+00 -0.18590837047E+03  0.18590837047E+03  0.00000000000E+00 0.  1.
         23    2    1    2    0    0  0.52567518181E+03  0.11456706721E+03  0.20491262334E+04  0.21205874799E+04  0.92265538868E+02 0.  0.
         13    1    3    3    0    0  0.44653684798E+03  0.11197914825E+03  0.18469308862E+04  0.19034411430E+04  0.00000000000E+00 0. -1.
        -13    1    3    3    0    0  0.79138333839E+02  0.25879189611E+01  0.20219534719E+03  0.21714633691E+03  0.00000000000E+00 0.  1.
         22    1    1    2    0    0 -0.52567518181E+03 -0.11456706721E+03  0.33168460419E+03  0.63204009867E+03  0.00000000000E+00 0.  1.
<mgrwt>
<rscale>  0 0.13815565E+04</rscale>
<asrwt>0</asrwt>
<pdfrwt beam="1">  1        1 0.39487985E+00 0.13815565E+04</pdfrwt>
<pdfrwt beam="2">  1       -1 0.28601290E-01 0.13815565E+04</pdfrwt>
<totfact> 0.13243256E+01</totfact>
</mgrwt>
</event>
<event>
 6    1  0.1028026E-006  0.1054115E+04  0.7818608E-02  0.9251106E-01
          2   -1    0    0  501    0  0.00000000000E+00  0.00000000000E+00  0.12756418481E+04  0.12756418481E+04  0.00000000000E+00 0. -1.
         -2   -1    0    0    0  501 -0.00000000000E+00 -0.00000000000E+00 -0.21776471495E+03  0.21776471495E+03  0.00000000000E+00 0.  1.
         23    2    1    2    0    0  0.26352650284E+03 -0.32366990448E+03  0.86060200566E+02  0.43575039244E+03  0.90904464288E+02 0.  0.
         11    1    3    3    0    0  0.21489034785E+03 -0.30400833942E+03  0.59717701500E+02  0.37704792256E+03  0.00000000000E+00 0. -1.
        -11    1    3    3    0    0  0.48636154992E+02 -0.19661565056E+02  0.26342499066E+02  0.58702469879E+02  0.00000000000E+00 0.  1.
         22    1    1    2    0    0 -0.26352650284E+03  0.32366990448E+03  0.97181693256E+03  0.10576561706E+04  0.00000000000E+00 0. -1.
<mgrwt>
<rscale>  0 0.10541153E+04</rscale>
<asrwt>0</asrwt>
<pdfrwt beam="1">  1        2 0.19625259E+00 0.10541153E+04</pdfrwt>
<pdfrwt beam="2">  1       -2 0.33502264E-01 0.10541153E+04</pdfrwt>
<totfact> 0.14145944E+02</totfact>
</mgrwt>
</event>
<event>
 6    1  0.1028026E-006  0.2174931E+04  0.7818608E-02  0.8528936E-01
         -2   -1    0    0    0  501 -0.00000000000E+00  0.00000000000E+00  0.45028055424E+03  0.45028055424E+03  0.00000000000E+00 0.  1.
          2   -1    0    0  501    0  0.00000000000E+00 -0.00000000000E+00 -0.26263199088E+04  0.26263199088E+04  0.00000000000E+00 0. -1.
         23    2    1    2    0    0  0.97977691213E+03 -0.26906519334E+03 -0.54927885369E+03  0.11586044768E+04  0.91094450110E+02 0.  0.
         13    1    3    3    0    0  0.33971920185E+03 -0.49327008184E+02 -0.19320181806E+03  0.39391526036E+03  0.00000000000E+00 0.  1.
        -13    1    3    3    0    0  0.64005771028E+03 -0.21973818516E+03 -0.35607703562E+03  0.76468921648E+03  0.00000000000E+00 0. -1.
         22    1    1    2    0    0 -0.97977691213E+03  0.26906519334E+03 -0.16267605009E+04  0.19179959862E+04  0.00000000000E+00 0. -1.
<mgrwt>
<rscale>  0 0.21749306E+04</rscale>
<asrwt>0</asrwt>
<pdfrwt beam="1">  1        2 0.40404922E+00 0.21749306E+04</pdfrwt>
<pdfrwt beam="2">  1       -2 0.69273931E-01 0.21749306E+04</pdfrwt>
<totfact> 0.51168604E+00</totfact>
</mgrwt>
</event>
<event>
 6    1  0.1028026E-006  0.6180556E+04  0.7818608E-02  0.7668409E-01
         -2   -1    0    0    0  501 -0.00000000000E+00  0.00000000000E+00  0.47861057866E+04  0.47861057866E+04  0.00000000000E+00 0.  1.
          2   -1    0    0  501    0  0.00000000000E+00 -0.00000000000E+00 -0.19953212095E+04  0.19953212095E+04  0.00000000000E+00 0. -1.
         23    2    1    2    0    0 -0.15951992129E+04  0.10126695150E+04  0.40778290576E+04  0.44952416208E+04  0.91363730141E+02 0.  0.
         11    1    3    3    0    0 -0.93616720382E+03  0.54089213720E+03  0.23385158557E+04  0.25763597856E+04  0.00000000000E+00 0. -1.
        -11    1    3    3    0    0 -0.65903200903E+03  0.47177737781E+03  0.17393132019E+04  0.19188818352E+04  0.00000000000E+00 0.  1.
         22    1    1    2    0    0  0.15951992129E+04 -0.10126695150E+04 -0.12870444805E+04  0.22861853753E+04  0.00000000000E+00 0. -1.
<mgrwt>
<rscale>  0 0.61805561E+04</rscale>
<asrwt>0</asrwt>
<pdfrwt beam="1">  1        2 0.30697250E+00 0.61805561E+04</pdfrwt>
<pdfrwt beam="2">  1       -2 0.73632396E+00 0.61805561E+04</pdfrwt>
<totfact> 0.74550839E-04</totfact>
</mgrwt>
</event>
<event>
 6    1  0.1028026E-006  0.1615577E+04  0.7818608E-02  0.8811035E-01
          1   -1    0    0  501    0  0.00000000000E+00  0.00000000000E+00  0.56415892479E+03  0.56415892479E+03  0.00000000000E+00 0. -1.
         -1   -1    0    0    0  501 -0.00000000000E+00 -0.00000000000E+00 -0.11566283264E+04  0.11566283264E+04  0.00000000000E+00 0.  1.
         23    2    1    2    0    0 -0.52096001146E+03 -0.44442573819E+03  0.15400755597E+03  0.70780086504E+03  0.91379248003E+02 0.  0.
         11    1    3    3    0    0 -0.21056246162E+03 -0.21650927134E+03  0.31283830757E+02  0.30363052034E+03  0.00000000000E+00 0.  1.
        -11    1    3    3    0    0 -0.31039754984E+03 -0.22791646685E+03  0.12272372521E+03  0.40417034470E+03  0.00000000000E+00 0. -1.
         22    1    1    2    0    0  0.52096001146E+03  0.44442573819E+03 -0.74647695755E+03  0.10129863861E+04  0.00000000000E+00 0.  1.
<mgrwt>
<rscale>  0 0.16155769E+04</rscale>
<asrwt>0</asrwt>
<pdfrwt beam="1">  1        1 0.86793681E-01 0.16155769E+04</pdfrwt>
<pdfrwt beam="2">  1       -1 0.17794282E+00 0.16155769E+04</pdfrwt>
<totfact> 0.77202041E+00</totfact>
</mgrwt>
</event>
<event>
 6    1  0.1028026E-006  0.2093863E+04  0.7818608E-02  0.8563952E-01
          3   -1    0    0  501    0  0.00000000000E+00  0.00000000000E+00  0.48268060490E+03  0.48268060490E+03  0.00000000000E+00 0. -1.
         -3   -1    0    0    0  501 -0.00000000000E+00 -0.00000000000E+00 -0.22707882003E+04  0.22707882003E+04  0.00000000000E+00 0.  1.
         23    2    1    2    0    0 -0.87203713759E+03  0.57506323317E+03 -0.86492099061E+03  0.13594028101E+04  0.93494323616E+02 0.  0.
         11    1    3    3    0    0 -0.50698966715E+03  0.38800989135E+03 -0.51548941772E+03  0.82056050243E+03  0.00000000000E+00 0.  1.
        -11    1    3    3    0    0 -0.36504747044E+03  0.18705334183E+03 -0.34943157290E+03  0.53884230764E+03  0.00000000000E+00 0. -1.
         22    1    1    2    0    0  0.87203713759E+03 -0.57506323317E+03 -0.92318660476E+03  0.13940659951E+04  0.00000000000E+00 0.  1.
<mgrwt>
<rscale>  0 0.20938629E+04</rscale>
<asrwt>0</asrwt>
<pdfrwt beam="1">  1        3 0.74258554E-01 0.20938629E+04</pdfrwt>
<pdfrwt beam="2">  1       -3 0.34935203E+00 0.20938629E+04</pdfrwt>
<totfact> 0.83505889E-02</totfact>
</mgrwt>
</event>
<event>
 6    1  0.1028026E-006  0.1039518E+04  0.7818608E-02  0.9266234E-01
         -2   -1    0    0    0  501 -0.00000000000E+00  0.00000000000E+00  0.35455628460E+03  0.35455628460E+03  0.00000000000E+00 0.  1.
          2   -1    0    0  501    0  0.00000000000E+00 -0.00000000000E+00 -0.76193622580E+03  0.76193622580E+03  0.00000000000E+00 0. -1.
         23    2    1    2    0    0  0.29566465429E+03  0.28554953733E+03 -0.53998518415E+03  0.68458942344E+03  0.90125210220E+02 0.  0.
         13    1    3    3    0    0  0.13002591830E+03  0.12713594650E+03 -0.31314239607E+03  0.36211662284E+03  0.00000000000E+00 0. -1.
        -13    1    3    3    0    0  0.16563873600E+03  0.15841359083E+03 -0.22684278808E+03  0.32247280060E+03  0.00000000000E+00 0.  1.
         22    1    1    2    0    0 -0.29566465429E+03 -0.28554953733E+03  0.13260524294E+03  0.43190308696E+03  0.00000000000E+00 0.  1.
<mgrwt>
<rscale>  0 0.10395177E+04</rscale>
<asrwt>0</asrwt>
<pdfrwt beam="1">  1        2 0.11722096E+00 0.10395177E+04</pdfrwt>
<pdfrwt beam="2">  1       -2 0.54547121E-01 0.10395177E+04</pdfrwt>
<totfact> 0.11578949E+02</totfact>
</mgrwt>
</event>
<event>
 6    1  0.1028026E-006  0.9447119E+03  0.7818608E-02  0.9371353E-01
          2   -1    0    0  501    0  0.00000000000E+00  0.00000000000E+00  0.11416147408E+04  0.11416147408E+04  0.00000000000E+00 0. -1.
         -2   -1    0    0    0  501 -0.00000000000E+00 -0.00000000000E+00 -0.19544259746E+03  0.19544259746E+03  0.00000000000E+00 0.  1.
         23    2    1    2    0    0 -0.39324246360E+03  0.24705554523E+03  0.55982834671E+03  0.73295667876E+03  0.90231023237E+02 0.  0.
         13    1    3    3    0    0 -0.12269992400E+03  0.36101517845E+02  0.12227073982E+03  0.17694271604E+03  0.00000000000E+00 0.  1.
        -13    1    3    3    0    0 -0.27054253959E+03  0.21095402738E+03  0.43755760689E+03  0.55601396273E+03  0.00000000000E+00 0. -1.
         22    1    1    2    0    0  0.39324246360E+03 -0.24705554523E+03  0.38634379661E+03  0.60410065948E+03  0.00000000000E+00 0.  1.
<mgrwt>
<rscale>  0 0.94471191E+03</rscale>
<asrwt>0</asrwt>
<pdfrwt beam="1">  1        2 0.17563303E+00 0.94471191E+03</pdfrwt>
<pdfrwt beam="2">  1       -2 0.30068092E-01 0.94471191E+03</pdfrwt>
<totfact> 0.20962611E+02</totfact>
</mgrwt>
</event>
<event>
 6    1  0.1028026E-006  0.3096663E+04  0.7818608E-02  0.8216654E-01
          1   -1    0    0  501    0  0.00000000000E+00  0.00000000000E+00  0.29829327472E+04  0.29829327472E+04  0.00000000000E+00 0. -1.
         -1   -1    0    0    0  501 -0.00000000000E+00 -0.00000000000E+00 -0.80368218196E+03  0.80368218196E+03  0.00000000000E+00 0.  1.
         23    2    1    2    0    0 -0.10530232347E+04  0.93617102618E+03  0.18714740835E+04  0.23443942505E+04  0.92168506235E+02 0.  0.
         13    1    3    3    0    0 -0.17394781149E+03  0.14810046479E+03  0.36197809895E+03  0.42804174202E+03  0.00000000000E+00 0. -1.
        -13    1    3    3    0    0 -0.87907542325E+03  0.78807056138E+03  0.15094959845E+04  0.19163525085E+04  0.00000000000E+00 0.  1.
         22    1    1    2    0    0  0.10530232347E+04 -0.93617102618E+03  0.30777648174E+03  0.14422206786E+04  0.00000000000E+00 0.  1.
<mgrwt>
<rscale>  0 0.30966627E+04</rscale>
<asrwt>0</asrwt>
<pdfrwt beam="1">  1        1 0.45891272E+00 0.30966627E+04</pdfrwt>
<pdfrwt beam="2">  1       -1 0.12364341E+00 0.30966627E+04</pdfrwt>
<totfact> 0.29832197E-01</totfact>
</mgrwt>
</event>
<event>
 6    1  0.1028026E-006  0.2647124E+04  0.7818608E-02  0.8352368E-01
          2   -1    0    0  501    0  0.00000000000E+00  0.00000000000E+00  0.22251935536E+04  0.22251935536E+04  0.00000000000E+00 0. -1.
         -2   -1    0    0    0  501 -0.00000000000E+00 -0.00000000000E+00 -0.78726497748E+03  0.78726497748E+03  0.00000000000E+00 0.  1.
         23    2    1    2    0    0 -0.88893873955E+03  0.68009210573E+03  0.15195097538E+04  0.18902317966E+04  0.10643776676E+03 0.  0.
         13    1    3    3    0    0 -0.47739881365E+03  0.37237486475E+03  0.73270623002E+03  0.95048991930E+03  0.00000000000E+00 0. -1.
        -13    1    3    3    0    0 -0.41153992589E+03  0.30771724098E+03  0.78680352376E+03  0.93974187733E+03  0.00000000000E+00 0.  1.
         22    1    1    2    0    0  0.88893873955E+03 -0.68009210573E+03 -0.81581177675E+02  0.11222267344E+04  0.00000000000E+00 0.  1.
<mgrwt>
<rscale>  0 0.26471244E+04</rscale>
<asrwt>0</asrwt>
<pdfrwt beam="1">  1        2 0.34233747E+00 0.26471244E+04</pdfrwt>
<pdfrwt beam="2">  1       -2 0.12111769E+00 0.26471244E+04</pdfrwt>
<totfact> 0.22847328E+00</totfact>
</mgrwt>
</event>
<event>
 6    1  0.1028026E-006  0.1914164E+04  0.7818608E-02  0.8647838E-01
         -2   -1    0    0    0  501 -0.00000000000E+00  0.00000000000E+00  0.60112615941E+03  0.60112615941E+03  0.00000000000E+00 0.  1.
          2   -1    0    0  501    0  0.00000000000E+00 -0.00000000000E+00 -0.15238158144E+04  0.15238158144E+04  0.00000000000E+00 0. -1.
         23    2    1    2    0    0 -0.73257696041E+02  0.77243025411E+03  0.15558044195E+03  0.79652878904E+03  0.90761502669E+02 0.  0.
         11    1    3    3    0    0 -0.82244773675E+02  0.38675273666E+03  0.79971834226E+02  0.40340720914E+03  0.00000000000E+00 0. -1.
        -11    1    3    3    0    0  0.89870776344E+01  0.38567751744E+03  0.75608607727E+02  0.39312157991E+03  0.00000000000E+00 0.  1.
         22    1    1    2    0    0  0.73257696041E+02 -0.77243025411E+03 -0.10782700969E+04  0.13284131847E+04  0.00000000000E+00 0. -1.
<mgrwt>
<rscale>  0 0.19141636E+04</rscale>
<asrwt>0</asrwt>
<pdfrwt beam="1">  1        2 0.23443320E+00 0.19141636E+04</pdfrwt>
<pdfrwt beam="2">  1       -2 0.92480948E-01 0.19141636E+04</pdfrwt>
<totfact> 0.11424906E+01</totfact>
</mgrwt>
</event>
<event>
 6    1  0.1028026E-006  0.2428159E+04  0.7818608E-02  0.8429036E-01
          2   -1    0    0  501    0  0.00000000000E+00  0.00000000000E+00  0.10321405454E+04  0.10321405454E+04  0.00000000000E+00 0. -1.
         -2   -1    0    0    0  501 -0.00000000000E+00 -0.00000000000E+00 -0.14280895841E+04  0.14280895841E+04  0.00000000000E+00 0.  1.
         23    2    1    2    0    0 -0.11685323842E+04 -0.23468295382E+02 -0.52436636876E+03  0.12844284011E+04  0.93688499927E+02 0.  0.
         11    1    3    3    0    0 -0.62734010518E+03 -0.24797061359E+02 -0.33089838597E+03  0.70969306299E+03  0.00000000000E+00 0. -1.
        -11    1    3    3    0    0 -0.54119227905E+03  0.13287659769E+01 -0.19346798279E+03  0.57473533813E+03  0.00000000000E+00 0.  1.
         22    1    1    2    0    0  0.11685323842E+04  0.23468295382E+02  0.12841733011E+03  0.11758017284E+04  0.00000000000E+00 0.  1.
<mgrwt>
<rscale>  0 0.24281591E+04</rscale>
<asrwt>0</asrwt>
<pdfrwt beam="1">  1        2 0.15879085E+00 0.24281591E+04</pdfrwt>
<pdfrwt beam="2">  1       -2 0.21970609E+00 0.24281591E+04</pdfrwt>
<totfact> 0.21391072E+00</totfact>
</mgrwt>
</event>
<event>
 6    1  0.1028026E-006  0.1919167E+04  0.7818608E-02  0.8645374E-01
         -2   -1    0    0    0  501 -0.00000000000E+00  0.00000000000E+00  0.85922352390E+03  0.85922352390E+03  0.00000000000E+00 0.  1.
          2   -1    0    0  501    0  0.00000000000E+00 -0.00000000000E+00 -0.10716652895E+04  0.10716652895E+04  0.00000000000E+00 0. -1.
         23    2    1    2    0    0  0.48597997058E+03  0.26737443673E+03 -0.89159136437E+03  0.10540137945E+04  0.91347122160E+02 0.  0.
         13    1    3    3    0    0  0.25038147529E+03  0.16697886052E+03 -0.41046399577E+03  0.50897300012E+03  0.00000000000E+00 0. -1.
        -13    1    3    3    0    0  0.23559849529E+03  0.10039557620E+03 -0.48112736860E+03  0.54504079436E+03  0.00000000000E+00 0.  1.
         22    1    1    2    0    0 -0.48597997058E+03 -0.26737443673E+03  0.67914959879E+03  0.87687501889E+03  0.00000000000E+00 0.  1.
<mgrwt>
<rscale>  0 0.19191665E+04</rscale>
<asrwt>0</asrwt>
<pdfrwt beam="1">  1        2 0.16487158E+00 0.19191665E+04</pdfrwt>
<pdfrwt beam="2">  1       -2 0.13218823E+00 0.19191665E+04</pdfrwt>
<totfact> 0.88319729E+00</totfact>
</mgrwt>
</event>
<event>
 6    1  0.1028026E-006  0.2733498E+04  0.7818608E-02  0.8324217E-01
         -1   -1    0    0    0  501 -0.00000000000E+00  0.00000000000E+00  0.23995336168E+04  0.23995336168E+04  0.00000000000E+00 0.  1.
          1   -1    0    0  501    0  0.00000000000E+00 -0.00000000000E+00 -0.77848594660E+03  0.77848594660E+03  0.00000000000E+00 0. -1.
         23    2    1    2    0    0  0.59058054926E+03  0.11757158072E+04  0.12344731013E+04  0.18066943131E+04  0.95537735217E+02 0.  0.
         11    1    3    3    0    0  0.17882838127E+03  0.45729295857E+03  0.47061054992E+03  0.68012552488E+03  0.00000000000E+00 0. -1.
        -11    1    3    3    0    0  0.41175216799E+03  0.71842284867E+03  0.76386255135E+03  0.11265687883E+04  0.00000000000E+00 0.  1.
         22    1    1    2    0    0 -0.59058054926E+03 -0.11757158072E+04  0.38657456891E+03  0.13713252502E+04  0.00000000000E+00 0. -1.
<mgrwt>
<rscale>  0 0.27334983E+04</rscale>
<asrwt>0</asrwt>
<pdfrwt beam="1">  1        1 0.11976707E+00 0.27334983E+04</pdfrwt>
<pdfrwt beam="2">  1       -1 0.36915902E+00 0.27334983E+04</pdfrwt>
<totfact> 0.23272656E-01</totfact>
</mgrwt>
</event>
<event>
 6    1  0.1028026E-006  0.2325061E+04  0.7818608E-02  0.8468105E-01
          2   -1    0    0  501    0  0.00000000000E+00  0.00000000000E+00  0.11434705374E+04  0.11434705374E+04  0.00000000000E+00 0. -1.
         -2   -1    0    0    0  501 -0.00000000000E+00 -0.00000000000E+00 -0.11819076934E+04  0.11819076934E+04  0.00000000000E+00 0.  1.
         23    2    1    2    0    0  0.45166216583E+03 -0.10692030543E+04 -0.12572710934E+02  0.11644032729E+04  0.92103341088E+02 0.  0.
         11    1    3    3    0    0  0.42032775522E+03 -0.95827681756E+03  0.12313007332E+02  0.10464805259E+04  0.00000000000E+00 0.  1.
        -11    1    3    3    0    0  0.31334410616E+02 -0.11092623673E+03 -0.24885718267E+02  0.11792274699E+03  0.00000000000E+00 0. -1.
         22    1    1    2    0    0 -0.45166216583E+03  0.10692030543E+04 -0.25864445080E+02  0.11609749579E+04  0.00000000000E+00 0.  1.
<mgrwt>
<rscale>  0 0.23250605E+04</rscale>
<asrwt>0</asrwt>
<pdfrwt beam="1">  1        2 0.17591854E+00 0.23250605E+04</pdfrwt>
<pdfrwt beam="2">  1       -2 0.18183195E+00 0.23250605E+04</pdfrwt>
<totfact> 0.32648369E+00</totfact>
</mgrwt>
</event>
<event>
 6    1  0.1028026E-006  0.4295260E+04  0.7818608E-02  0.7947495E-01
         -1   -1    0    0    0  501 -0.00000000000E+00  0.00000000000E+00  0.14474376705E+04  0.14474376705E+04  0.00000000000E+00 0.  1.
          1   -1    0    0  501    0  0.00000000000E+00 -0.00000000000E+00 -0.31865379109E+04  0.31865379109E+04  0.00000000000E+00 0. -1.
         23    2    1    2    0    0  0.39579327278E+03 -0.96755752416E+03  0.11526547903E+04  0.15590663088E+04  0.96201935209E+02 0.  0.
         13    1    3    3    0    0  0.23475022243E+03 -0.46931917563E+03  0.53636718653E+03  0.75037185070E+03  0.00000000000E+00 0.  1.
        -13    1    3    3    0    0  0.16104305035E+03 -0.49823834853E+03  0.61628760380E+03  0.80869445813E+03  0.00000000000E+00 0. -1.
         22    1    1    2    0    0 -0.39579327278E+03  0.96755752416E+03 -0.28917550307E+04  0.30749092726E+04  0.00000000000E+00 0. -1.
<mgrwt>
<rscale>  0 0.42952602E+04</rscale>
<asrwt>0</asrwt>
<pdfrwt beam="1">  1        1 0.49023660E+00 0.42952602E+04</pdfrwt>
<pdfrwt beam="2">  1       -1 0.22268272E+00 0.42952602E+04</pdfrwt>
<totfact> 0.35076667E-02</totfact>
</mgrwt>
</event>
<event>
 6    1  0.1028026E-006  0.1678944E+04  0.7818608E-02  0.8773465E-01
         -1   -1    0    0    0  501 -0.00000000000E+00  0.00000000000E+00  0.47350342756E+03  0.47350342756E+03  0.00000000000E+00 0.  1.
          1   -1    0    0  501    0  0.00000000000E+00 -0.00000000000E+00 -0.14882954380E+04  0.14882954380E+04  0.00000000000E+00 0. -1.
         23    2    1    2    0    0  0.54467551345E+02  0.82092214549E+03 -0.32861524009E+03  0.89048264555E+03  0.89952670307E+02 0.  0.
         11    1    3    3    0    0  0.14342904133E+02  0.67675415284E+03 -0.25135032548E+03  0.72206570920E+03  0.00000000000E+00 0. -1.
        -11    1    3    3    0    0  0.40124647212E+02  0.14416799266E+03 -0.77264914610E+02  0.16841693635E+03  0.00000000000E+00 0.  1.
         22    1    1    2    0    0 -0.54467551345E+02 -0.82092214549E+03 -0.68617677036E+03  0.10713162200E+04  0.00000000000E+00 0. -1.
<mgrwt>
<rscale>  0 0.16789437E+04</rscale>
<asrwt>0</asrwt>
<pdfrwt beam="1">  1        1 0.22896853E+00 0.16789437E+04</pdfrwt>
<pdfrwt beam="2">  1       -1 0.72846681E-01 0.16789437E+04</pdfrwt>
<totfact> 0.12071745E+01</totfact>
</mgrwt>
</event>
<event>
 6    1  0.1028026E-006  0.2840020E+04  0.7818608E-02  0.8290950E-01
         -1   -1    0    0    0  501 -0.00000000000E+00  0.00000000000E+00  0.15873924097E+04  0.15873924097E+04  0.00000000000E+00 0.  1.
          1   -1    0    0  501    0  0.00000000000E+00 -0.00000000000E+00 -0.12702770149E+04  0.12702770149E+04  0.00000000000E+00 0. -1.
         23    2    1    2    0    0 -0.13087751257E+04  0.54687866669E+03  0.13885104433E+03  0.14280727037E+04  0.90240948698E+02 0.  0.
         13    1    3    3    0    0 -0.67308910341E+03  0.26969422146E+03  0.11500595992E+03  0.73417319826E+03  0.00000000000E+00 0. -1.
        -13    1    3    3    0    0 -0.63568602228E+03  0.27718444523E+03  0.23845084405E+02  0.69389950544E+03  0.00000000000E+00 0.  1.
         22    1    1    2    0    0  0.13087751257E+04 -0.54687866669E+03  0.17826435050E+03  0.14295967209E+04  0.00000000000E+00 0. -1.
<mgrwt>
<rscale>  0 0.28400198E+04</rscale>
<asrwt>0</asrwt>
<pdfrwt beam="1">  1        1 0.19542723E+00 0.28400198E+04</pdfrwt>
<pdfrwt beam="2">  1       -1 0.24421422E+00 0.28400198E+04</pdfrwt>
<totfact> 0.62356625E-01</totfact>
</mgrwt>
</event>
<event>
 6    1  0.1028026E-006  0.3414657E+04  0.7818608E-02  0.8134318E-01
         -2   -1    0    0    0  501 -0.00000000000E+00  0.00000000000E+00  0.19767704972E+04  0.19767704972E+04  0.00000000000E+00 0.  1.
          2   -1    0    0  501    0  0.00000000000E+00 -0.00000000000E+00 -0.14746126675E+04  0.14746126675E+04  0.00000000000E+00 0. -1.
         23    2    1    2    0    0 -0.11540572009E+04 -0.67615151858E+03  0.13218609024E+04  0.18826441723E+04  0.89464714340E+02 0.  0.
         11    1    3    3    0    0 -0.49256397075E+03 -0.28686381035E+03  0.62585849641E+03  0.84652759464E+03  0.00000000000E+00 0. -1.
        -11    1    3    3    0    0 -0.66149323012E+03 -0.38928770823E+03  0.69600240601E+03  0.10361165776E+04  0.00000000000E+00 0.  1.
         22    1    1    2    0    0  0.11540572009E+04  0.67615151858E+03 -0.81970307271E+03  0.15687389924E+04  0.00000000000E+00 0. -1.
<mgrwt>
<rscale>  0 0.34146571E+04</rscale>
<asrwt>0</asrwt>
<pdfrwt beam="1">  1        2 0.22686349E+00 0.34146571E+04</pdfrwt>
<pdfrwt beam="2">  1       -2 0.30411854E+00 0.34146571E+04</pdfrwt>
<totfact> 0.32554535E-01</totfact>
</mgrwt>
</event>
<event>
 6    1  0.1028026E-006  0.3452157E+04  0.7818608E-02  0.8125223E-01
          2   -1    0    0  501    0  0.00000000000E+00  0.00000000000E+00  0.21720781938E+04  0.21720781938E+04  0.00000000000E+00 0. -1.
         -2   -1    0    0    0  501 -0.00000000000E+00 -0.00000000000E+00 -0.13716576455E+04  0.13716576455E+04  0.00000000000E+00 0.  1.
         23    2    1    2    0    0  0.36192728589E+03  0.29552263158E+03  0.21047046660E+04  0.21582821065E+04  0.10037397109E+03 0.  0.
         13    1    3    3    0    0  0.31075744733E+01  0.32693287209E+02  0.12677310119E+03  0.13095773071E+03  0.00000000000E+00 0. -1.
        -13    1    3    3    0    0  0.35881971142E+03  0.26282934437E+03  0.19779315648E+04  0.20273243758E+04  0.00000000000E+00 0.  1.
         22    1    1    2    0    0 -0.36192728589E+03 -0.29552263158E+03 -0.13042841177E+04  0.13854537328E+04  0.00000000000E+00 0.  1.
<mgrwt>
<rscale>  0 0.34521574E+04</rscale>
<asrwt>0</asrwt>
<pdfrwt beam="1">  1        2 0.33416588E+00 0.34521574E+04</pdfrwt>
<pdfrwt beam="2">  1       -2 0.21102425E+00 0.34521574E+04</pdfrwt>
<totfact> 0.49813647E-01</totfact>
</mgrwt>
</event>
<event>
 6    1  0.1028026E-006  0.4035271E+04  0.7818608E-02  0.7997469E-01
          2   -1    0    0  501    0  0.00000000000E+00  0.00000000000E+00  0.29219508081E+04  0.29219508081E+04  0.00000000000E+00 0. -1.
         -2   -1    0    0    0  501 -0.00000000000E+00 -0.00000000000E+00 -0.13931972354E+04  0.13931972354E+04  0.00000000000E+00 0.  1.
         23    2    1    2    0    0  0.61206995178E+03 -0.17887056701E+04  0.15154069518E+04  0.24245725405E+04  0.89421331240E+02 0.  0.
         13    1    3    3    0    0  0.20435123578E+03 -0.51999271700E+03  0.40678186374E+03  0.69110298651E+03  0.00000000000E+00 0.  1.
        -13    1    3    3    0    0  0.40771871600E+03 -0.12687129531E+04  0.11086250880E+04  0.17334695540E+04  0.00000000000E+00 0. -1.
         22    1    1    2    0    0 -0.61206995178E+03  0.17887056701E+04  0.13346620879E+02  0.18905755030E+04  0.00000000000E+00 0. -1.
<mgrwt>
<rscale>  0 0.40352714E+04</rscale>
<asrwt>0</asrwt>
<pdfrwt beam="1">  1        2 0.44953089E+00 0.40352714E+04</pdfrwt>
<pdfrwt beam="2">  1       -2 0.21433804E+00 0.40352714E+04</pdfrwt>
<totfact> 0.16443722E-01</totfact>
</mgrwt>
</event>
<event>
 6    1  0.1028026E-006  0.2347806E+04  0.7818608E-02  0.8459307E-01
         -2   -1    0    0    0  501 -0.00000000000E+00  0.00000000000E+00  0.10822819268E+04  0.10822819268E+04  0.00000000000E+00 0.  1.
          2   -1    0    0  501    0  0.00000000000E+00 -0.00000000000E+00 -0.12732805690E+04  0.12732805690E+04  0.00000000000E+00 0. -1.
         23    2    1    2    0    0  0.61539216442E+03 -0.92719777271E+03  0.27363728928E+03  0.11496231215E+04  0.91393269328E+02 0.  0.
         13    1    3    3    0    0  0.31579357325E+03 -0.52641995303E+03  0.11381836201E+03  0.62433818351E+03  0.00000000000E+00 0. -1.
        -13    1    3    3    0    0  0.29959859118E+03 -0.40077781967E+03  0.15981892727E+03  0.52528493800E+03  0.00000000000E+00 0.  1.
         22    1    1    2    0    0 -0.61539216442E+03  0.92719777271E+03 -0.46463593152E+03  0.12059393743E+04  0.00000000000E+00 0. -1.
<mgrwt>
<rscale>  0 0.23478063E+04</rscale>
<asrwt>0</asrwt>
<pdfrwt beam="1">  1        2 0.19588932E+00 0.23478063E+04</pdfrwt>
<pdfrwt beam="2">  1       -2 0.16650491E+00 0.23478063E+04</pdfrwt>
<totfact> 0.34947676E+00</totfact>
</mgrwt>
</event>
<event>
 6    1  0.1028026E-006  0.3969704E+04  0.7818608E-02  0.8010686E-01
          2   -1    0    0  501    0  0.00000000000E+00  0.00000000000E+00  0.18611855697E+04  0.18611855697E+04  0.00000000000E+00 0. -1.
         -2   -1    0    0    0  501 -0.00000000000E+00 -0.00000000000E+00 -0.21167354178E+04  0.21167354178E+04  0.00000000000E+00 0.  1.
         23    2    1    2    0    0 -0.80735154984E+03 -0.83221252431E+03  0.14851862847E+04  0.18863769419E+04  0.90804492198E+02 0.  0.
         11    1    3    3    0    0 -0.56429428315E+03 -0.52898952732E+03  0.95225582187E+03  0.12268044295E+04  0.00000000000E+00 0. -1.
        -11    1    3    3    0    0 -0.24305726669E+03 -0.30322299699E+03  0.53293046285E+03  0.65957251233E+03  0.00000000000E+00 0.  1.
         22    1    1    2    0    0  0.80735154984E+03  0.83221252431E+03 -0.17407361328E+04  0.20915440456E+04  0.00000000000E+00 0.  1.
<mgrwt>
<rscale>  0 0.39697040E+04</rscale>
<asrwt>0</asrwt>
<pdfrwt beam="1">  1        2 0.28633624E+00 0.39697040E+04</pdfrwt>
<pdfrwt beam="2">  1       -2 0.32565160E+00 0.39697040E+04</pdfrwt>
<totfact> 0.13938524E-01</totfact>
</mgrwt>
</event>
<event>
 6    1  0.1028026E-006  0.4861106E+04  0.7818608E-02  0.7850297E-01
         -2   -1    0    0    0  501 -0.00000000000E+00  0.00000000000E+00  0.31986747711E+04  0.31986747711E+04  0.00000000000E+00 0.  1.
          2   -1    0    0  501    0  0.00000000000E+00 -0.00000000000E+00 -0.18468863439E+04  0.18468863439E+04  0.00000000000E+00 0. -1.
         23    2    1    2    0    0 -0.65183309155E+03 -0.33646957110E+03  0.30803629239E+04  0.31677783954E+04  0.89922562961E+02 0.  0.
         11    1    3    3    0    0 -0.34169864598E+03 -0.22656067838E+03  0.17215192107E+04  0.17696655329E+04  0.00000000000E+00 0. -1.
        -11    1    3    3    0    0 -0.31013444557E+03 -0.10990889272E+03  0.13588437133E+04  0.13981128624E+04  0.00000000000E+00 0.  1.
         22    1    1    2    0    0  0.65183309155E+03  0.33646957110E+03 -0.17285744967E+04  0.18777827197E+04  0.00000000000E+00 0. -1.
<mgrwt>
<rscale>  0 0.48611064E+04</rscale>
<asrwt>0</asrwt>
<pdfrwt beam="1">  1        2 0.28413636E+00 0.48611064E+04</pdfrwt>
<pdfrwt beam="2">  1       -2 0.49210381E+00 0.48611064E+04</pdfrwt>
<totfact> 0.11116464E-02</totfact>
</mgrwt>
</event>
<event>
 6    1  0.1028026E-006  0.8305282E+03  0.7818608E-02  0.9516851E-01
         -1   -1    0    0    0  501 -0.00000000000E+00  0.00000000000E+00  0.37678921543E+03  0.37678921543E+03  0.00000000000E+00 0.  1.
          1   -1    0    0  501    0  0.00000000000E+00 -0.00000000000E+00 -0.45766773241E+03  0.45766773241E+03  0.00000000000E+00 0. -1.
         23    2    1    2    0    0 -0.84493973392E+02  0.90730770870E+02  0.35156704199E+03  0.38458978324E+03  0.94544233252E+02 0.  0.
         13    1    3    3    0    0  0.13741534945E+02  0.55386158300E+01  0.10305850889E+03  0.10411802103E+03  0.00000000000E+00 0.  1.
        -13    1    3    3    0    0 -0.98235508337E+02  0.85192155040E+02  0.24850853310E+03  0.28047176221E+03  0.00000000000E+00 0. -1.
         22    1    1    2    0    0  0.84493973392E+02 -0.90730770870E+02 -0.43244555896E+03  0.44986716460E+03  0.00000000000E+00 0. -1.
<mgrwt>
<rscale>  0 0.83052818E+03</rscale>
<asrwt>0</asrwt>
<pdfrwt beam="1">  1        1 0.70410420E-01 0.83052818E+03</pdfrwt>
<pdfrwt beam="2">  1       -1 0.57967572E-01 0.83052818E+03</pdfrwt>
<totfact> 0.15252171E+02</totfact>
</mgrwt>
</event>
<event>
 6    1  0.1028026E-006  0.1095823E+04  0.7818608E-02  0.9209273E-01
         -1   -1    0    0    0  501 -0.00000000000E+00  0.00000000000E+00  0.14039342448E+03  0.14039342448E+03  0.00000000000E+00 0.  1.
          1   -1    0    0  501    0  0.00000000000E+00 -0.00000000000E+00 -0.21383251757E+04  0.21383251757E+04  0.00000000000E+00 0. -1.
         23    2    1    2    0    0  0.24302024394E+03  0.20493430824E+03 -0.87604581749E+02  0.34212189357E+03  0.91191653426E+02 0.  0.
         11    1    3    3    0    0  0.11205949012E+03  0.11847717995E+03 -0.14114091690E+01  0.16308330255E+03  0.00000000000E+00 0. -1.
        -11    1    3    3    0    0  0.13096075382E+03  0.86457128291E+02 -0.86193172580E+02  0.17903859102E+03  0.00000000000E+00 0.  1.
         22    1    1    2    0    0 -0.24302024394E+03 -0.20493430824E+03 -0.19103271695E+04  0.19365967066E+04  0.00000000000E+00 0. -1.
<mgrwt>
<rscale>  0 0.10958226E+04</rscale>
<asrwt>0</asrwt>
<pdfrwt beam="1">  1        1 0.32897308E+00 0.10958226E+04</pdfrwt>
<pdfrwt beam="2">  1       -1 0.21598990E-01 0.10958226E+04</pdfrwt>
<totfact> 0.43177384E+01</totfact>
</mgrwt>
</event>
<event>
 6    1  0.1028026E-006  0.1551462E+04  0.7818608E-02  0.8850934E-01
          1   -1    0    0  501    0  0.00000000000E+00  0.00000000000E+00  0.14046957068E+04  0.14046957068E+04  0.00000000000E+00 0. -1.
         -1   -1    0    0    0  501 -0.00000000000E+00 -0.00000000000E+00 -0.42839080943E+03  0.42839080943E+03  0.00000000000E+00 0.  1.
         23    2    1    2    0    0  0.35039444528E+03  0.59954223885E+03  0.88417957368E+02  0.70589071175E+03  0.90756808579E+02 0.  0.
         13    1    3    3    0    0  0.27396690700E+03  0.38950503897E+03  0.46351584368E+02  0.47845638347E+03  0.00000000000E+00 0. -1.
        -13    1    3    3    0    0  0.76427538278E+02  0.21003719988E+03  0.42066373000E+02  0.22743432828E+03  0.00000000000E+00 0.  1.
         22    1    1    2    0    0 -0.35039444528E+03 -0.59954223885E+03  0.88788694004E+03  0.11271958045E+04  0.00000000000E+00 0. -1.
<mgrwt>
<rscale>  0 0.15514622E+04</rscale>
<asrwt>0</asrwt>
<pdfrwt beam="1">  1        1 0.21610703E+00 0.15514622E+04</pdfrwt>
<pdfrwt beam="2">  1       -1 0.65906279E-01 0.15514622E+04</pdfrwt>
<totfact> 0.17138314E+01</totfact>
</mgrwt>
</event>
<event>
 6    1  0.1028026E-006  0.2546152E+04  0.7818608E-02  0.8386726E-01
          1   -1    0    0  501    0  0.00000000000E+00  0.00000000000E+00  0.12766800240E+04  0.12766800240E+04  0.00000000000E+00 0. -1.
         -1   -1    0    0    0  501 -0.00000000000E+00 -0.00000000000E+00 -0.12694824031E+04  0.12694824031E+04  0.00000000000E+00 0.  1.
         23    2    1    2    0    0 -0.81843078293E+03  0.87070177401E+03  0.43775815863E+03  0.12759920045E+04  0.92589764357E+02 0.  0.
         11    1    3    3    0    0 -0.34398953949E+03  0.36950076742E+03  0.13651433306E+03  0.52296824333E+03  0.00000000000E+00 0. -1.
        -11    1    3    3    0    0 -0.47444124344E+03  0.50120100660E+03  0.30124382557E+03  0.75302376120E+03  0.00000000000E+00 0.  1.
         22    1    1    2    0    0  0.81843078293E+03 -0.87070177401E+03 -0.43056053776E+03  0.12701704226E+04  0.00000000000E+00 0.  1.
<mgrwt>
<rscale>  0 0.25461523E+04</rscale>
<asrwt>0</asrwt>
<pdfrwt beam="1">  1        1 0.19641231E+00 0.25461523E+04</pdfrwt>
<pdfrwt beam="2">  1       -1 0.19530499E+00 0.25461523E+04</pdfrwt>
<totfact> 0.13494959E+00</totfact>
</mgrwt>
</event>
<event>
 6    1  0.1028026E-006  0.6634607E+03  0.7818608E-02  0.9781844E-01
         -1   -1    0    0    0  501 -0.00000000000E+00  0.00000000000E+00  0.26213903476E+03  0.26213903476E+03  0.00000000000E+00 0.  1.
          1   -1    0    0  501    0  0.00000000000E+00 -0.00000000000E+00 -0.41979637476E+03  0.41979637476E+03  0.00000000000E+00 0. -1.
         23    2    1    2    0    0 -0.27369571912E+03 -0.15960755962E+03 -0.42641527016E+01  0.32992207218E+03  0.91904684107E+02 0.  0.
         13    1    3    3    0    0 -0.14478630903E+03 -0.13296012428E+03 -0.18877129680E+02  0.19747864684E+03  0.00000000000E+00 0. -1.
        -13    1    3    3    0    0 -0.12890941009E+03 -0.26647435334E+02  0.14612976978E+02  0.13244342534E+03  0.00000000000E+00 0.  1.
         22    1    1    2    0    0  0.27369571912E+03  0.15960755962E+03 -0.15339318730E+03  0.35201333734E+03  0.00000000000E+00 0. -1.
<mgrwt>
<rscale>  0 0.66346067E+03</rscale>
<asrwt>0</asrwt>
<pdfrwt beam="1">  1        1 0.64584057E-01 0.66346067E+03</pdfrwt>
<pdfrwt beam="2">  1       -1 0.40329083E-01 0.66346067E+03</pdfrwt>
<totfact> 0.34175703E+02</totfact>
</mgrwt>
</event>
<event>
 6    1  0.1028026E-006  0.3628422E+04  0.7818608E-02  0.8084012E-01
         -1   -1    0    0    0  501 -0.00000000000E+00  0.00000000000E+00  0.92891771259E+03  0.92891771259E+03  0.00000000000E+00 0.  1.
          1   -1    0    0  501    0  0.00000000000E+00 -0.00000000000E+00 -0.35432214634E+04  0.35432214634E+04  0.00000000000E+00 0. -1.
         23    2    1    2    0    0 -0.16202399483E+04 -0.22895653929E+03 -0.22705938295E+04  0.28000939920E+04  0.85623821734E+02 0.  0.
         11    1    3    3    0    0 -0.12916109164E+04 -0.21469126335E+03 -0.18360784482E+04  0.22551131160E+04  0.00000000000E+00 0. -1.
        -11    1    3    3    0    0 -0.32862903189E+03 -0.14265275943E+02 -0.43451538129E+03  0.54498087606E+03  0.00000000000E+00 0.  1.
         22    1    1    2    0    0  0.16202399483E+04  0.22895653929E+03 -0.34370992131E+03  0.16720451839E+04  0.00000000000E+00 0.  1.
<mgrwt>
<rscale>  0 0.36284218E+04</rscale>
<asrwt>0</asrwt>
<pdfrwt beam="1">  1        1 0.54511099E+00 0.36284218E+04</pdfrwt>
<pdfrwt beam="2">  1       -1 0.14291042E+00 0.36284218E+04</pdfrwt>
<totfact> 0.73893829E-02</totfact>
</mgrwt>
</event>
<event>
 6    1  0.1028026E-006  0.2962357E+04  0.7818608E-02  0.8254562E-01
          2   -1    0    0  501    0  0.00000000000E+00  0.00000000000E+00  0.31794246490E+04  0.31794246490E+04  0.00000000000E+00 0. -1.
         -2   -1    0    0    0  501 -0.00000000000E+00 -0.00000000000E+00 -0.69002742131E+03  0.69002742131E+03  0.00000000000E+00 0.  1.
         23    2    1    2    0    0  0.68655924316E+03  0.22276894081E+03 -0.44148425012E+03  0.85099951440E+03  0.91116601369E+02 0.  0.
         13    1    3    3    0    0  0.12958409524E+03  0.22217669635E+02 -0.11658491414E+03  0.17572053036E+03  0.00000000000E+00 0. -1.
        -13    1    3    3    0    0  0.55697514792E+03  0.20055127117E+03 -0.32489933598E+03  0.67527898404E+03  0.00000000000E+00 0.  1.
         22    1    1    2    0    0 -0.68655924316E+03 -0.22276894081E+03  0.29308814778E+04  0.30184525559E+04  0.00000000000E+00 0. -1.
<mgrwt>
<rscale>  0 0.29623573E+04</rscale>
<asrwt>0</asrwt>
<pdfrwt beam="1">  1        2 0.48914225E+00 0.29623573E+04</pdfrwt>
<pdfrwt beam="2">  1       -2 0.10615807E+00 0.29623573E+04</pdfrwt>
<totfact> 0.82164672E-01</totfact>
</mgrwt>
</event>
<event>
 6    1  0.1028026E-006  0.1702469E+04  0.7818608E-02  0.8759958E-01
          2   -1    0    0  501    0  0.00000000000E+00  0.00000000000E+00  0.18817866999E+04  0.18817866999E+04  0.00000000000E+00 0. -1.
         -2   -1    0    0    0  501 -0.00000000000E+00 -0.00000000000E+00 -0.38505954890E+03  0.38505954890E+03  0.00000000000E+00 0.  1.
         23    2    1    2    0    0 -0.77153551515E+03  0.55429607994E+02  0.28419809368E+03  0.82859515549E+03  0.86382189522E+02 0.  0.
         11    1    3    3    0    0 -0.27135456329E+03  0.58744464618E+02  0.11572294054E+03  0.30079230393E+03  0.00000000000E+00 0.  1.
        -11    1    3    3    0    0 -0.50018095186E+03 -0.33148566243E+01  0.16847515315E+03  0.52780285155E+03  0.00000000000E+00 0. -1.
         22    1    1    2    0    0  0.77153551515E+03 -0.55429607994E+02  0.12125290573E+04  0.14382510933E+04  0.00000000000E+00 0. -1.
<mgrwt>
<rscale>  0 0.17024687E+04</rscale>
<asrwt>0</asrwt>
<pdfrwt beam="1">  1        2 0.28950564E+00 0.17024687E+04</pdfrwt>
<pdfrwt beam="2">  1       -2 0.59239932E-01 0.17024687E+04</pdfrwt>
<totfact> 0.19673458E+01</totfact>
</mgrwt>
</event>
<event>
 6    1  0.1028026E-006  0.4230978E+04  0.7818608E-02  0.7959506E-01
         -1   -1    0    0    0  501 -0.00000000000E+00  0.00000000000E+00  0.10703274765E+04  0.10703274765E+04  0.00000000000E+00 0.  1.
          1   -1    0    0  501    0  0.00000000000E+00 -0.00000000000E+00 -0.41812371512E+04  0.41812371512E+04  0.00000000000E+00 0. -1.
         23    2    1    2    0    0 -0.27706289029E+03  0.20763829288E+04 -0.19130115256E+04  0.28384566965E+04  0.95359364895E+02 0.  0.
         11    1    3    3    0    0 -0.64674681645E+02  0.65909634000E+03 -0.65641148480E+03  0.93245205626E+03  0.00000000000E+00 0. -1.
        -11    1    3    3    0    0 -0.21238820864E+03  0.14172865888E+04 -0.12566000408E+04  0.19060046402E+04  0.00000000000E+00 0.  1.
         22    1    1    2    0    0  0.27706289029E+03 -0.20763829288E+04 -0.11978981490E+04  0.24131079312E+04  0.00000000000E+00 0. -1.
<mgrwt>
<rscale>  0 0.42309777E+04</rscale>
<asrwt>0</asrwt>
<pdfrwt beam="1">  1        1 0.64326725E+00 0.42309777E+04</pdfrwt>
<pdfrwt beam="2">  1       -1 0.16466577E+00 0.42309777E+04</pdfrwt>
<totfact> 0.13569351E-02</totfact>
</mgrwt>
</event>
<event>
 6    1  0.1028026E-006  0.2406365E+04  0.7818608E-02  0.8437125E-01
         -1   -1    0    0    0  501 -0.00000000000E+00  0.00000000000E+00  0.14889206095E+04  0.14889206095E+04  0.00000000000E+00 0.  1.
          1   -1    0    0  501    0  0.00000000000E+00 -0.00000000000E+00 -0.97228013890E+03  0.97228013890E+03  0.00000000000E+00 0. -1.
         23    2    1    2    0    0  0.10657785249E+04  0.23961325704E+03  0.76996001832E+03  0.13398314201E+04  0.94928537912E+02 0.  0.
         11    1    3    3    0    0  0.52569233207E+03  0.15537150211E+03  0.34812575603E+03  0.64937221505E+03  0.00000000000E+00 0.  1.
        -11    1    3    3    0    0  0.54008619286E+03  0.84241754931E+02  0.42183426228E+03  0.69045920504E+03  0.00000000000E+00 0. -1.
         22    1    1    2    0    0 -0.10657785249E+04 -0.23961325704E+03 -0.25331954773E+03  0.11213693283E+04  0.00000000000E+00 0. -1.
<mgrwt>
<rscale>  0 0.24063648E+04</rscale>
<asrwt>0</asrwt>
<pdfrwt beam="1">  1        1 0.14958156E+00 0.24063648E+04</pdfrwt>
<pdfrwt beam="2">  1       -1 0.22906471E+00 0.24063648E+04</pdfrwt>
<totfact> 0.13644319E+00</totfact>
</mgrwt>
</event>
<event>
 6    1  0.1028026E-006  0.1353431E+04  0.7818608E-02  0.8988235E-01
         -1   -1    0    0    0  501 -0.00000000000E+00  0.00000000000E+00  0.61474562934E+03  0.61474562934E+03  0.00000000000E+00 0.  1.
          1   -1    0    0  501    0  0.00000000000E+00 -0.00000000000E+00 -0.74493207029E+03  0.74493207029E+03  0.00000000000E+00 0. -1.
         23    2    1    2    0    0  0.35736802036E+03 -0.48029402077E+03 -0.37534235484E+03  0.71276528633E+03  0.93585371156E+02 0.  0.
         13    1    3    3    0    0  0.83343767612E+02 -0.13005876844E+03 -0.14539975311E+03  0.21213805659E+03  0.00000000000E+00 0. -1.
        -13    1    3    3    0    0  0.27402425275E+03 -0.35023525233E+03 -0.22994260173E+03  0.50062722975E+03  0.00000000000E+00 0.  1.
         22    1    1    2    0    0 -0.35736802036E+03  0.48029402077E+03  0.24515591390E+03  0.64691241330E+03  0.00000000000E+00 0.  1.
<mgrwt>
<rscale>  0 0.13534308E+04</rscale>
<asrwt>0</asrwt>
<pdfrwt beam="1">  1        1 0.11460493E+00 0.13534308E+04</pdfrwt>
<pdfrwt beam="2">  1       -1 0.94576251E-01 0.13534308E+04</pdfrwt>
<totfact> 0.26210812E+01</totfact>
</mgrwt>
</event>
<event>
 6    1  0.1028026E-006  0.2462762E+04  0.7818608E-02  0.8416373E-01
          2   -1    0    0  501    0  0.00000000000E+00  0.00000000000E+00  0.23982785913E+04  0.23982785913E+04  0.00000000000E+00 0. -1.
         -2   -1    0    0    0  501 -0.00000000000E+00 -0.00000000000E+00 -0.63224488585E+03  0.63224488585E+03  0.00000000000E+00 0.  1.
         23    2    1    2    0    0  0.77101334876E+03  0.47212079175E+03  0.19102907119E+04  0.21150073878E+04  0.81768088468E+02 0.  0.
         13    1    3    3    0    0  0.29563066158E+03  0.20336993567E+03  0.84067595721E+03  0.91405299837E+03  0.00000000000E+00 0. -1.
        -13    1    3    3    0    0  0.47538268718E+03  0.26875085608E+03  0.10696147547E+04  0.12009543894E+04  0.00000000000E+00 0.  1.
         22    1    1    2    0    0 -0.77101334876E+03 -0.47212079175E+03 -0.14425700648E+03  0.91551608936E+03  0.00000000000E+00 0.  1.
<mgrwt>
<rscale>  0 0.24627622E+04</rscale>
<asrwt>0</asrwt>
<pdfrwt beam="1">  1        2 0.36896593E+00 0.24627622E+04</pdfrwt>
<pdfrwt beam="2">  1       -2 0.97268445E-01 0.24627622E+04</pdfrwt>
<totfact> 0.31428427E+00</totfact>
</mgrwt>
</event>
<event>
 6    1  0.1028026E-006  0.9489471E+03  0.7818608E-02  0.9366382E-01
          1   -1    0    0  501    0  0.00000000000E+00  0.00000000000E+00  0.94287333369E+03  0.94287333369E+03  0.00000000000E+00 0. -1.
         -1   -1    0    0    0  501 -0.00000000000E+00 -0.00000000000E+00 -0.23876500892E+03  0.23876500892E+03  0.00000000000E+00 0.  1.
         23    2    1    2    0    0 -0.41931937123E+03  0.12977174774E+03  0.56313124813E+03  0.72061342166E+03  0.97454908827E+02 0.  0.
         11    1    3    3    0    0 -0.22590136672E+03  0.28284783651E+02  0.24220388731E+03  0.33240664779E+03  0.00000000000E+00 0.  1.
        -11    1    3    3    0    0 -0.19341800451E+03  0.10148696409E+03  0.32092736082E+03  0.38820677387E+03  0.00000000000E+00 0. -1.
         22    1    1    2    0    0  0.41931937123E+03 -0.12977174774E+03  0.14097707664E+03  0.46102492095E+03  0.00000000000E+00 0.  1.
<mgrwt>
<rscale>  0 0.94894712E+03</rscale>
<asrwt>0</asrwt>
<pdfrwt beam="1">  1        1 0.14505743E+00 0.94894712E+03</pdfrwt>
<pdfrwt beam="2">  1       -1 0.36733079E-01 0.94894712E+03</pdfrwt>
<totfact> 0.11995323E+02</totfact>
</mgrwt>
</event>
<event>
 6    1  0.1028026E-006  0.2901859E+04  0.7818608E-02  0.8272325E-01
          2   -1    0    0  501    0  0.00000000000E+00  0.00000000000E+00  0.15849431507E+04  0.15849431507E+04  0.00000000000E+00 0. -1.
         -2   -1    0    0    0  501 -0.00000000000E+00 -0.00000000000E+00 -0.13282470613E+04  0.13282470613E+04  0.00000000000E+00 0.  1.
         23    2    1    2    0    0  0.99791410983E+03 -0.27168560109E+03  0.11483911377E+04  0.15476259712E+04  0.81843175181E+02 0.  0.
         11    1    3    3    0    0  0.55543855544E+03 -0.18770015819E+03  0.67944884345E+03  0.89743750151E+03  0.00000000000E+00 0.  1.
        -11    1    3    3    0    0  0.44247555440E+03 -0.83985442903E+02  0.46894229420E+03  0.65018846971E+03  0.00000000000E+00 0. -1.
         22    1    1    2    0    0 -0.99791410983E+03  0.27168560109E+03 -0.89169504833E+03  0.13655642408E+04  0.00000000000E+00 0.  1.
<mgrwt>
<rscale>  0 0.29018588E+04</rscale>
<asrwt>0</asrwt>
<pdfrwt beam="1">  1        2 0.24383741E+00 0.29018588E+04</pdfrwt>
<pdfrwt beam="2">  1       -2 0.20434570E+00 0.29018588E+04</pdfrwt>
<totfact> 0.12224696E+00</totfact>
</mgrwt>
</event>
<event>
 6    1  0.1028026E-006  0.1320644E+04  0.7818608E-02  0.9013353E-01
          2   -1    0    0  501    0  0.00000000000E+00  0.00000000000E+00  0.20012988174E+04  0.20012988174E+04  0.00000000000E+00 0. -1.
         -2   -1    0    0    0  501 -0.00000000000E+00 -0.00000000000E+00 -0.21787108704E+03  0.21787108704E+03  0.00000000000E+00 0.  1.
         23    2    1    2    0    0  0.31987743065E+03  0.57361210846E+03  0.85344583137E+03  0.10806538729E+04  0.89947675491E+02 0.  0.
         11    1    3    3    0    0  0.10895622889E+03  0.14159158388E+03  0.28253177072E+03  0.33428107620E+03  0.00000000000E+00 0. -1.
        -11    1    3    3    0    0  0.21092120175E+03  0.43202052457E+03  0.57091406065E+03  0.74637279670E+03  0.00000000000E+00 0.  1.
         22    1    1    2    0    0 -0.31987743065E+03 -0.57361210846E+03  0.92998189896E+03  0.11385160315E+04  0.00000000000E+00 0.  1.
<mgrwt>
<rscale>  0 0.13206440E+04</rscale>
<asrwt>0</asrwt>
<pdfrwt beam="1">  1        2 0.30789211E+00 0.13206440E+04</pdfrwt>
<pdfrwt beam="2">  1       -2 0.33518630E-01 0.13206440E+04</pdfrwt>
<totfact> 0.54363310E+01</totfact>
</mgrwt>
</event>
<event>
 6    1  0.1028026E-006  0.1178267E+04  0.7818608E-02  0.9132095E-01
         -1   -1    0    0    0  501 -0.00000000000E+00  0.00000000000E+00  0.54385507624E+03  0.54385507624E+03  0.00000000000E+00 0.  1.
          1   -1    0    0  501    0  0.00000000000E+00 -0.00000000000E+00 -0.63818181854E+03  0.63818181854E+03  0.00000000000E+00 0. -1.
         23    2    1    2    0    0  0.53555605478E+03 -0.62446504889E+02 -0.27719044372E+03  0.61268727717E+03  0.88494653681E+02 0.  0.
         13    1    3    3    0    0  0.41728349739E+03 -0.66718719522E+02 -0.17909302704E+03  0.45896755557E+03  0.00000000000E+00 0. -1.
        -13    1    3    3    0    0  0.11827255738E+03  0.42722146327E+01 -0.98097416684E+02  0.15371972160E+03  0.00000000000E+00 0.  1.
         22    1    1    2    0    0 -0.53555605478E+03  0.62446504889E+02  0.18286370142E+03  0.56934961761E+03  0.00000000000E+00 0.  1.
<mgrwt>
<rscale>  0 0.11782672E+04</rscale>
<asrwt>0</asrwt>
<pdfrwt beam="1">  1        1 0.98181818E-01 0.11782672E+04</pdfrwt>
<pdfrwt beam="2">  1       -1 0.83670012E-01 0.11782672E+04</pdfrwt>
<totfact> 0.43970255E+01</totfact>
</mgrwt>
</event>
<event>
 6    1  0.1028026E-006  0.2223702E+04  0.7818608E-02  0.8508627E-01
         -2   -1    0    0    0  501 -0.00000000000E+00  0.00000000000E+00  0.46261867710E+03  0.46261867710E+03  0.00000000000E+00 0.  1.
          2   -1    0    0  501    0  0.00000000000E+00 -0.00000000000E+00 -0.26722062054E+04  0.26722062054E+04  0.00000000000E+00 0. -1.
         23    2    1    2    0    0 -0.71777759775E+03  0.61870383258E+03 -0.19214127668E+04  0.21443483278E+04  0.91671251085E+02 0.  0.
         13    1    3    3    0    0 -0.83942511579E+02  0.38033042729E+02 -0.17092361775E+03  0.19418481067E+03  0.00000000000E+00 0. -1.
        -13    1    3    3    0    0 -0.63383508617E+03  0.58067078985E+03 -0.17504891490E+04  0.19501635171E+04  0.00000000000E+00 0.  1.
         22    1    1    2    0    0  0.71777759775E+03 -0.61870383258E+03 -0.28817476153E+03  0.99047655473E+03  0.00000000000E+00 0.  1.
<mgrwt>
<rscale>  0 0.22237019E+04</rscale>
<asrwt>0</asrwt>
<pdfrwt beam="1">  1        2 0.41110865E+00 0.22237019E+04</pdfrwt>
<pdfrwt beam="2">  1       -2 0.71172104E-01 0.22237019E+04</pdfrwt>
<totfact> 0.45123337E+00</totfact>
</mgrwt>
</event>
<event>
 6    1  0.1028026E-006  0.2724599E+04  0.7818608E-02  0.8327067E-01
         -2   -1    0    0    0  501 -0.00000000000E+00  0.00000000000E+00  0.74642176530E+03  0.74642176530E+03  0.00000000000E+00 0.  1.
          2   -1    0    0  501    0  0.00000000000E+00 -0.00000000000E+00 -0.24863423823E+04  0.24863423823E+04  0.00000000000E+00 0. -1.
         23    2    1    2    0    0 -0.42717029305E+03  0.62592229352E+03  0.47013283223E+03  0.89640171312E+03  0.90873398464E+02 0.  0.
         11    1    3    3    0    0 -0.97479207840E+01  0.52080374692E+02  0.23672151858E+02  0.58032388898E+02  0.00000000000E+00 0.  1.
        -11    1    3    3    0    0 -0.41742237227E+03  0.57384191883E+03  0.44646068038E+03  0.83836932422E+03  0.00000000000E+00 0. -1.
         22    1    1    2    0    0  0.42717029305E+03 -0.62592229352E+03 -0.22100534492E+04  0.23363624344E+04  0.00000000000E+00 0. -1.
<mgrwt>
<rscale>  0 0.27245991E+04</rscale>
<asrwt>0</asrwt>
<pdfrwt beam="1">  1        2 0.38251422E+00 0.27245991E+04</pdfrwt>
<pdfrwt beam="2">  1       -2 0.11483412E+00 0.27245991E+04</pdfrwt>
<totfact> 0.18362629E+00</totfact>
</mgrwt>
</event>
<event>
 6    1  0.1028026E-006  0.2468579E+04  0.7818608E-02  0.8414266E-01
          2   -1    0    0  501    0  0.00000000000E+00  0.00000000000E+00  0.24808240423E+04  0.24808240423E+04  0.00000000000E+00 0. -1.
         -2   -1    0    0    0  501 -0.00000000000E+00 -0.00000000000E+00 -0.61409868404E+03  0.61409868404E+03  0.00000000000E+00 0.  1.
         23    2    1    2    0    0 -0.85147099783E+03 -0.34072781026E+02  0.20511625383E+04  0.22230391974E+04  0.92041839970E+02 0.  0.
         11    1    3    3    0    0 -0.54610938664E+03  0.16124630719E+02  0.12497564105E+04  0.13639598790E+04  0.00000000000E+00 0.  1.
        -11    1    3    3    0    0 -0.30536161120E+03 -0.50197411745E+02  0.80140612781E+03  0.85907931847E+03  0.00000000000E+00 0. -1.
         22    1    1    2    0    0  0.85147099783E+03  0.34072781026E+02 -0.18443718004E+03  0.87188352889E+03  0.00000000000E+00 0.  1.
<mgrwt>
<rscale>  0 0.24685792E+04</rscale>
<asrwt>0</asrwt>
<pdfrwt beam="1">  1        2 0.38166523E+00 0.24685792E+04</pdfrwt>
<pdfrwt beam="2">  1       -2 0.94476722E-01 0.24685792E+04</pdfrwt>
<totfact> 0.30145063E+00</totfact>
</mgrwt>
</event>
<event>
 6    1  0.1028026E-006  0.2387582E+04  0.7818608E-02  0.8444167E-01
         -2   -1    0    0    0  501 -0.00000000000E+00  0.00000000000E+00  0.92163488064E+03  0.92163488064E+03  0.00000000000E+00 0.  1.
          2   -1    0    0  501    0  0.00000000000E+00 -0.00000000000E+00 -0.15463142610E+04  0.15463142610E+04  0.00000000000E+00 0. -1.
         23    2    1    2    0    0  0.96910413612E+03  0.76752436843E+02  0.40022780752E+03  0.10553315335E+04  0.92133513957E+02 0.  0.
         11    1    3    3    0    0  0.65920699066E+03  0.89578262915E+01  0.26948213774E+03  0.71221817005E+03  0.00000000000E+00 0. -1.
        -11    1    3    3    0    0  0.30989714545E+03  0.67794610552E+02  0.13074566978E+03  0.34311336340E+03  0.00000000000E+00 0.  1.
         22    1    1    2    0    0 -0.96910413612E+03 -0.76752436843E+02 -0.10249071879E+04  0.14126176082E+04  0.00000000000E+00 0. -1.
<mgrwt>
<rscale>  0 0.23875822E+04</rscale>
<asrwt>0</asrwt>
<pdfrwt beam="1">  1        2 0.23789450E+00 0.23875822E+04</pdfrwt>
<pdfrwt beam="2">  1       -2 0.14178998E+00 0.23875822E+04</pdfrwt>
<totfact> 0.37391816E+00</totfact>
</mgrwt>
</event>
<event>
 6    1  0.1028026E-006  0.1690974E+04  0.7818608E-02  0.8766529E-01
          3   -1    0    0  501    0  0.00000000000E+00  0.00000000000E+00  0.28536820334E+03  0.28536820334E+03  0.00000000000E+00 0. -1.
         -3   -1    0    0    0  501 -0.00000000000E+00 -0.00000000000E+00 -0.25050025172E+04  0.25050025172E+04  0.00000000000E+00 0.  1.
         23    2    1    2    0    0 -0.26882464517E+03 -0.44210010994E+03 -0.22113302594E+04  0.22728882045E+04  0.91214456723E+02 0.  0.
         13    1    3    3    0    0 -0.17156958530E+02 -0.29099379434E+01 -0.46050768199E+02  0.49229078973E+02  0.00000000000E+00 0. -1.
        -13    1    3    3    0    0 -0.25166768664E+03 -0.43919017200E+03 -0.21652794912E+04  0.22236591256E+04  0.00000000000E+00 0.  1.
         22    1    1    2    0    0  0.26882464517E+03  0.44210010994E+03 -0.83040544699E+01  0.51748251602E+03  0.00000000000E+00 0. -1.
<mgrwt>
<rscale>  0 0.16909738E+04</rscale>
<asrwt>0</asrwt>
<pdfrwt beam="1">  1        3 0.43902801E-01 0.16909738E+04</pdfrwt>
<pdfrwt beam="2">  1       -3 0.38538499E+00 0.16909738E+04</pdfrwt>
<totfact> 0.16502562E-01</totfact>
</mgrwt>
</event>
<event>
 6    1  0.1028026E-006  0.1483571E+04  0.7818608E-02  0.8895452E-01
          2   -1    0    0  501    0  0.00000000000E+00  0.00000000000E+00  0.11023010100E+04  0.11023010100E+04  0.00000000000E+00 0. -1.
         -2   -1    0    0    0  501 -0.00000000000E+00 -0.00000000000E+00 -0.49917952484E+03  0.49917952484E+03  0.00000000000E+00 0.  1.
         23    2    1    2    0    0  0.18424488599E+03  0.11184374595E+03 -0.46043612147E+03  0.51630313729E+03  0.90068341272E+02 0.  0.
         13    1    3    3    0    0  0.32243453848E+02  0.67742011377E+02 -0.13600652205E+03  0.15532673454E+03  0.00000000000E+00 0. -1.
        -13    1    3    3    0    0  0.15200143215E+03  0.44101734577E+02 -0.32442959942E+03  0.36097640275E+03  0.00000000000E+00 0.  1.
         22    1    1    2    0    0 -0.18424488599E+03 -0.11184374595E+03  0.10635576066E+04  0.10851773975E+04  0.00000000000E+00 0. -1.
<mgrwt>
<rscale>  0 0.14835715E+04</rscale>
<asrwt>0</asrwt>
<pdfrwt beam="1">  1        2 0.16958477E+00 0.14835715E+04</pdfrwt>
<pdfrwt beam="2">  1       -2 0.76796850E-01 0.14835715E+04</pdfrwt>
<totfact> 0.31827817E+01</totfact>
</mgrwt>
</event>
<event>
 6    1  0.1028026E-006  0.1596118E+04  0.7818608E-02  0.8822936E-01
          1   -1    0    0  501    0  0.00000000000E+00  0.00000000000E+00  0.10238365243E+04  0.10238365243E+04  0.00000000000E+00 0. -1.
         -1   -1    0    0    0  501 -0.00000000000E+00 -0.00000000000E+00 -0.62207010481E+03  0.62207010481E+03  0.00000000000E+00 0.  1.
         23    2    1    2    0    0 -0.11053987915E+02  0.18874349483E+03 -0.59513886393E+03  0.63123109397E+03  0.92282875704E+02 0.  0.
         11    1    3    3    0    0 -0.13064177334E+02  0.12300052687E+03 -0.23943864335E+03  0.26950077229E+03  0.00000000000E+00 0. -1.
        -11    1    3    3    0    0  0.20101894192E+01  0.65742967956E+02 -0.35570022059E+03  0.36173032168E+03  0.00000000000E+00 0.  1.
         22    1    1    2    0    0  0.11053987915E+02 -0.18874349483E+03  0.99690528340E+03  0.10146755351E+04  0.00000000000E+00 0. -1.
<mgrwt>
<rscale>  0 0.15961179E+04</rscale>
<asrwt>0</asrwt>
<pdfrwt beam="1">  1        1 0.15751331E+00 0.15961179E+04</pdfrwt>
<pdfrwt beam="2">  1       -1 0.95703093E-01 0.15961179E+04</pdfrwt>
<totfact> 0.14657837E+01</totfact>
</mgrwt>
</event>
<event>
 6    1  0.1028026E-006  0.6978327E+03  0.7818608E-02  0.9720946E-01
          2   -1    0    0  501    0  0.00000000000E+00  0.00000000000E+00  0.93340208668E+02  0.93340208668E+02  0.00000000000E+00 0. -1.
         -2   -1    0    0    0  501 -0.00000000000E+00 -0.00000000000E+00 -0.13042891247E+04  0.13042891247E+04  0.00000000000E+00 0.  1.
         23    2    1    2    0    0 -0.21135142467E+03 -0.18501545355E+03 -0.21956693957E+03  0.36722243995E+03  0.87991685326E+02 0.  0.
         11    1    3    3    0    0 -0.10450692824E+03 -0.14122784835E+03 -0.10560315474E+03  0.20498543726E+03  0.00000000000E+00 0. -1.
        -11    1    3    3    0    0 -0.10684449643E+03 -0.43787605201E+02 -0.11396378484E+03  0.16223700269E+03  0.00000000000E+00 0.  1.
         22    1    1    2    0    0  0.21135142467E+03  0.18501545355E+03 -0.99138197649E+03  0.10304068934E+04  0.00000000000E+00 0.  1.
<mgrwt>
<rscale>  0 0.69783270E+03</rscale>
<asrwt>0</asrwt>
<pdfrwt beam="1">  1        2 0.14360031E-01 0.69783270E+03</pdfrwt>
<pdfrwt beam="2">  1       -2 0.20065988E+00 0.69783270E+03</pdfrwt>
<totfact> 0.56836882E+01</totfact>
</mgrwt>
</event>
<event>
 6    1  0.1028026E-006  0.1787297E+04  0.7818608E-02  0.8713084E-01
         -1   -1    0    0    0  501 -0.00000000000E+00  0.00000000000E+00  0.11261730198E+04  0.11261730198E+04  0.00000000000E+00 0.  1.
          1   -1    0    0  501    0  0.00000000000E+00 -0.00000000000E+00 -0.70913421392E+03  0.70913421392E+03  0.00000000000E+00 0. -1.
         23    2    1    2    0    0 -0.60876144156E+03 -0.40770913098E+03 -0.31206854946E+03  0.80166572727E+03  0.91999622237E+02 0.  0.
         11    1    3    3    0    0 -0.27775851580E+03 -0.14703619370E+03 -0.98799202046E+02  0.32944000619E+03  0.00000000000E+00 0.  1.
        -11    1    3    3    0    0 -0.33100292577E+03 -0.26067293728E+03 -0.21326934741E+03  0.47222572107E+03  0.00000000000E+00 0. -1.
         22    1    1    2    0    0  0.60876144156E+03  0.40770913098E+03  0.72910735531E+03  0.10336415064E+04  0.00000000000E+00 0.  1.
<mgrwt>
<rscale>  0 0.17872972E+04</rscale>
<asrwt>0</asrwt>
<pdfrwt beam="1">  1        1 0.10909757E+00 0.17872972E+04</pdfrwt>
<pdfrwt beam="2">  1       -1 0.17325739E+00 0.17872972E+04</pdfrwt>
<totfact> 0.58761022E+00</totfact>
</mgrwt>
</event>
<event>
 6    1  0.1028026E-006  0.7344251E+03  0.7818608E-02  0.9660107E-01
         -1   -1    0    0    0  501 -0.00000000000E+00  0.00000000000E+00  0.25225080464E+03  0.25225080464E+03  0.00000000000E+00 0.  1.
          1   -1    0    0  501    0  0.00000000000E+00 -0.00000000000E+00 -0.53456743966E+03  0.53456743966E+03  0.00000000000E+00 0. -1.
         23    2    1    2    0    0 -0.15153793636E+02  0.34877921704E+03 -0.42327632108E+02  0.36317771129E+03  0.90718475724E+02 0.  0.
         13    1    3    3    0    0 -0.17604286048E+02  0.10281969811E+03 -0.52933193820E+02  0.11697745174E+03  0.00000000000E+00 0. -1.
        -13    1    3    3    0    0  0.24504924122E+01  0.24595951893E+03  0.10605561713E+02  0.24620025955E+03  0.00000000000E+00 0.  1.
         22    1    1    2    0    0  0.15153793636E+02 -0.34877921704E+03 -0.23998900291E+03  0.42364053302E+03  0.00000000000E+00 0. -1.
<mgrwt>
<rscale>  0 0.73442513E+03</rscale>
<asrwt>0</asrwt>
<pdfrwt beam="1">  1        1 0.82241144E-01 0.73442513E+03</pdfrwt>
<pdfrwt beam="2">  1       -1 0.38807817E-01 0.73442513E+03</pdfrwt>
<totfact> 0.26307134E+02</totfact>
</mgrwt>
</event>
<event>
 6    1  0.1028026E-006  0.2209579E+04  0.7818608E-02  0.8514452E-01
         -1   -1    0    0    0  501 -0.00000000000E+00  0.00000000000E+00  0.61412801384E+03  0.61412801384E+03  0.00000000000E+00 0.  1.
          1   -1    0    0  501    0  0.00000000000E+00 -0.00000000000E+00 -0.19874682789E+04  0.19874682789E+04  0.00000000000E+00 0. -1.
         23    2    1    2    0    0  0.10876600327E+04  0.17816406017E+03 -0.63948266409E+03  0.12774762990E+04  0.90889151242E+02 0.  0.
         11    1    3    3    0    0  0.26482859845E+03  0.31396362926E+02 -0.11281454791E+03  0.28956353428E+03  0.00000000000E+00 0. -1.
        -11    1    3    3    0    0  0.82283143428E+03  0.14676769725E+03 -0.52666811618E+03  0.98791276477E+03  0.00000000000E+00 0.  1.
         22    1    1    2    0    0 -0.10876600327E+04 -0.17816406017E+03 -0.73385760093E+03  0.13241199936E+04  0.00000000000E+00 0. -1.
<mgrwt>
<rscale>  0 0.22095791E+04</rscale>
<asrwt>0</asrwt>
<pdfrwt beam="1">  1        1 0.30576435E+00 0.22095791E+04</pdfrwt>
<pdfrwt beam="2">  1       -1 0.94481232E-01 0.22095791E+04</pdfrwt>
<totfact> 0.30004277E+00</totfact>
</mgrwt>
</event>
<event>
 6    1  0.1028026E-006  0.2997979E+04  0.7818608E-02  0.8244308E-01
          2   -1    0    0  501    0  0.00000000000E+00  0.00000000000E+00  0.10397657576E+04  0.10397657576E+04  0.00000000000E+00 0. -1.
         -2   -1    0    0    0  501 -0.00000000000E+00 -0.00000000000E+00 -0.21610340272E+04  0.21610340272E+04  0.00000000000E+00 0.  1.
         23    2    1    2    0    0  0.62806604553E+03  0.85295071182E+03  0.56915245953E+03  0.12059278300E+04  0.91299149087E+02 0.  0.
         11    1    3    3    0    0  0.38232694964E+03  0.49202811918E+03  0.28674637459E+03  0.68592204355E+03  0.00000000000E+00 0. -1.
        -11    1    3    3    0    0  0.24573909589E+03  0.36092259264E+03  0.28240608493E+03  0.52000578644E+03  0.00000000000E+00 0.  1.
         22    1    1    2    0    0 -0.62806604553E+03 -0.85295071182E+03 -0.16904207292E+04  0.19948719548E+04  0.00000000000E+00 0.  1.
<mgrwt>
<rscale>  0 0.29979788E+04</rscale>
<asrwt>0</asrwt>
<pdfrwt beam="1">  1        2 0.15996397E+00 0.29979788E+04</pdfrwt>
<pdfrwt beam="2">  1       -2 0.33246677E+00 0.29979788E+04</pdfrwt>
<totfact> 0.40752925E-01</totfact>
</mgrwt>
</event>
<event>
 6    1  0.1028026E-006  0.2692081E+04  0.7818608E-02  0.8337579E-01
          1   -1    0    0  501    0  0.00000000000E+00  0.00000000000E+00  0.10538724804E+04  0.10538724804E+04  0.00000000000E+00 0. -1.
         -1   -1    0    0    0  501 -0.00000000000E+00 -0.00000000000E+00 -0.17192067873E+04  0.17192067873E+04  0.00000000000E+00 0.  1.
         23    2    1    2    0    0 -0.11351710905E+04 -0.42571547302E+03  0.26568928338E+03  0.12444681352E+04  0.90901460887E+02 0.  0.
         11    1    3    3    0    0 -0.27283678551E+03 -0.13539480453E+03  0.41851151431E+02  0.30744622862E+03  0.00000000000E+00 0.  1.
        -11    1    3    3    0    0 -0.86233430497E+03 -0.29032066849E+03  0.22383813195E+03  0.93702190657E+03  0.00000000000E+00 0. -1.
         22    1    1    2    0    0  0.11351710905E+04  0.42571547302E+03 -0.93102359025E+03  0.15286111324E+04  0.00000000000E+00 0.  1.
<mgrwt>
<rscale>  0 0.26920808E+04</rscale>
<asrwt>0</asrwt>
<pdfrwt beam="1">  1        1 0.16213423E+00 0.26920808E+04</pdfrwt>
<pdfrwt beam="2">  1       -1 0.26449335E+00 0.26920808E+04</pdfrwt>
<totfact> 0.67371632E-01</totfact>
</mgrwt>
</event>
<event>
 6    1  0.1028026E-006  0.1326201E+04  0.7818608E-02  0.9009042E-01
         -1   -1    0    0    0  501 -0.00000000000E+00  0.00000000000E+00  0.14089890659E+04  0.14089890659E+04  0.00000000000E+00 0.  1.
          1   -1    0    0  501    0  0.00000000000E+00 -0.00000000000E+00 -0.31206911224E+03  0.31206911224E+03  0.00000000000E+00 0. -1.
         23    2    1    2    0    0 -0.53015870983E+03 -0.36384957707E+03  0.35806032404E+03  0.74158468457E+03  0.91026789436E+02 0.  0.
         13    1    3    3    0    0 -0.15936067862E+03 -0.11213136046E+03  0.15767067126E+03  0.25065775166E+03  0.00000000000E+00 0. -1.
        -13    1    3    3    0    0 -0.37079803120E+03 -0.25171821661E+03  0.20038965278E+03  0.49092693291E+03  0.00000000000E+00 0.  1.
         22    1    1    2    0    0  0.53015870983E+03  0.36384957707E+03  0.73885962961E+03  0.97947349357E+03  0.00000000000E+00 0. -1.
<mgrwt>
<rscale>  0 0.13262005E+04</rscale>
<asrwt>0</asrwt>
<pdfrwt beam="1">  1        1 0.48010633E-01 0.13262005E+04</pdfrwt>
<pdfrwt beam="2">  1       -1 0.21676755E+00 0.13262005E+04</pdfrwt>
<totfact> 0.94492642E+00</totfact>
</mgrwt>
</event>
<event>
 6    1  0.1028026E-006  0.9275606E+03  0.7818608E-02  0.9391770E-01
         -2   -1    0    0    0  501 -0.00000000000E+00  0.00000000000E+00  0.25720943098E+03  0.25720943098E+03  0.00000000000E+00 0.  1.
          2   -1    0    0  501    0  0.00000000000E+00 -0.00000000000E+00 -0.83625308793E+03  0.83625308793E+03  0.00000000000E+00 0. -1.
         23    2    1    2    0    0 -0.19125071516E+03 -0.26305192666E+03  0.90187074782E+02  0.34939066454E+03  0.90371321995E+02 0.  0.
         11    1    3    3    0    0 -0.11229018696E+03 -0.12552103690E+03  0.89674397136E+02  0.19080386341E+03  0.00000000000E+00 0. -1.
        -11    1    3    3    0    0 -0.78960528200E+02 -0.13753088977E+03  0.51267764620E+00  0.15858680113E+03  0.00000000000E+00 0.  1.
         22    1    1    2    0    0  0.19125071516E+03  0.26305192666E+03 -0.66923073173E+03  0.74407185437E+03  0.00000000000E+00 0. -1.
<mgrwt>
<rscale>  0 0.92756063E+03</rscale>
<asrwt>0</asrwt>
<pdfrwt beam="1">  1        2 0.12865432E+00 0.92756063E+03</pdfrwt>
<pdfrwt beam="2">  1       -2 0.39570682E-01 0.92756063E+03</pdfrwt>
<totfact> 0.19622584E+02</totfact>
</mgrwt>
</event>
<event>
 6    1  0.1028026E-006  0.2448410E+04  0.7818608E-02  0.8421599E-01
         -2   -1    0    0    0  501 -0.00000000000E+00  0.00000000000E+00  0.67447669808E+03  0.67447669808E+03  0.00000000000E+00 0.  1.
          2   -1    0    0  501    0  0.00000000000E+00 -0.00000000000E+00 -0.22219865650E+04  0.22219865650E+04  0.00000000000E+00 0. -1.
         23    2    1    2    0    0 -0.51902324127E+03  0.59452061100E+03  0.32976280377E+03  0.86004666473E+03  0.89982647652E+02 0.  0.
         13    1    3    3    0    0 -0.20490269667E+02  0.55822318228E+02  0.35634914797E+02  0.69324090445E+02  0.00000000000E+00 0. -1.
        -13    1    3    3    0    0 -0.49853297160E+03  0.53869829277E+03  0.29412788898E+03  0.79072257429E+03  0.00000000000E+00 0.  1.
         22    1    1    2    0    0  0.51902324127E+03 -0.59452061100E+03 -0.18772726707E+04  0.20364165983E+04  0.00000000000E+00 0. -1.
<mgrwt>
<rscale>  0 0.24484102E+04</rscale>
<asrwt>0</asrwt>
<pdfrwt beam="1">  1        2 0.34184409E+00 0.24484102E+04</pdfrwt>
<pdfrwt beam="2">  1       -2 0.10376564E+00 0.24484102E+04</pdfrwt>
<totfact> 0.33988625E+00</totfact>
</mgrwt>
</event>
<event>
 6    1  0.1028026E-006  0.2854695E+04  0.7818608E-02  0.8286486E-01
          1   -1    0    0  501    0  0.00000000000E+00  0.00000000000E+00  0.20746332550E+04  0.20746332550E+04  0.00000000000E+00 0. -1.
         -1   -1    0    0    0  501 -0.00000000000E+00 -0.00000000000E+00 -0.98201516976E+03  0.98201516976E+03  0.00000000000E+00 0.  1.
         23    2    1    2    0    0 -0.53182676274E+03  0.78889948478E+03  0.16840918201E+04  0.19363612823E+04  0.90153506165E+02 0.  0.
         11    1    3    3    0    0 -0.37469076863E+03  0.62182785617E+03  0.12575815966E+04  0.14520931537E+04  0.00000000000E+00 0. -1.
        -11    1    3    3    0    0 -0.15713599410E+03  0.16707162861E+03  0.42651022345E+03  0.48426812867E+03  0.00000000000E+00 0.  1.
         22    1    1    2    0    0  0.53182676274E+03 -0.78889948478E+03 -0.59147373477E+03  0.11202871425E+04  0.00000000000E+00 0.  1.
<mgrwt>
<rscale>  0 0.28546953E+04</rscale>
<asrwt>0</asrwt>
<pdfrwt beam="1">  1        1 0.31917435E+00 0.28546953E+04</pdfrwt>
<pdfrwt beam="2">  1       -1 0.15107926E+00 0.28546953E+04</pdfrwt>
<totfact> 0.78181186E-01</totfact>
</mgrwt>
</event>
<event>
 6    1  0.1028026E-006  0.2734145E+04  0.7818608E-02  0.8324010E-01
          1   -1    0    0  501    0  0.00000000000E+00  0.00000000000E+00  0.11399334679E+04  0.11399334679E+04  0.00000000000E+00 0. -1.
         -1   -1    0    0    0  501 -0.00000000000E+00 -0.00000000000E+00 -0.16394704944E+04  0.16394704944E+04  0.00000000000E+00 0.  1.
         23    2    1    2    0    0 -0.43463471225E+03 -0.42609197866E+01 -0.15659890758E+04  0.16277766519E+04  0.91703623991E+02 0.  0.
         13    1    3    3    0    0 -0.15996245567E+03  0.42334509662E+02 -0.60465740707E+03  0.62688976531E+03  0.00000000000E+00 0. -1.
        -13    1    3    3    0    0 -0.27467225658E+03 -0.46595429448E+02 -0.96133166869E+03  0.10008868866E+04  0.00000000000E+00 0.  1.
         22    1    1    2    0    0  0.43463471225E+03  0.42609197866E+01  0.10664520492E+04  0.11516273103E+04  0.00000000000E+00 0. -1.
<mgrwt>
<rscale>  0 0.27341450E+04</rscale>
<asrwt>0</asrwt>
<pdfrwt beam="1">  1        1 0.17537438E+00 0.27341450E+04</pdfrwt>
<pdfrwt beam="2">  1       -1 0.25222623E+00 0.27341450E+04</pdfrwt>
<totfact> 0.69464752E-01</totfact>
</mgrwt>
</event>
<event>
 6    1  0.1028026E-006  0.2287325E+04  0.7818608E-02  0.8482936E-01
          1   -1    0    0  501    0  0.00000000000E+00  0.00000000000E+00  0.72665337741E+03  0.72665337741E+03  0.00000000000E+00 0. -1.
         -1   -1    0    0    0  501 -0.00000000000E+00 -0.00000000000E+00 -0.17999827808E+04  0.17999827808E+04  0.00000000000E+00 0.  1.
         23    2    1    2    0    0  0.45406323163E+03  0.66573572300E+03 -0.14310338874E+04  0.16449729747E+04  0.93277164072E+02 0.  0.
         11    1    3    3    0    0  0.31482988258E+03  0.48553941418E+03 -0.94248704371E+03  0.11059603091E+04  0.00000000000E+00 0.  1.
        -11    1    3    3    0    0  0.13923334905E+03  0.18019630882E+03 -0.48854684371E+03  0.53901266562E+03  0.00000000000E+00 0. -1.
         22    1    1    2    0    0 -0.45406323163E+03 -0.66573572300E+03  0.35770448406E+03  0.88166318348E+03  0.00000000000E+00 0. -1.
<mgrwt>
<rscale>  0 0.22873247E+04</rscale>
<asrwt>0</asrwt>
<pdfrwt beam="1">  1        1 0.11179283E+00 0.22873247E+04</pdfrwt>
<pdfrwt beam="2">  1       -1 0.27692043E+00 0.22873247E+04</pdfrwt>
<totfact> 0.10848570E+00</totfact>
</mgrwt>
</event>
<event>
 6    1  0.1028026E-006  0.4281855E+04  0.7818608E-02  0.7949982E-01
          1   -1    0    0  501    0  0.00000000000E+00  0.00000000000E+00  0.37296402642E+04  0.37296402642E+04  0.00000000000E+00 0. -1.
         -1   -1    0    0    0  501 -0.00000000000E+00 -0.00000000000E+00 -0.12289577121E+04  0.12289577121E+04  0.00000000000E+00 0.  1.
         23    2    1    2    0    0  0.20664087984E+04 -0.25044536251E+03  0.67577158232E+03  0.21903732294E+04  0.91101322606E+02 0.  0.
         13    1    3    3    0    0  0.53711233252E+03 -0.25119772525E+02  0.17059053461E+03  0.56411150602E+03  0.00000000000E+00 0. -1.
        -13    1    3    3    0    0  0.15292964659E+04 -0.22532558999E+03  0.50518104771E+03  0.16262617234E+04  0.00000000000E+00 0.  1.
         22    1    1    2    0    0 -0.20664087984E+04  0.25044536251E+03  0.18249109698E+04  0.27682247469E+04  0.00000000000E+00 0. -1.
<mgrwt>
<rscale>  0 0.42818548E+04</rscale>
<asrwt>0</asrwt>
<pdfrwt beam="1">  1        1 0.57379081E+00 0.42818548E+04</pdfrwt>
<pdfrwt beam="2">  1       -1 0.18907042E+00 0.42818548E+04</pdfrwt>
<totfact> 0.22328006E-02</totfact>
</mgrwt>
</event>
<event>
 6    1  0.1028026E-006  0.2154182E+04  0.7818608E-02  0.8537744E-01
          2   -1    0    0  501    0  0.00000000000E+00  0.00000000000E+00  0.16301106652E+04  0.16301106652E+04  0.00000000000E+00 0. -1.
         -2   -1    0    0    0  501 -0.00000000000E+00 -0.00000000000E+00 -0.71168458163E+03  0.71168458163E+03  0.00000000000E+00 0.  1.
         23    2    1    2    0    0  0.37828248767E+03 -0.26933044168E+03 -0.59406385770E+03  0.75962510752E+03  0.92097283653E+02 0.  0.
         11    1    3    3    0    0  0.95324403575E+01 -0.35399859288E+02 -0.49262035540E+02  0.61406559929E+02  0.00000000000E+00 0. -1.
        -11    1    3    3    0    0  0.36875004731E+03 -0.23393058239E+03 -0.54480182216E+03  0.69821854759E+03  0.00000000000E+00 0.  1.
         22    1    1    2    0    0 -0.37828248767E+03  0.26933044168E+03  0.15124899412E+04  0.15821701393E+04  0.00000000000E+00 0. -1.
<mgrwt>
<rscale>  0 0.21541816E+04</rscale>
<asrwt>0</asrwt>
<pdfrwt beam="1">  1        2 0.25078626E+00 0.21541816E+04</pdfrwt>
<pdfrwt beam="2">  1       -2 0.10948994E+00 0.21541816E+04</pdfrwt>
<totfact> 0.65405819E+00</totfact>
</mgrwt>
</event>
<event>
 6    1  0.1028026E-006  0.2450563E+04  0.7818608E-02  0.8420812E-01
         -1   -1    0    0    0  501 -0.00000000000E+00  0.00000000000E+00  0.74491799488E+03  0.74491799488E+03  0.00000000000E+00 0.  1.
          1   -1    0    0  501    0  0.00000000000E+00 -0.00000000000E+00 -0.20154095889E+04  0.20154095889E+04  0.00000000000E+00 0. -1.
         23    2    1    2    0    0  0.58932109014E+03  0.86351846898E+03  0.79786491195E+02  0.10526348711E+04  0.93331635325E+02 0.  0.
         11    1    3    3    0    0  0.32229481924E+03  0.54084947043E+03  0.23450659125E+02  0.63003335910E+03  0.00000000000E+00 0. -1.
        -11    1    3    3    0    0  0.26702627089E+03  0.32266899855E+03  0.56335832069E+02  0.42260151200E+03  0.00000000000E+00 0.  1.
         22    1    1    2    0    0 -0.58932109014E+03 -0.86351846898E+03 -0.13502780852E+04  0.17076927127E+04  0.00000000000E+00 0. -1.
<mgrwt>
<rscale>  0 0.24505631E+04</rscale>
<asrwt>0</asrwt>
<pdfrwt beam="1">  1        1 0.31006301E+00 0.24505631E+04</pdfrwt>
<pdfrwt beam="2">  1       -1 0.11460277E+00 0.24505631E+04</pdfrwt>
<totfact> 0.17960881E+00</totfact>
</mgrwt>
</event>
<event>
 6    1  0.1028026E-006  0.3430689E+04  0.7818608E-02  0.8130415E-01
         -2   -1    0    0    0  501 -0.00000000000E+00  0.00000000000E+00  0.78209094049E+03  0.78209094049E+03  0.00000000000E+00 0.  1.
          2   -1    0    0  501    0  0.00000000000E+00 -0.00000000000E+00 -0.37622319144E+04  0.37622319144E+04  0.00000000000E+00 0. -1.
         23    2    1    2    0    0  0.14404620762E+03 -0.10497041841E+04 -0.32759686341E+04  0.34442582257E+04  0.91192377368E+02 0.  0.
         11    1    3    3    0    0  0.46981797106E+02 -0.60068150650E+03 -0.19501634212E+04  0.20411180591E+04  0.00000000000E+00 0. -1.
        -11    1    3    3    0    0  0.97064410513E+02 -0.44902267759E+03 -0.13258052129E+04  0.14031401666E+04  0.00000000000E+00 0.  1.
         22    1    1    2    0    0 -0.14404620762E+03  0.10497041841E+04  0.29582766014E+03  0.11000646292E+04  0.00000000000E+00 0.  1.
<mgrwt>
<rscale>  0 0.34306894E+04</rscale>
<asrwt>0</asrwt>
<pdfrwt beam="1">  1        2 0.57880491E+00 0.34306894E+04</pdfrwt>
<pdfrwt beam="2">  1       -2 0.12032168E+00 0.34306894E+04</pdfrwt>
<totfact> 0.22817718E-01</totfact>
</mgrwt>
</event>
<event>
 6    1  0.1028026E-006  0.2357596E+04  0.7818608E-02  0.8455552E-01
          1   -1    0    0  501    0  0.00000000000E+00  0.00000000000E+00  0.99236674677E+03  0.99236674677E+03  0.00000000000E+00 0. -1.
         -1   -1    0    0    0  501 -0.00000000000E+00 -0.00000000000E+00 -0.14002526833E+04  0.14002526833E+04  0.00000000000E+00 0.  1.
         23    2    1    2    0    0  0.20345816549E+02  0.62510160157E+03  0.80766282609E+03  0.10256063508E+04  0.91559716365E+02 0.  0.
         13    1    3    3    0    0  0.36507039108E+02  0.10190969718E+03  0.15260806157E+03  0.18710310189E+03  0.00000000000E+00 0. -1.
        -13    1    3    3    0    0 -0.16161222560E+02  0.52319190440E+03  0.65505476452E+03  0.83850324893E+03  0.00000000000E+00 0.  1.
         22    1    1    2    0    0 -0.20345816549E+02 -0.62510160157E+03 -0.12155487626E+04  0.13670130793E+04  0.00000000000E+00 0.  1.
<mgrwt>
<rscale>  0 0.23575956E+04</rscale>
<asrwt>0</asrwt>
<pdfrwt beam="1">  1        1 0.15267181E+00 0.23575956E+04</pdfrwt>
<pdfrwt beam="2">  1       -1 0.21542349E+00 0.23575956E+04</pdfrwt>
<totfact> 0.16299109E+00</totfact>
</mgrwt>
</event>
<event>
 6    1  0.1028026E-006  0.1641021E+04  0.7818608E-02  0.8795736E-01
         -1   -1    0    0    0  501 -0.00000000000E+00  0.00000000000E+00  0.38357087189E+03  0.38357087189E+03  0.00000000000E+00 0.  1.
          1   -1    0    0  501    0  0.00000000000E+00 -0.00000000000E+00 -0.17551837620E+04  0.17551837620E+04  0.00000000000E+00 0. -1.
         23    2    1    2    0    0  0.50546648421E+03  0.59095406028E+03 -0.10191948716E+04  0.12849856208E+04  0.87788332178E+02 0.  0.
         13    1    3    3    0    0  0.29674725822E+03  0.36801707834E+03 -0.68467307373E+03  0.83202928019E+03  0.00000000000E+00 0. -1.
        -13    1    3    3    0    0  0.20871922600E+03  0.22293698194E+03 -0.33452179785E+03  0.45295634056E+03  0.00000000000E+00 0.  1.
         22    1    1    2    0    0 -0.50546648421E+03 -0.59095406028E+03 -0.35241801854E+03  0.85376901315E+03  0.00000000000E+00 0.  1.
<mgrwt>
<rscale>  0 0.16410209E+04</rscale>
<asrwt>0</asrwt>
<pdfrwt beam="1">  1        1 0.27002827E+00 0.16410209E+04</pdfrwt>
<pdfrwt beam="2">  1       -1 0.59010903E-01 0.16410209E+04</pdfrwt>
<totfact> 0.12165584E+01</totfact>
</mgrwt>
</event>
<event>
 6    1  0.1028026E-006  0.8836451E+03  0.7818608E-02  0.9446260E-01
          1   -1    0    0  501    0  0.00000000000E+00  0.00000000000E+00  0.19379514261E+04  0.19379514261E+04  0.00000000000E+00 0. -1.
         -1   -1    0    0    0  501 -0.00000000000E+00 -0.00000000000E+00 -0.10072861651E+03  0.10072861651E+03  0.00000000000E+00 0.  1.
         23    2    1    2    0    0  0.21452116761E+03  0.20181085879E+03  0.16735657717E+04  0.17017370502E+04  0.91321639581E+02 0.  0.
         13    1    3    3    0    0  0.14217719304E+03  0.86467924609E+02  0.75385009316E+03  0.77199806941E+03  0.00000000000E+00 0. -1.
        -13    1    3    3    0    0  0.72343974567E+02  0.11534293418E+03  0.91971567853E+03  0.92973898082E+03  0.00000000000E+00 0.  1.
         22    1    1    2    0    0 -0.21452116761E+03 -0.20181085879E+03  0.16365703795E+03  0.33694299243E+03  0.00000000000E+00 0.  1.
<mgrwt>
<rscale>  0 0.88364510E+03</rscale>
<asrwt>0</asrwt>
<pdfrwt beam="1">  1        1 0.29814635E+00 0.88364510E+03</pdfrwt>
<pdfrwt beam="2">  1       -1 0.15496712E-01 0.88364510E+03</pdfrwt>
<totfact> 0.10410387E+02</totfact>
</mgrwt>
</event>
<event>
 6    1  0.1028026E-006  0.1250813E+04  0.7818608E-02  0.9069506E-01
         -4   -1    0    0    0  501 -0.00000000000E+00  0.00000000000E+00  0.98499178978E+03  0.98499178978E+03  0.00000000000E+00 0.  1.
          4   -1    0    0  501    0  0.00000000000E+00 -0.00000000000E+00 -0.39709324250E+03  0.39709324250E+03  0.00000000000E+00 0. -1.
         23    2    1    2    0    0 -0.33588749758E+03 -0.80215220513E+02 -0.27610829838E+03  0.45162131887E+03  0.92038745040E+02 0.  0.
         13    1    3    3    0    0 -0.17333783280E+03  0.41040017983E+01 -0.11844144828E+03  0.20997910321E+03  0.00000000000E+00 0. -1.
        -13    1    3    3    0    0 -0.16254966478E+03 -0.84319222311E+02 -0.15766685010E+03  0.24164221567E+03  0.00000000000E+00 0.  1.
         22    1    1    2    0    0  0.33588749758E+03  0.80215220513E+02  0.86400684566E+03  0.93046371341E+03  0.00000000000E+00 0.  1.
<mgrwt>
<rscale>  0 0.12508135E+04</rscale>
<asrwt>0</asrwt>
<pdfrwt beam="1">  1        4 0.61091269E-01 0.12508135E+04</pdfrwt>
<pdfrwt beam="2">  1       -4 0.15153720E+00 0.12508135E+04</pdfrwt>
<totfact> 0.14346528E+00</totfact>
</mgrwt>
</event>
<event>
 6    1  0.1028026E-006  0.1314370E+04  0.7818608E-02  0.9018247E-01
         -2   -1    0    0    0  501 -0.00000000000E+00  0.00000000000E+00  0.83630547653E+03  0.83630547653E+03  0.00000000000E+00 0.  1.
          2   -1    0    0  501    0  0.00000000000E+00 -0.00000000000E+00 -0.51642868715E+03  0.51642868715E+03  0.00000000000E+00 0. -1.
         23    2    1    2    0    0  0.51080382594E+03 -0.40857468965E+03  0.17154466891E+03  0.68202092870E+03  0.88719491286E+02 0.  0.
         11    1    3    3    0    0  0.46449256298E+03 -0.34015546338E+03  0.13317618413E+03  0.59092721747E+03  0.00000000000E+00 0. -1.
        -11    1    3    3    0    0  0.46311262960E+02 -0.68419226277E+02  0.38368484781E+02  0.91093711230E+02  0.00000000000E+00 0.  1.
         22    1    1    2    0    0 -0.51080382594E+03  0.40857468965E+03  0.14833212047E+03  0.67071323498E+03  0.00000000000E+00 0. -1.
<mgrwt>
<rscale>  0 0.13143700E+04</rscale>
<asrwt>0</asrwt>
<pdfrwt beam="1">  1        2 0.79450567E-01 0.13143700E+04</pdfrwt>
<pdfrwt beam="2">  1       -2 0.12866238E+00 0.13143700E+04</pdfrwt>
<totfact> 0.25873822E+01</totfact>
</mgrwt>
</event>
<event>
 6    1  0.1028026E-006  0.9589336E+03  0.7818608E-02  0.9354769E-01
          1   -1    0    0  501    0  0.00000000000E+00  0.00000000000E+00  0.19304294712E+04  0.19304294712E+04  0.00000000000E+00 0. -1.
         -1   -1    0    0    0  501 -0.00000000000E+00 -0.00000000000E+00 -0.11908666479E+03  0.11908666479E+03  0.00000000000E+00 0.  1.
         23    2    1    2    0    0  0.38541115253E+03  0.25343989873E+03  0.11577708450E+04  0.12495599825E+04  0.90516747353E+02 0.  0.
         11    1    3    3    0    0  0.23671973222E+03  0.10176419189E+03  0.63274273421E+03  0.68319510396E+03  0.00000000000E+00 0.  1.
        -11    1    3    3    0    0  0.14869142031E+03  0.15167570685E+03  0.52502811083E+03  0.56636487857E+03  0.00000000000E+00 0. -1.
         22    1    1    2    0    0 -0.38541115253E+03 -0.25343989873E+03  0.65357196133E+03  0.79995615342E+03  0.00000000000E+00 0.  1.
<mgrwt>
<rscale>  0 0.95893359E+03</rscale>
<asrwt>0</asrwt>
<pdfrwt beam="1">  1        1 0.29698913E+00 0.95893359E+03</pdfrwt>
<pdfrwt beam="2">  1       -1 0.18321027E-01 0.95893359E+03</pdfrwt>
<totfact> 0.79439651E+01</totfact>
</mgrwt>
</event>
<event>
 6    1  0.1028026E-006  0.1817789E+04  0.7818608E-02  0.8696896E-01
          1   -1    0    0  501    0  0.00000000000E+00  0.00000000000E+00  0.13690488065E+04  0.13690488065E+04  0.00000000000E+00 0. -1.
         -1   -1    0    0    0  501 -0.00000000000E+00 -0.00000000000E+00 -0.60340389601E+03  0.60340389601E+03  0.00000000000E+00 0.  1.
         23    2    1    2    0    0  0.72022954611E+03  0.87289784316E+02  0.97393307264E+03  0.12176453999E+04  0.88116878775E+02 0.  0.
         13    1    3    3    0    0  0.55857157546E+03  0.31902407484E+02  0.72731246434E+03  0.91760742657E+03  0.00000000000E+00 0. -1.
        -13    1    3    3    0    0  0.16165797064E+03  0.55387376832E+02  0.24662060830E+03  0.30003797330E+03  0.00000000000E+00 0.  1.
         22    1    1    2    0    0 -0.72022954611E+03 -0.87289784316E+02 -0.20828816220E+03  0.75480730259E+03  0.00000000000E+00 0.  1.
<mgrwt>
<rscale>  0 0.18177892E+04</rscale>
<asrwt>0</asrwt>
<pdfrwt beam="1">  1        1 0.21062289E+00 0.18177892E+04</pdfrwt>
<pdfrwt beam="2">  1       -1 0.92831369E-01 0.18177892E+04</pdfrwt>
<totfact> 0.85831243E+00</totfact>
</mgrwt>
</event>
<event>
 6    1  0.1028026E-006  0.1674523E+04  0.7818608E-02  0.8776029E-01
          1   -1    0    0  501    0  0.00000000000E+00  0.00000000000E+00  0.74871265264E+03  0.74871265264E+03  0.00000000000E+00 0. -1.
         -1   -1    0    0    0  501 -0.00000000000E+00 -0.00000000000E+00 -0.93628327336E+03  0.93628327336E+03  0.00000000000E+00 0.  1.
         23    2    1    2    0    0 -0.24239835373E+03  0.78068442444E+03  0.74713653054E+02  0.82649830066E+03  0.96395946901E+02 0.  0.
         13    1    3    3    0    0 -0.12542581307E+02  0.14878415122E+03 -0.49128272213E+01  0.14939269015E+03  0.00000000000E+00 0.  1.
        -13    1    3    3    0    0 -0.22985577242E+03  0.63190027322E+03  0.79626480275E+02  0.67710561050E+03  0.00000000000E+00 0. -1.
         22    1    1    2    0    0  0.24239835373E+03 -0.78068442444E+03 -0.26228427378E+03  0.85849762535E+03  0.00000000000E+00 0.  1.
<mgrwt>
<rscale>  0 0.16745234E+04</rscale>
<asrwt>0</asrwt>
<pdfrwt beam="1">  1        1 0.11518656E+00 0.16745234E+04</pdfrwt>
<pdfrwt beam="2">  1       -1 0.14404358E+00 0.16745234E+04</pdfrwt>
<totfact> 0.91080206E+00</totfact>
</mgrwt>
</event>
<event>
 6    1  0.1028026E-006  0.1919223E+04  0.7818608E-02  0.8645346E-01
         -2   -1    0    0    0  501 -0.00000000000E+00  0.00000000000E+00  0.25125081283E+03  0.25125081283E+03  0.00000000000E+00 0.  1.
          2   -1    0    0  501    0  0.00000000000E+00 -0.00000000000E+00 -0.36650808854E+04  0.36650808854E+04  0.00000000000E+00 0. -1.
         23    2    1    2    0    0  0.34548021579E+03 -0.58440986828E+03 -0.33454368056E+03  0.76309587487E+03  0.97490340035E+02 0.  0.
         13    1    3    3    0    0  0.22793635853E+03 -0.30681094853E+03 -0.21709184971E+03  0.43956434442E+03  0.00000000000E+00 0. -1.
        -13    1    3    3    0    0  0.11754385726E+03 -0.27759891975E+03 -0.11745183086E+03  0.32353153045E+03  0.00000000000E+00 0.  1.
         22    1    1    2    0    0 -0.34548021579E+03  0.58440986828E+03 -0.30792863920E+04  0.31532358233E+04  0.00000000000E+00 0. -1.
<mgrwt>
<rscale>  0 0.19192233E+04</rscale>
<asrwt>0</asrwt>
<pdfrwt beam="1">  1        2 0.56385852E+00 0.19192233E+04</pdfrwt>
<pdfrwt beam="2">  1       -2 0.38653976E-01 0.19192233E+04</pdfrwt>
<totfact> 0.36920234E+00</totfact>
</mgrwt>
</event>
<event>
 6    1  0.1028026E-006  0.7293367E+03  0.7818608E-02  0.9668337E-01
         -2   -1    0    0    0  501 -0.00000000000E+00  0.00000000000E+00  0.37257537285E+03  0.37257537285E+03  0.00000000000E+00 0.  1.
          2   -1    0    0  501    0  0.00000000000E+00 -0.00000000000E+00 -0.35692913484E+03  0.35692913484E+03  0.00000000000E+00 0. -1.
         23    2    1    2    0    0  0.25664274029E+03 -0.24959599107E+03 -0.20005499860E+02  0.36973416245E+03  0.90219044310E+02 0.  0.
         13    1    3    3    0    0  0.61979283658E+02 -0.10160854007E+03  0.23630033284E+02  0.12134292517E+03  0.00000000000E+00 0.  1.
        -13    1    3    3    0    0  0.19466345663E+03 -0.14798745101E+03 -0.43635533143E+02  0.24839123727E+03  0.00000000000E+00 0. -1.
         22    1    1    2    0    0 -0.25664274029E+03  0.24959599107E+03  0.35651737868E+02  0.35977034524E+03  0.00000000000E+00 0. -1.
<mgrwt>
<rscale>  0 0.72933670E+03</rscale>
<asrwt>0</asrwt>
<pdfrwt beam="1">  1        2 0.54912174E-01 0.72933670E+03</pdfrwt>
<pdfrwt beam="2">  1       -2 0.57319288E-01 0.72933670E+03</pdfrwt>
<totfact> 0.26018507E+02</totfact>
</mgrwt>
</event>
<event>
 6    1  0.1028026E-006  0.3348143E+04  0.7818608E-02  0.8150752E-01
          1   -1    0    0  501    0  0.00000000000E+00  0.00000000000E+00  0.41898507370E+04  0.41898507370E+04  0.00000000000E+00 0. -1.
         -1   -1    0    0    0  501 -0.00000000000E+00 -0.00000000000E+00 -0.66888199792E+03  0.66888199792E+03  0.00000000000E+00 0.  1.
         23    2    1    2    0    0  0.99237869952E+03  0.66607764166E+03  0.63105664960E+02  0.12001412099E+04  0.88778886321E+02 0.  0.
         13    1    3    3    0    0  0.21494181119E+03  0.16072232168E+03 -0.20264327307E+02  0.26915105396E+03  0.00000000000E+00 0. -1.
        -13    1    3    3    0    0  0.77743688833E+03  0.50535531998E+03  0.83369992266E+02  0.93099015590E+03  0.00000000000E+00 0.  1.
         22    1    1    2    0    0 -0.99237869952E+03 -0.66607764166E+03  0.34578630742E+04  0.36585915251E+04  0.00000000000E+00 0. -1.
<mgrwt>
<rscale>  0 0.33481432E+04</rscale>
<asrwt>0</asrwt>
<pdfrwt beam="1">  1        1 0.64459241E+00 0.33481432E+04</pdfrwt>
<pdfrwt beam="2">  1       -1 0.10290492E+00 0.33481432E+04</pdfrwt>
<totfact> 0.47534729E-02</totfact>
</mgrwt>
</event>
<event>
 6    1  0.1028026E-006  0.1341223E+04  0.7818608E-02  0.8997499E-01
         -4   -1    0    0    0  501 -0.00000000000E+00  0.00000000000E+00  0.17552956789E+03  0.17552956789E+03  0.00000000000E+00 0.  1.
          4   -1    0    0  501    0  0.00000000000E+00 -0.00000000000E+00 -0.25620753053E+04  0.25620753053E+04  0.00000000000E+00 0. -1.
         23    2    1    2    0    0 -0.20729553777E+03  0.58486020583E+03 -0.17003684559E+04  0.18124712818E+04  0.93628847009E+02 0.  0.
         11    1    3    3    0    0 -0.34746456332E+02  0.15082921525E+03 -0.53646702078E+03  0.55834902416E+03  0.00000000000E+00 0.  1.
        -11    1    3    3    0    0 -0.17254908143E+03  0.43403099058E+03 -0.11639014351E+04  0.12541222576E+04  0.00000000000E+00 0. -1.
         22    1    1    2    0    0  0.20729553777E+03 -0.58486020583E+03 -0.68617728146E+03  0.92513359140E+03  0.00000000000E+00 0.  1.
<mgrwt>
<rscale>  0 0.13412233E+04</rscale>
<asrwt>0</asrwt>
<pdfrwt beam="1">  1        4 0.39416541E+00 0.13412233E+04</pdfrwt>
<pdfrwt beam="2">  1       -4 0.27004550E-01 0.13412233E+04</pdfrwt>
<totfact> 0.19669068E-01</totfact>
</mgrwt>
</event>
<event>
 6    1  0.1028026E-006  0.2674257E+04  0.7818608E-02  0.8343406E-01
          2   -1    0    0  501    0  0.00000000000E+00  0.00000000000E+00  0.36859192680E+04  0.36859192680E+04  0.00000000000E+00 0. -1.
         -2   -1    0    0    0  501 -0.00000000000E+00 -0.00000000000E+00 -0.48506545702E+03  0.48506545702E+03  0.00000000000E+00 0.  1.
         23    2    1    2    0    0  0.20276414834E+03 -0.12609628774E+04  0.99259234419E+03  0.16199928819E+04  0.89424257287E+02 0.  0.
         11    1    3    3    0    0  0.98017963580E+02 -0.72848390549E+03  0.52014210305E+03  0.90046883850E+03  0.00000000000E+00 0. -1.
        -11    1    3    3    0    0  0.10474618476E+03 -0.53247897186E+03  0.47245024114E+03  0.71952404341E+03  0.00000000000E+00 0.  1.
         22    1    1    2    0    0 -0.20276414834E+03  0.12609628774E+04  0.22082614668E+04  0.25509918431E+04  0.00000000000E+00 0. -1.
<mgrwt>
<rscale>  0 0.26742566E+04</rscale>
<asrwt>0</asrwt>
<pdfrwt beam="1">  1        2 0.56706448E+00 0.26742566E+04</pdfrwt>
<pdfrwt beam="2">  1       -2 0.74625457E-01 0.26742566E+04</pdfrwt>
<totfact> 0.84924880E-01</totfact>
</mgrwt>
</event>
<event>
 6    1  0.1028026E-006  0.1531588E+04  0.7818608E-02  0.8863715E-01
         -1   -1    0    0    0  501 -0.00000000000E+00  0.00000000000E+00  0.73971934581E+03  0.73971934581E+03  0.00000000000E+00 0.  1.
          1   -1    0    0  501    0  0.00000000000E+00 -0.00000000000E+00 -0.79278761336E+03  0.79278761336E+03  0.00000000000E+00 0. -1.
         23    2    1    2    0    0 -0.51386628126E+03 -0.23953808296E+03  0.48426674260E+03  0.75137575294E+03  0.92812692644E+02 0.  0.
         11    1    3    3    0    0 -0.67294391689E+02 -0.51705452176E+02  0.11136023950E+03  0.14001104199E+03  0.00000000000E+00 0. -1.
        -11    1    3    3    0    0 -0.44657188958E+03 -0.18783263079E+03  0.37290650309E+03  0.61136471095E+03  0.00000000000E+00 0.  1.
         22    1    1    2    0    0  0.51386628126E+03  0.23953808296E+03 -0.53733501014E+03  0.78113120622E+03  0.00000000000E+00 0. -1.
<mgrwt>
<rscale>  0 0.15315878E+04</rscale>
<asrwt>0</asrwt>
<pdfrwt beam="1">  1        1 0.12196733E+00 0.15315878E+04</pdfrwt>
<pdfrwt beam="2">  1       -1 0.11380298E+00 0.15315878E+04</pdfrwt>
<totfact> 0.15240042E+01</totfact>
</mgrwt>
</event>
<event>
 6    1  0.1028026E-006  0.4594289E+03  0.7818608E-02  0.1024947E+00
          2   -1    0    0  501    0  0.00000000000E+00  0.00000000000E+00  0.13484827226E+04  0.13484827226E+04  0.00000000000E+00 0. -1.
         -2   -1    0    0    0  501 -0.00000000000E+00 -0.00000000000E+00 -0.39131923201E+02  0.39131923201E+02  0.00000000000E+00 0.  1.
         23    2    1    2    0    0 -0.26539715083E+02  0.15777943443E+03  0.11399156500E+04  0.11545760734E+04  0.89663334672E+02 0.  0.
         11    1    3    3    0    0  0.21755294189E+02  0.46346623030E+02  0.18448933445E+03  0.19146178944E+03  0.00000000000E+00 0. -1.
        -11    1    3    3    0    0 -0.48295009272E+02  0.11143281140E+03  0.95542631559E+03  0.96311428393E+03  0.00000000000E+00 0.  1.
         22    1    1    2    0    0  0.26539715083E+02 -0.15777943443E+03  0.16943514938E+03  0.23303857246E+03  0.00000000000E+00 0.  1.
<mgrwt>
<rscale>  0 0.45942887E+03</rscale>
<asrwt>0</asrwt>
<pdfrwt beam="1">  1        2 0.20745884E+00 0.45942887E+03</pdfrwt>
<pdfrwt beam="2">  1       -2 0.60202969E-02 0.45942887E+03</pdfrwt>
<totfact> 0.24252357E+03</totfact>
</mgrwt>
</event>
<event>
 6    1  0.1028026E-006  0.1182452E+04  0.7818608E-02  0.9128357E-01
         -2   -1    0    0    0  501 -0.00000000000E+00  0.00000000000E+00  0.33257935247E+03  0.33257935247E+03  0.00000000000E+00 0.  1.
          2   -1    0    0  501    0  0.00000000000E+00 -0.00000000000E+00 -0.10510216280E+04  0.10510216280E+04  0.00000000000E+00 0. -1.
         23    2    1    2    0    0  0.30640737064E+03 -0.36690940512E+03  0.38721038419E+02  0.48816573864E+03  0.91096000008E+02 0.  0.
         13    1    3    3    0    0  0.16878286321E+03 -0.21679365865E+03 -0.22062598349E+02  0.27563364017E+03  0.00000000000E+00 0.  1.
        -13    1    3    3    0    0  0.13762450743E+03 -0.15011574646E+03  0.60783636768E+02  0.21253209847E+03  0.00000000000E+00 0. -1.
         22    1    1    2    0    0 -0.30640737064E+03  0.36690940512E+03 -0.75716331398E+03  0.89543524187E+03  0.00000000000E+00 0. -1.
<mgrwt>
<rscale>  0 0.11824518E+04</rscale>
<asrwt>0</asrwt>
<pdfrwt beam="1">  1        2 0.16169563E+00 0.11824518E+04</pdfrwt>
<pdfrwt beam="2">  1       -2 0.51166054E-01 0.11824518E+04</pdfrwt>
<totfact> 0.83334427E+01</totfact>
</mgrwt>
</event>
<event>
 6    1  0.1028026E-006  0.3526057E+04  0.7818608E-02  0.8107642E-01
          2   -1    0    0  501    0  0.00000000000E+00  0.00000000000E+00  0.25616324161E+04  0.25616324161E+04  0.00000000000E+00 0. -1.
         -2   -1    0    0    0  501 -0.00000000000E+00 -0.00000000000E+00 -0.12133937832E+04  0.12133937832E+04  0.00000000000E+00 0.  1.
         23    2    1    2    0    0  0.80593948446E+03 -0.12412634421E+04 -0.34901347415E+03  0.15231518467E+04  0.88925572724E+02 0.  0.
         11    1    3    3    0    0  0.52129503554E+03 -0.76872084473E+03 -0.25866278059E+03  0.96415075858E+03  0.00000000000E+00 0.  1.
        -11    1    3    3    0    0  0.28464444892E+03 -0.47254259740E+03 -0.90350693557E+02  0.55900108809E+03  0.00000000000E+00 0. -1.
         22    1    1    2    0    0 -0.80593948446E+03  0.12412634421E+04  0.16972521070E+04  0.22518743526E+04  0.00000000000E+00 0. -1.
<mgrwt>
<rscale>  0 0.35260566E+04</rscale>
<asrwt>0</asrwt>
<pdfrwt beam="1">  1        2 0.39409729E+00 0.35260566E+04</pdfrwt>
<pdfrwt beam="2">  1       -2 0.18667597E+00 0.35260566E+04</pdfrwt>
<totfact> 0.42885821E-01</totfact>
</mgrwt>
</event>
<event>
 6    1  0.1028026E-006  0.1589272E+04  0.7818608E-02  0.8827166E-01
          2   -1    0    0  501    0  0.00000000000E+00  0.00000000000E+00  0.20541113136E+04  0.20541113136E+04  0.00000000000E+00 0. -1.
         -2   -1    0    0    0  501 -0.00000000000E+00 -0.00000000000E+00 -0.30740595552E+03  0.30740595552E+03  0.00000000000E+00 0.  1.
         23    2    1    2    0    0  0.26344055045E+03  0.49376923803E+03  0.43616904277E+02  0.56883233710E+03  0.91971785567E+02 0.  0.
         13    1    3    3    0    0  0.20059074234E+03  0.34379967237E+03 -0.83410792818E+01  0.39812615367E+03  0.00000000000E+00 0. -1.
        -13    1    3    3    0    0  0.62849808118E+02  0.14996956566E+03  0.51957983559E+02  0.17070618342E+03  0.00000000000E+00 0.  1.
         22    1    1    2    0    0 -0.26344055045E+03 -0.49376923803E+03  0.17030884538E+04  0.17926849320E+04  0.00000000000E+00 0. -1.
<mgrwt>
<rscale>  0 0.15892716E+04</rscale>
<asrwt>0</asrwt>
<pdfrwt beam="1">  1        2 0.31601712E+00 0.15892716E+04</pdfrwt>
<pdfrwt beam="2">  1       -2 0.47293225E-01 0.15892716E+04</pdfrwt>
<totfact> 0.25357590E+01</totfact>
</mgrwt>
</event>
<event>
 6    1  0.1028026E-006  0.1120299E+04  0.7818608E-02  0.9185630E-01
          2   -1    0    0  501    0  0.00000000000E+00  0.00000000000E+00  0.12220871808E+04  0.12220871808E+04  0.00000000000E+00 0. -1.
         -2   -1    0    0    0  501 -0.00000000000E+00 -0.00000000000E+00 -0.25674712317E+03  0.25674712317E+03  0.00000000000E+00 0.  1.
         23    2    1    2    0    0  0.13287323660E+03  0.53271796228E+03  0.36715635106E+03  0.66688142902E+03  0.92104993981E+02 0.  0.
         11    1    3    3    0    0  0.10822806600E+03  0.39488995333E+03  0.31818935865E+03  0.51855169219E+03  0.00000000000E+00 0.  1.
        -11    1    3    3    0    0  0.24645170602E+02  0.13782800895E+03  0.48966992404E+02  0.14832973683E+03  0.00000000000E+00 0. -1.
         22    1    1    2    0    0 -0.13287323660E+03 -0.53271796228E+03  0.59818370656E+03  0.81195287494E+03  0.00000000000E+00 0. -1.
<mgrwt>
<rscale>  0 0.11202988E+04</rscale>
<asrwt>0</asrwt>
<pdfrwt beam="1">  1        2 0.18801341E+00 0.11202988E+04</pdfrwt>
<pdfrwt beam="2">  1       -2 0.39499558E-01 0.11202988E+04</pdfrwt>
<totfact> 0.11037019E+02</totfact>
</mgrwt>
</event>
<event>
 6    1  0.1028026E-006  0.3526506E+04  0.7818608E-02  0.8107537E-01
          2   -1    0    0  501    0  0.00000000000E+00  0.00000000000E+00  0.16821906073E+04  0.16821906073E+04  0.00000000000E+00 0. -1.
         -2   -1    0    0    0  501 -0.00000000000E+00 -0.00000000000E+00 -0.18482221936E+04  0.18482221936E+04  0.00000000000E+00 0.  1.
         23    2    1    2    0    0 -0.14963907483E+04 -0.12916441190E+03  0.83939354611E+03  0.17229979582E+04  0.90949006885E+02 0.  0.
         13    1    3    3    0    0 -0.73036571083E+03 -0.22103848299E+02  0.38479511249E+03  0.82582681615E+03  0.00000000000E+00 0. -1.
        -13    1    3    3    0    0 -0.76602503742E+03 -0.10706056360E+03  0.45459843362E+03  0.89717114202E+03  0.00000000000E+00 0.  1.
         22    1    1    2    0    0  0.14963907483E+04  0.12916441190E+03 -0.10054251324E+04  0.18074148427E+04  0.00000000000E+00 0.  1.
<mgrwt>
<rscale>  0 0.35265065E+04</rscale>
<asrwt>0</asrwt>
<pdfrwt beam="1">  1        2 0.25879855E+00 0.35265065E+04</pdfrwt>
<pdfrwt beam="2">  1       -2 0.28434188E+00 0.35265065E+04</pdfrwt>
<totfact> 0.32594329E-01</totfact>
</mgrwt>
</event>
<event>
 6    1  0.1028026E-006  0.2465199E+04  0.7818608E-02  0.8415490E-01
          1   -1    0    0  501    0  0.00000000000E+00  0.00000000000E+00  0.37048378108E+04  0.37048378108E+04  0.00000000000E+00 0. -1.
         -1   -1    0    0    0  501 -0.00000000000E+00 -0.00000000000E+00 -0.41008579034E+03  0.41008579034E+03  0.00000000000E+00 0.  1.
         23    2    1    2    0    0 -0.64779480375E+03 -0.24431230687E+03  0.33485618907E+04  0.34205014578E+04  0.87389220216E+02 0.  0.
         11    1    3    3    0    0 -0.48031793295E+03 -0.14531361168E+03  0.23106566383E+04  0.23645201337E+04  0.00000000000E+00 0. -1.
        -11    1    3    3    0    0 -0.16747687080E+03 -0.98998695188E+02  0.10379052524E+04  0.10559813241E+04  0.00000000000E+00 0.  1.
         22    1    1    2    0    0  0.64779480375E+03  0.24431230687E+03 -0.53809870242E+02  0.69442214336E+03  0.00000000000E+00 0.  1.
<mgrwt>
<rscale>  0 0.24651988E+04</rscale>
<asrwt>0</asrwt>
<pdfrwt beam="1">  1        1 0.56997502E+00 0.24651988E+04</pdfrwt>
<pdfrwt beam="2">  1       -1 0.63090124E-01 0.24651988E+04</pdfrwt>
<totfact> 0.38886137E-01</totfact>
</mgrwt>
</event>
<event>
 6    1  0.1028026E-006  0.1265792E+04  0.7818608E-02  0.9057141E-01
         -2   -1    0    0    0  501 -0.00000000000E+00  0.00000000000E+00  0.28620730727E+03  0.28620730727E+03  0.00000000000E+00 0.  1.
          2   -1    0    0  501    0  0.00000000000E+00 -0.00000000000E+00 -0.13995358024E+04  0.13995358024E+04  0.00000000000E+00 0. -1.
         23    2    1    2    0    0 -0.29175783739E+03 -0.55738704467E+03 -0.53874645231E+03  0.83371759528E+03  0.95049121766E+02 0.  0.
         13    1    3    3    0    0 -0.29486626608E+03 -0.51323917163E+03 -0.50492802304E+03  0.77801855416E+03  0.00000000000E+00 0.  1.
        -13    1    3    3    0    0  0.31084286835E+01 -0.44147873046E+02 -0.33818429273E+02  0.55699041121E+02  0.00000000000E+00 0. -1.
         22    1    1    2    0    0  0.29175783739E+03  0.55738704467E+03 -0.57458204284E+03  0.85202551441E+03  0.00000000000E+00 0.  1.
<mgrwt>
<rscale>  0 0.12657920E+04</rscale>
<asrwt>0</asrwt>
<pdfrwt beam="1">  1        2 0.21531320E+00 0.12657920E+04</pdfrwt>
<pdfrwt beam="2">  1       -2 0.44031893E-01 0.12657920E+04</pdfrwt>
<totfact> 0.69549941E+01</totfact>
</mgrwt>
</event>
<event>
 6    1  0.1028026E-006  0.2942967E+04  0.7818608E-02  0.8260207E-01
          2   -1    0    0  501    0  0.00000000000E+00  0.00000000000E+00  0.21015957335E+04  0.21015957335E+04  0.00000000000E+00 0. -1.
         -2   -1    0    0    0  501 -0.00000000000E+00 -0.00000000000E+00 -0.10302951221E+04  0.10302951221E+04  0.00000000000E+00 0.  1.
         23    2    1    2    0    0 -0.35630192757E+03 -0.14086109324E+04  0.77392349928E+03  0.16487964657E+04  0.91849769053E+02 0.  0.
         11    1    3    3    0    0 -0.22175844845E+03 -0.10191063969E+04  0.52941257378E+03  0.11696291425E+04  0.00000000000E+00 0.  1.
        -11    1    3    3    0    0 -0.13454347912E+03 -0.38950453557E+03  0.24451092551E+03  0.47916732328E+03  0.00000000000E+00 0. -1.
         22    1    1    2    0    0  0.35630192757E+03  0.14086109324E+04  0.29737711215E+03  0.14830943899E+04  0.00000000000E+00 0.  1.
<mgrwt>
<rscale>  0 0.29429671E+04</rscale>
<asrwt>0</asrwt>
<pdfrwt beam="1">  1        2 0.32332242E+00 0.29429671E+04</pdfrwt>
<pdfrwt beam="2">  1       -2 0.15850694E+00 0.29429671E+04</pdfrwt>
<totfact> 0.13031712E+00</totfact>
</mgrwt>
</event>
<event>
 6    1  0.1028026E-006  0.2036857E+04  0.7818608E-02  0.8589580E-01
         -1   -1    0    0    0  501 -0.00000000000E+00  0.00000000000E+00  0.44606945979E+03  0.44606945979E+03  0.00000000000E+00 0.  1.
          1   -1    0    0  501    0  0.00000000000E+00 -0.00000000000E+00 -0.23251903319E+04  0.23251903319E+04  0.00000000000E+00 0. -1.
         23    2    1    2    0    0  0.94136235885E+03 -0.34234829017E+03 -0.70777148489E+03  0.12300184643E+04  0.92948938372E+02 0.  0.
         13    1    3    3    0    0  0.79320862538E+02 -0.17931383734E+02 -0.88146535625E+02  0.11992975235E+03  0.00000000000E+00 0.  1.
        -13    1    3    3    0    0  0.86204149631E+03 -0.32441690644E+03 -0.61962494926E+03  0.11100887119E+04  0.00000000000E+00 0. -1.
         22    1    1    2    0    0 -0.94136235885E+03  0.34234829017E+03 -0.11713493872E+04  0.15412413274E+04  0.00000000000E+00 0. -1.
<mgrwt>
<rscale>  0 0.20368568E+04</rscale>
<asrwt>0</asrwt>
<pdfrwt beam="1">  1        1 0.35772159E+00 0.20368568E+04</pdfrwt>
<pdfrwt beam="2">  1       -1 0.68626071E-01 0.20368568E+04</pdfrwt>
<totfact> 0.35545649E+00</totfact>
</mgrwt>
</event>
<event>
 6    1  0.1028026E-006  0.3042261E+04  0.7818608E-02  0.8231765E-01
         -3   -1    0    0    0  501 -0.00000000000E+00  0.00000000000E+00  0.12536539892E+04  0.12536539892E+04  0.00000000000E+00 0.  1.
          3   -1    0    0  501    0  0.00000000000E+00 -0.00000000000E+00 -0.18456750825E+04  0.18456750825E+04  0.00000000000E+00 0. -1.
         23    2    1    2    0    0 -0.10136843204E+04 -0.89224567811E+03  0.41404270344E+03  0.14153389843E+04  0.89971265258E+02 0.  0.
         13    1    3    3    0    0 -0.68295671864E+03 -0.63114391655E+03  0.24800880995E+03  0.96243487714E+03  0.00000000000E+00 0.  1.
        -13    1    3    3    0    0 -0.33072760175E+03 -0.26110176156E+03  0.16603389350E+03  0.45290410711E+03  0.00000000000E+00 0. -1.
         22    1    1    2    0    0  0.10136843204E+04  0.89224567811E+03 -0.10060637967E+04  0.16839900874E+04  0.00000000000E+00 0. -1.
<mgrwt>
<rscale>  0 0.30422610E+04</rscale>
<asrwt>0</asrwt>
<pdfrwt beam="1">  1        3 0.28395001E+00 0.30422610E+04</pdfrwt>
<pdfrwt beam="2">  1       -3 0.19286985E+00 0.30422610E+04</pdfrwt>
<totfact> 0.17083401E-02</totfact>
</mgrwt>
</event>
<event>
 6    1  0.1028026E-006  0.4182108E+03  0.7818608E-02  0.1037650E+00
          1   -1    0    0  501    0  0.00000000000E+00  0.00000000000E+00  0.44496487993E+03  0.44496487993E+03  0.00000000000E+00 0. -1.
         -1   -1    0    0    0  501 -0.00000000000E+00 -0.00000000000E+00 -0.98266322257E+02  0.98266322257E+02  0.00000000000E+00 0.  1.
         23    2    1    2    0    0  0.17630796160E+03  0.46873433819E+02  0.28530699646E+03  0.35074603416E+03  0.91329524958E+02 0.  0.
         11    1    3    3    0    0  0.13677729564E+03  0.52437628107E+02  0.14995099082E+03  0.20962593612E+03  0.00000000000E+00 0. -1.
        -11    1    3    3    0    0  0.39530665956E+02 -0.55641942872E+01  0.13535600564E+03  0.14112009804E+03  0.00000000000E+00 0.  1.
         22    1    1    2    0    0 -0.17630796160E+03 -0.46873433819E+02  0.61391561213E+02  0.19248516803E+03  0.00000000000E+00 0.  1.
<mgrwt>
<rscale>  0 0.41821077E+03</rscale>
<asrwt>0</asrwt>
<pdfrwt beam="1">  1        1 0.68456134E-01 0.41821077E+03</pdfrwt>
<pdfrwt beam="2">  1       -1 0.15117896E-01 0.41821077E+03</pdfrwt>
<totfact> 0.16805722E+03</totfact>
</mgrwt>
</event>
<event>
 6    1  0.1028026E-006  0.5027780E+04  0.7818608E-02  0.7824236E-01
          2   -1    0    0  501    0  0.00000000000E+00  0.00000000000E+00  0.29689613892E+04  0.29689613892E+04  0.00000000000E+00 0. -1.
         -2   -1    0    0    0  501 -0.00000000000E+00 -0.00000000000E+00 -0.21285702405E+04  0.21285702405E+04  0.00000000000E+00 0.  1.
         23    2    1    2    0    0  0.23389129902E+04 -0.89026958587E+03  0.65308059501E+03  0.25879142973E+04  0.87705390895E+02 0.  0.
         11    1    3    3    0    0  0.35056309471E+03 -0.11275562631E+03  0.71107108030E+02  0.37505271022E+03  0.00000000000E+00 0.  1.
        -11    1    3    3    0    0  0.19883498955E+04 -0.77751395955E+03  0.58197348698E+03  0.22128615871E+04  0.00000000000E+00 0. -1.
         22    1    1    2    0    0 -0.23389129902E+04  0.89026958587E+03  0.18731055368E+03  0.25096173323E+04  0.00000000000E+00 0. -1.
<mgrwt>
<rscale>  0 0.50277800E+04</rscale>
<asrwt>0</asrwt>
<pdfrwt beam="1">  1        2 0.45676329E+00 0.50277800E+04</pdfrwt>
<pdfrwt beam="2">  1       -2 0.32747235E+00 0.50277800E+04</pdfrwt>
<totfact> 0.28455519E-02</totfact>
</mgrwt>
</event>
<event>
 6    1  0.1028026E-006  0.1722874E+04  0.7818608E-02  0.8748425E-01
         -2   -1    0    0    0  501 -0.00000000000E+00  0.00000000000E+00  0.25902265125E+03  0.25902265125E+03  0.00000000000E+00 0.  1.
          2   -1    0    0  501    0  0.00000000000E+00 -0.00000000000E+00 -0.28648994089E+04  0.28648994089E+04  0.00000000000E+00 0. -1.
         23    2    1    2    0    0  0.19270216792E+03  0.78507640869E+03 -0.18333906676E+04  0.20057924378E+04  0.91667172694E+02 0.  0.
         13    1    3    3    0    0  0.16197215632E+03  0.55705765459E+03 -0.13916053162E+04  0.15076848365E+04  0.00000000000E+00 0. -1.
        -13    1    3    3    0    0  0.30730011605E+02  0.22801875410E+03 -0.44178535141E+03  0.49810760138E+03  0.00000000000E+00 0.  1.
         22    1    1    2    0    0 -0.19270216792E+03 -0.78507640869E+03 -0.77248609002E+03  0.11181296223E+04  0.00000000000E+00 0.  1.
<mgrwt>
<rscale>  0 0.17228742E+04</rscale>
<asrwt>0</asrwt>
<pdfrwt beam="1">  1        2 0.44075374E+00 0.17228742E+04</pdfrwt>
<pdfrwt beam="2">  1       -2 0.39849640E-01 0.17228742E+04</pdfrwt>
<totfact> 0.11991559E+01</totfact>
</mgrwt>
</event>
<event>
 6    1  0.1028026E-006  0.2326848E+04  0.7818608E-02  0.8467410E-01
          2   -1    0    0  501    0  0.00000000000E+00  0.00000000000E+00  0.52379749341E+03  0.52379749341E+03  0.00000000000E+00 0. -1.
         -2   -1    0    0    0  501 -0.00000000000E+00 -0.00000000000E+00 -0.25841198968E+04  0.25841198968E+04  0.00000000000E+00 0.  1.
         23    2    1    2    0    0  0.17199314190E+03  0.74649836108E+03  0.13457416166E+03  0.78317818436E+03  0.91741045898E+02 0.  0.
         13    1    3    3    0    0  0.12288452832E+03  0.49152249502E+03  0.13175037568E+03  0.52350084232E+03  0.00000000000E+00 0. -1.
        -13    1    3    3    0    0  0.49108613579E+02  0.25497586606E+03  0.28237859815E+01  0.25967734204E+03  0.00000000000E+00 0.  1.
         22    1    1    2    0    0 -0.17199314190E+03 -0.74649836108E+03 -0.21948965651E+04  0.23247392059E+04  0.00000000000E+00 0.  1.
<mgrwt>
<rscale>  0 0.23268481E+04</rscale>
<asrwt>0</asrwt>
<pdfrwt beam="1">  1        2 0.80584229E-01 0.23268481E+04</pdfrwt>
<pdfrwt beam="2">  1       -2 0.39755691E+00 0.23268481E+04</pdfrwt>
<totfact> 0.40666445E-01</totfact>
</mgrwt>
</event>
<event>
 6    1  0.1028026E-006  0.2443760E+04  0.7818608E-02  0.8423300E-01
         -1   -1    0    0    0  501 -0.00000000000E+00  0.00000000000E+00  0.70415499854E+03  0.70415499854E+03  0.00000000000E+00 0.  1.
          1   -1    0    0  501    0  0.00000000000E+00 -0.00000000000E+00 -0.21202584951E+04  0.21202584951E+04  0.00000000000E+00 0. -1.
         23    2    1    2    0    0  0.63898288855E+03  0.15196864009E+03 -0.18975436688E+04  0.20100559316E+04  0.90880545990E+02 0.  0.
         13    1    3    3    0    0  0.49608272155E+02 -0.44890719802E+01 -0.20663511789E+03  0.21255400344E+03  0.00000000000E+00 0. -1.
        -13    1    3    3    0    0  0.58937461639E+03  0.15645771207E+03 -0.16909085510E+04  0.17975019282E+04  0.00000000000E+00 0.  1.
         22    1    1    2    0    0 -0.63898288855E+03 -0.15196864009E+03  0.48144017225E+03  0.81435756206E+03  0.00000000000E+00 0.  1.
<mgrwt>
<rscale>  0 0.24437599E+04</rscale>
<asrwt>0</asrwt>
<pdfrwt beam="1">  1        1 0.32619361E+00 0.24437599E+04</pdfrwt>
<pdfrwt beam="2">  1       -1 0.10833154E+00 0.24437599E+04</pdfrwt>
<totfact> 0.17435068E+00</totfact>
</mgrwt>
</event>
<event>
 6    1  0.1028026E-006  0.2926637E+04  0.7818608E-02  0.8264996E-01
         -1   -1    0    0    0  501 -0.00000000000E+00  0.00000000000E+00  0.11801489360E+04  0.11801489360E+04  0.00000000000E+00 0.  1.
          1   -1    0    0  501    0  0.00000000000E+00 -0.00000000000E+00 -0.18144331976E+04  0.18144331976E+04  0.00000000000E+00 0. -1.
         23    2    1    2    0    0 -0.44239180808E+03  0.85827721393E+03 -0.14405303659E+04  0.17366540479E+04  0.92137177302E+02 0.  0.
         11    1    3    3    0    0 -0.29339395950E+03  0.46995459718E+03 -0.82874086475E+03  0.99686947982E+03  0.00000000000E+00 0. -1.
        -11    1    3    3    0    0 -0.14899784858E+03  0.38832261674E+03 -0.61178950112E+03  0.73978456812E+03  0.00000000000E+00 0.  1.
         22    1    1    2    0    0  0.44239180808E+03 -0.85827721393E+03  0.80624610428E+03  0.12579280856E+04  0.00000000000E+00 0.  1.
<mgrwt>
<rscale>  0 0.29266373E+04</rscale>
<asrwt>0</asrwt>
<pdfrwt beam="1">  1        1 0.27914357E+00 0.29266373E+04</pdfrwt>
<pdfrwt beam="2">  1       -1 0.18156138E+00 0.29266373E+04</pdfrwt>
<totfact> 0.69182002E-01</totfact>
</mgrwt>
</event>
<event>
 6    1  0.1028026E-006  0.2435696E+04  0.7818608E-02  0.8426259E-01
          1   -1    0    0  501    0  0.00000000000E+00  0.00000000000E+00  0.20379328861E+04  0.20379328861E+04  0.00000000000E+00 0. -1.
         -1   -1    0    0    0  501 -0.00000000000E+00 -0.00000000000E+00 -0.72777344139E+03  0.72777344139E+03  0.00000000000E+00 0.  1.
         23    2    1    2    0    0 -0.62675833723E+03  0.34718169754E+03 -0.46053819371E+03  0.85554108043E+03  0.80585160179E+02 0.  0.
         13    1    3    3    0    0 -0.19510066041E+03  0.12553578918E+03 -0.10889221826E+03  0.25628308032E+03  0.00000000000E+00 0.  1.
        -13    1    3    3    0    0 -0.43165767682E+03  0.22164590835E+03 -0.35164597545E+03  0.59925800011E+03  0.00000000000E+00 0. -1.
         22    1    1    2    0    0  0.62675833723E+03 -0.34718169754E+03  0.17706976384E+04  0.19101652471E+04  0.00000000000E+00 0. -1.
<mgrwt>
<rscale>  0 0.24356957E+04</rscale>
<asrwt>0</asrwt>
<pdfrwt beam="1">  1        1 0.31352813E+00 0.24356957E+04</pdfrwt>
<pdfrwt beam="2">  1       -1 0.11196515E+00 0.24356957E+04</pdfrwt>
<totfact> 0.18355277E+00</totfact>
</mgrwt>
</event>
<event>
 6    1  0.1028026E-006  0.1655094E+04  0.7818608E-02  0.8787399E-01
         -1   -1    0    0    0  501 -0.00000000000E+00  0.00000000000E+00  0.34240576969E+03  0.34240576969E+03  0.00000000000E+00 0.  1.
          1   -1    0    0  501    0  0.00000000000E+00 -0.00000000000E+00 -0.20000651718E+04  0.20000651718E+04  0.00000000000E+00 0. -1.
         23    2    1    2    0    0 -0.15448964327E+03  0.69790660490E+03 -0.14147450064E+04  0.15875218818E+04  0.88213451836E+02 0.  0.
         13    1    3    3    0    0 -0.46307566506E+02  0.39568462499E+03 -0.82134307045E+03  0.91286097109E+03  0.00000000000E+00 0.  1.
        -13    1    3    3    0    0 -0.10818207676E+03  0.30222197992E+03 -0.59340193593E+03  0.67466091072E+03  0.00000000000E+00 0. -1.
         22    1    1    2    0    0  0.15448964327E+03 -0.69790660490E+03 -0.24291439570E+03  0.75494905966E+03  0.00000000000E+00 0.  1.
<mgrwt>
<rscale>  0 0.16550938E+04</rscale>
<asrwt>0</asrwt>
<pdfrwt beam="1">  1        1 0.30770234E+00 0.16550938E+04</pdfrwt>
<pdfrwt beam="2">  1       -1 0.52677809E-01 0.16550938E+04</pdfrwt>
<totfact> 0.10340533E+01</totfact>
</mgrwt>
</event>
<event>
 6    1  0.1028026E-006  0.3120532E+04  0.7818608E-02  0.8210126E-01
          1   -1    0    0  501    0  0.00000000000E+00  0.00000000000E+00  0.26409223912E+04  0.26409223912E+04  0.00000000000E+00 0. -1.
         -1   -1    0    0    0  501 -0.00000000000E+00 -0.00000000000E+00 -0.92181047730E+03  0.92181047730E+03  0.00000000000E+00 0.  1.
         23    2    1    2    0    0 -0.95014320247E+03 -0.92360047233E+03 -0.75802687303E+02  0.13316953602E+04  0.10888777411E+03 0.  0.
         11    1    3    3    0    0 -0.50767087127E+03 -0.45762225849E+03 -0.87099314436E+02  0.68900953228E+03  0.00000000000E+00 0.  1.
        -11    1    3    3    0    0 -0.44247233119E+03 -0.46597821384E+03  0.11296627133E+02  0.64268582794E+03  0.00000000000E+00 0. -1.
         22    1    1    2    0    0  0.95014320247E+03  0.92360047233E+03  0.17949146012E+04  0.22310375082E+04  0.00000000000E+00 0. -1.
<mgrwt>
<rscale>  0 0.31205320E+04</rscale>
<asrwt>0</asrwt>
<pdfrwt beam="1">  1        1 0.40629575E+00 0.31205320E+04</pdfrwt>
<pdfrwt beam="2">  1       -1 0.14181700E+00 0.31205320E+04</pdfrwt>
<totfact> 0.36846884E-01</totfact>
</mgrwt>
</event>
<event>
 6    1  0.1028026E-006  0.2266340E+04  0.7818608E-02  0.8491312E-01
         -4   -1    0    0    0  501 -0.00000000000E+00  0.00000000000E+00  0.84188076994E+03  0.84188076994E+03  0.00000000000E+00 0.  1.
          4   -1    0    0  501    0  0.00000000000E+00 -0.00000000000E+00 -0.15252449329E+04  0.15252449329E+04  0.00000000000E+00 0. -1.
         23    2    1    2    0    0 -0.70169841343E+03  0.33982778978E+03  0.51405825799E+03  0.93825060532E+03  0.90524668754E+02 0.  0.
         13    1    3    3    0    0 -0.17497304538E+03  0.50212822781E+02  0.14667422467E+03  0.23377387014E+03  0.00000000000E+00 0. -1.
        -13    1    3    3    0    0 -0.52672536805E+03  0.28961496700E+03  0.36738403332E+03  0.70447673517E+03  0.00000000000E+00 0.  1.
         22    1    1    2    0    0  0.70169841343E+03 -0.33982778978E+03 -0.11974224209E+04  0.14288750975E+04  0.00000000000E+00 0. -1.
<mgrwt>
<rscale>  0 0.22663401E+04</rscale>
<asrwt>0</asrwt>
<pdfrwt beam="1">  1        4 0.23465307E+00 0.22663401E+04</pdfrwt>
<pdfrwt beam="2">  1       -4 0.12952012E+00 0.22663401E+04</pdfrwt>
<totfact> 0.62475529E-02</totfact>
</mgrwt>
</event>
<event>
 6    1  0.1028026E-006  0.9122931E+03  0.7818608E-02  0.9410344E-01
         -1   -1    0    0    0  501 -0.00000000000E+00  0.00000000000E+00  0.69084008677E+03  0.69084008677E+03  0.00000000000E+00 0.  1.
          1   -1    0    0  501    0  0.00000000000E+00 -0.00000000000E+00 -0.30118355659E+03  0.30118355659E+03  0.00000000000E+00 0. -1.
         23    2    1    2    0    0  0.15637503628E+03 -0.20490645395E+03 -0.20652302661E+03  0.34250853901E+03  0.90667149137E+02 0.  0.
         13    1    3    3    0    0  0.90884434809E+02 -0.18260372447E+03 -0.15791141113E+03  0.25795370601E+03  0.00000000000E+00 0.  1.
        -13    1    3    3    0    0  0.65490601473E+02 -0.22302729479E+02 -0.48611615483E+02  0.84554832999E+02  0.00000000000E+00 0. -1.
         22    1    1    2    0    0 -0.15637503628E+03  0.20490645395E+03  0.59617955678E+03  0.64951510434E+03  0.00000000000E+00 0.  1.
<mgrwt>
<rscale>  0 0.91229310E+03</rscale>
<asrwt>0</asrwt>
<pdfrwt beam="1">  1        1 0.46335932E-01 0.91229310E+03</pdfrwt>
<pdfrwt beam="2">  1       -1 0.10628309E+00 0.91229310E+03</pdfrwt>
<totfact> 0.72749660E+01</totfact>
</mgrwt>
</event>
<event>
 6    1  0.2017857E-006  0.3086240E+04  0.7818608E-02  0.8219524E-01
         -1   -1    0    0    0  501 -0.00000000000E+00  0.00000000000E+00  0.13266352071E+04  0.13266352071E+04  0.00000000000E+00 0.  1.
          1   -1    0    0  501    0  0.00000000000E+00 -0.00000000000E+00 -0.17949317812E+04  0.17949317812E+04  0.00000000000E+00 0. -1.
         23    2    1    2    0    0 -0.23264478326E+03 -0.13910261174E+04 -0.86333305850E+03  0.16569403881E+04  0.10502487947E+03 0.  0.
         13    1    3    3    0    0 -0.64292309131E+02 -0.61043815147E+03 -0.33278911038E+03  0.69822405414E+03  0.00000000000E+00 0. -1.
        -13    1    3    3    0    0 -0.16835247413E+03 -0.78058796589E+03 -0.53054394812E+03  0.95871633392E+03  0.00000000000E+00 0.  1.
         22    1    1    2    0    0  0.23264478326E+03  0.13910261174E+04  0.39503648441E+03  0.14646266003E+04  0.00000000000E+00 0.  1.
<mgrwt>
<rscale>  0 0.30862402E+04</rscale>
<asrwt>0</asrwt>
<pdfrwt beam="1">  1        1 0.27614335E+00 0.30862402E+04</pdfrwt>
<pdfrwt beam="2">  1       -1 0.20409772E+00 0.30862402E+04</pdfrwt>
<totfact> 0.48934788E-01</totfact>
</mgrwt>
</event>
<event>
 6    1  0.1028026E-006  0.2989608E+04  0.7818608E-02  0.8246705E-01
         -2   -1    0    0    0  501 -0.00000000000E+00  0.00000000000E+00  0.77298956407E+03  0.77298956407E+03  0.00000000000E+00 0.  1.
          2   -1    0    0  501    0  0.00000000000E+00 -0.00000000000E+00 -0.28906454883E+04  0.28906454883E+04  0.00000000000E+00 0. -1.
         23    2    1    2    0    0 -0.11146936762E+03  0.96602491022E+03  0.32918123270E+03  0.10306440498E+04  0.90759717709E+02 0.  0.
         11    1    3    3    0    0 -0.63403545644E+02  0.46933109721E+03  0.20720462444E+03  0.51693853097E+03  0.00000000000E+00 0.  1.
        -11    1    3    3    0    0 -0.48065821978E+02  0.49669381300E+03  0.12197660826E+03  0.51370551883E+03  0.00000000000E+00 0. -1.
         22    1    1    2    0    0  0.11146936762E+03 -0.96602491022E+03 -0.24468371570E+04  0.26329910026E+04  0.00000000000E+00 0. -1.
<mgrwt>
<rscale>  0 0.29896079E+04</rscale>
<asrwt>0</asrwt>
<pdfrwt beam="1">  1        2 0.44471469E+00 0.29896079E+04</pdfrwt>
<pdfrwt beam="2">  1       -2 0.11892147E+00 0.29896079E+04</pdfrwt>
<totfact> 0.94672442E-01</totfact>
</mgrwt>
</event>
<event>
 6    1  0.1028026E-006  0.2161237E+04  0.7818608E-02  0.8534738E-01
         -1   -1    0    0    0  501 -0.00000000000E+00  0.00000000000E+00  0.13642137823E+04  0.13642137823E+04  0.00000000000E+00 0.  1.
          1   -1    0    0  501    0  0.00000000000E+00 -0.00000000000E+00 -0.85597746138E+03  0.85597746138E+03  0.00000000000E+00 0. -1.
         23    2    1    2    0    0  0.27033515532E+03  0.22319859267E+03  0.13025709783E+04  0.13519365252E+04  0.90235838930E+02 0.  0.
         11    1    3    3    0    0  0.33767945897E+02  0.76391861476E+02  0.31074378817E+03  0.32177273433E+03  0.00000000000E+00 0.  1.
        -11    1    3    3    0    0  0.23656720943E+03  0.14680673119E+03  0.99182719017E+03  0.10301637909E+04  0.00000000000E+00 0. -1.
         22    1    1    2    0    0 -0.27033515532E+03 -0.22319859267E+03 -0.79433465748E+03  0.86825471841E+03  0.00000000000E+00 0. -1.
<mgrwt>
<rscale>  0 0.21612369E+04</rscale>
<asrwt>0</asrwt>
<pdfrwt beam="1">  1        1 0.13168884E+00 0.21612369E+04</pdfrwt>
<pdfrwt beam="2">  1       -1 0.20987904E+00 0.21612369E+04</pdfrwt>
<totfact> 0.23324241E+00</totfact>
</mgrwt>
</event>
<event>
 6    1  0.1028026E-006  0.6063751E+04  0.7818608E-02  0.7682547E-01
          2   -1    0    0  501    0  0.00000000000E+00  0.00000000000E+00  0.25716543187E+04  0.25716543187E+04  0.00000000000E+00 0. -1.
         -2   -1    0    0    0  501 -0.00000000000E+00 -0.00000000000E+00 -0.35744576739E+04  0.35744576739E+04  0.00000000000E+00 0.  1.
         23    2    1    2    0    0 -0.20621083545E+03  0.26227358035E+04  0.10246725110E+04  0.28246779059E+04  0.87094855294E+02 0.  0.
         11    1    3    3    0    0 -0.14505430690E+03  0.22255629094E+04  0.85800514026E+03  0.23896325735E+04  0.00000000000E+00 0. -1.
        -11    1    3    3    0    0 -0.61156528555E+02  0.39717289410E+03  0.16666737076E+03  0.43504533243E+03  0.00000000000E+00 0.  1.
         22    1    1    2    0    0  0.20621083545E+03 -0.26227358035E+04 -0.20274758662E+04  0.33214340866E+04  0.00000000000E+00 0.  1.
<mgrwt>
<rscale>  0 0.60637512E+04</rscale>
<asrwt>0</asrwt>
<pdfrwt beam="1">  1        2 0.39563913E+00 0.60637512E+04</pdfrwt>
<pdfrwt beam="2">  1       -2 0.54991656E+00 0.60637512E+04</pdfrwt>
<totfact> 0.18437782E-03</totfact>
</mgrwt>
</event>
<event>
 6    1  0.1028026E-006  0.1640348E+04  0.7818608E-02  0.8796137E-01
          1   -1    0    0  501    0  0.00000000000E+00  0.00000000000E+00  0.64288160251E+03  0.64288160251E+03  0.00000000000E+00 0. -1.
         -1   -1    0    0    0  501 -0.00000000000E+00 -0.00000000000E+00 -0.10463591404E+04  0.10463591404E+04  0.00000000000E+00 0.  1.
         23    2    1    2    0    0 -0.77300121073E+01 -0.65635360436E+03 -0.70446283415E+03  0.96712443957E+03  0.90564837968E+02 0.  0.
         13    1    3    3    0    0 -0.31573437497E+02 -0.22424545859E+03 -0.19666985839E+03  0.29993656138E+03  0.00000000000E+00 0.  1.
        -13    1    3    3    0    0  0.23843425390E+02 -0.43210814577E+03 -0.50779297576E+03  0.66718787819E+03  0.00000000000E+00 0. -1.
         22    1    1    2    0    0  0.77300121073E+01  0.65635360436E+03  0.30098529624E+03  0.72211630337E+03  0.00000000000E+00 0. -1.
<mgrwt>
<rscale>  0 0.16403476E+04</rscale>
<asrwt>0</asrwt>
<pdfrwt beam="1">  1        1 0.98904863E-01 0.16403476E+04</pdfrwt>
<pdfrwt beam="2">  1       -1 0.16097833E+00 0.16403476E+04</pdfrwt>
<totfact> 0.85057186E+00</totfact>
</mgrwt>
</event>
<event>
 6    1  0.1028026E-006  0.3191600E+04  0.7818608E-02  0.8191039E-01
         -1   -1    0    0    0  501 -0.00000000000E+00  0.00000000000E+00  0.67105868711E+03  0.67105868711E+03  0.00000000000E+00 0.  1.
          1   -1    0    0  501    0  0.00000000000E+00 -0.00000000000E+00 -0.37948646221E+04  0.37948646221E+04  0.00000000000E+00 0. -1.
         23    2    1    2    0    0 -0.32529181272E+03 -0.13854481304E+04 -0.25693554644E+04  0.29386065085E+04  0.92409003572E+02 0.  0.
         11    1    3    3    0    0 -0.13072399644E+03 -0.42893592541E+03 -0.74508556526E+03  0.86961329964E+03  0.00000000000E+00 0.  1.
        -11    1    3    3    0    0 -0.19456781628E+03 -0.95651220500E+03 -0.18242698991E+04  0.20689932088E+04  0.00000000000E+00 0. -1.
         22    1    1    2    0    0  0.32529181272E+03  0.13854481304E+04 -0.55445047067E+03  0.15273168008E+04  0.00000000000E+00 0. -1.
<mgrwt>
<rscale>  0 0.31915995E+04</rscale>
<asrwt>0</asrwt>
<pdfrwt beam="1">  1        1 0.58382533E+00 0.31915995E+04</pdfrwt>
<pdfrwt beam="2">  1       -1 0.10323980E+00 0.31915995E+04</pdfrwt>
<totfact> 0.10656348E-01</totfact>
</mgrwt>
</event>
<event>
 6    1  0.1028026E-006  0.2729983E+04  0.7818608E-02  0.8325342E-01
         -1   -1    0    0    0  501 -0.00000000000E+00  0.00000000000E+00  0.18498631623E+04  0.18498631623E+04  0.00000000000E+00 0.  1.
          1   -1    0    0  501    0  0.00000000000E+00 -0.00000000000E+00 -0.10072103012E+04  0.10072103012E+04  0.00000000000E+00 0. -1.
         23    2    1    2    0    0 -0.10457153290E+04 -0.84688163207E+03  0.19179909802E+03  0.13623026887E+04  0.91392963182E+02 0.  0.
         13    1    3    3    0    0 -0.96665883006E+03 -0.76837053291E+03  0.15279156335E+03  0.12442539256E+04  0.00000000000E+00 0. -1.
        -13    1    3    3    0    0 -0.79056498944E+02 -0.78511099164E+02  0.39007534664E+02  0.11804876314E+03  0.00000000000E+00 0.  1.
         22    1    1    2    0    0  0.10457153290E+04  0.84688163207E+03  0.65085376317E+03  0.14947707748E+04  0.00000000000E+00 0.  1.
<mgrwt>
<rscale>  0 0.27299826E+04</rscale>
<asrwt>0</asrwt>
<pdfrwt beam="1">  1        1 0.15495543E+00 0.27299826E+04</pdfrwt>
<pdfrwt beam="2">  1       -1 0.28459433E+00 0.27299826E+04</pdfrwt>
<totfact> 0.54059076E-01</totfact>
</mgrwt>
</event>
<event>
 6    1  0.1028026E-006  0.8880677E+03  0.7818608E-02  0.9440621E-01
         -1   -1    0    0    0  501 -0.00000000000E+00  0.00000000000E+00  0.17597511460E+03  0.17597511460E+03  0.00000000000E+00 0.  1.
          1   -1    0    0  501    0  0.00000000000E+00 -0.00000000000E+00 -0.11204201873E+04  0.11204201873E+04  0.00000000000E+00 0. -1.
         23    2    1    2    0    0  0.42732967103E+03 -0.57900605742E+02 -0.35491271789E+03  0.56597656907E+03  0.91669578004E+02 0.  0.
         13    1    3    3    0    0  0.35785635478E+03 -0.35115393384E+02 -0.33186800989E+03  0.48931650033E+03  0.00000000000E+00 0. -1.
        -13    1    3    3    0    0  0.69473316242E+02 -0.22785212359E+02 -0.23044708005E+02  0.76660068739E+02  0.00000000000E+00 0.  1.
         22    1    1    2    0    0 -0.42732967103E+03  0.57900605742E+02 -0.58953235480E+03  0.73041873281E+03  0.00000000000E+00 0. -1.
<mgrwt>
<rscale>  0 0.88806772E+03</rscale>
<asrwt>0</asrwt>
<pdfrwt beam="1">  1        1 0.17237234E+00 0.88806772E+03</pdfrwt>
<pdfrwt beam="2">  1       -1 0.27073094E-01 0.88806772E+03</pdfrwt>
<totfact> 0.15042895E+02</totfact>
</mgrwt>
</event>
<event>
 6    1  0.1028026E-006  0.2244354E+04  0.7818608E-02  0.8500191E-01
         -4   -1    0    0    0  501 -0.00000000000E+00  0.00000000000E+00  0.14049029188E+04  0.14049029188E+04  0.00000000000E+00 0.  1.
          4   -1    0    0  501    0  0.00000000000E+00 -0.00000000000E+00 -0.89634743507E+03  0.89634743507E+03  0.00000000000E+00 0. -1.
         23    2    1    2    0    0  0.13281940848E+03 -0.96731906012E+03  0.81786114206E+03  0.12770349714E+04  0.92597576344E+02 0.  0.
         11    1    3    3    0    0  0.56566645354E+02 -0.36280005168E+03  0.36618298573E+03  0.51856884009E+03  0.00000000000E+00 0.  1.
        -11    1    3    3    0    0  0.76252763123E+02 -0.60451900844E+03  0.45167815633E+03  0.75846613132E+03  0.00000000000E+00 0. -1.
         22    1    1    2    0    0 -0.13281940848E+03  0.96731906012E+03 -0.30930565836E+03  0.10242153824E+04  0.00000000000E+00 0. -1.
<mgrwt>
<rscale>  0 0.22443539E+04</rscale>
<asrwt>0</asrwt>
<pdfrwt beam="1">  1        4 0.13789961E+00 0.22443539E+04</pdfrwt>
<pdfrwt beam="2">  1       -4 0.21613891E+00 0.22443539E+04</pdfrwt>
<totfact> 0.69871588E-02</totfact>
</mgrwt>
</event>
<event>
 6    1  0.1028026E-006  0.2343917E+04  0.7818608E-02  0.8460804E-01
         -1   -1    0    0    0  501 -0.00000000000E+00  0.00000000000E+00  0.44627081377E+03  0.44627081377E+03  0.00000000000E+00 0.  1.
          1   -1    0    0  501    0  0.00000000000E+00 -0.00000000000E+00 -0.30776979078E+04  0.30776979078E+04  0.00000000000E+00 0. -1.
         23    2    1    2    0    0 -0.66244074153E+03 -0.13814305442E+03 -0.27530288097E+04  0.28364382009E+04  0.91119707262E+02 0.  0.
         13    1    3    3    0    0 -0.37074324781E+03 -0.45556541775E+02 -0.13748641612E+04  0.14247025711E+04  0.00000000000E+00 0. -1.
        -13    1    3    3    0    0 -0.29169749372E+03 -0.92586512642E+02 -0.13781646485E+04  0.14117356298E+04  0.00000000000E+00 0.  1.
         22    1    1    2    0    0  0.66244074153E+03  0.13814305442E+03  0.12160171571E+03  0.68753052062E+03  0.00000000000E+00 0.  1.
<mgrwt>
<rscale>  0 0.23439170E+04</rscale>
<asrwt>0</asrwt>
<pdfrwt beam="1">  1        1 0.47349201E+00 0.23439170E+04</pdfrwt>
<pdfrwt beam="2">  1       -1 0.68657044E-01 0.23439170E+04</pdfrwt>
<totfact> 0.10139421E+00</totfact>
</mgrwt>
</event>
<event>
 6    1  0.1028026E-006  0.3031631E+04  0.7818608E-02  0.8234756E-01
         -1   -1    0    0    0  501 -0.00000000000E+00  0.00000000000E+00  0.12431185963E+04  0.12431185963E+04  0.00000000000E+00 0.  1.
          1   -1    0    0  501    0  0.00000000000E+00 -0.00000000000E+00 -0.18483331438E+04  0.18483331438E+04  0.00000000000E+00 0. -1.
         23    2    1    2    0    0  0.57887228655E+03  0.13687811446E+04 -0.60014090694E+03  0.16052886645E+04  0.90153437003E+02 0.  0.
         13    1    3    3    0    0  0.32097240629E+03  0.67882704327E+03 -0.26788954640E+03  0.79724165053E+03  0.00000000000E+00 0.  1.
        -13    1    3    3    0    0  0.25789988025E+03  0.68995410130E+03 -0.33225136054E+03  0.80804701393E+03  0.00000000000E+00 0. -1.
         22    1    1    2    0    0 -0.57887228655E+03 -0.13687811446E+04 -0.50736405635E+01  0.14861630757E+04  0.00000000000E+00 0.  1.
<mgrwt>
<rscale>  0 0.30316314E+04</rscale>
<asrwt>0</asrwt>
<pdfrwt beam="1">  1        1 0.28435894E+00 0.30316314E+04</pdfrwt>
<pdfrwt beam="2">  1       -1 0.19124902E+00 0.30316314E+04</pdfrwt>
<totfact> 0.55520037E-01</totfact>
</mgrwt>
</event>
<event>
 6    1  0.1028026E-006  0.5635377E+03  0.7818608E-02  0.9984082E-01
         -1   -1    0    0    0  501 -0.00000000000E+00  0.00000000000E+00  0.28806031259E+03  0.28806031259E+03  0.00000000000E+00 0.  1.
          1   -1    0    0  501    0  0.00000000000E+00 -0.00000000000E+00 -0.27561478007E+03  0.27561478007E+03  0.00000000000E+00 0. -1.
         23    2    1    2    0    0 -0.19810273888E+03  0.55870710881E+02 -0.17497138710E+03  0.28530244090E+03  0.91740203791E+02 0.  0.
         13    1    3    3    0    0 -0.16455266818E+03  0.61663090628E+01 -0.13804994894E+03  0.21487994875E+03  0.00000000000E+00 0. -1.
        -13    1    3    3    0    0 -0.33550070696E+02  0.49704401818E+02 -0.36921438157E+02  0.70422492141E+02  0.00000000000E+00 0.  1.
         22    1    1    2    0    0  0.19810273888E+03 -0.55870710881E+02  0.18741691962E+03  0.27837265176E+03  0.00000000000E+00 0.  1.
<mgrwt>
<rscale>  0 0.56353768E+03</rscale>
<asrwt>0</asrwt>
<pdfrwt beam="1">  1        1 0.42402274E-01 0.56353768E+03</pdfrwt>
<pdfrwt beam="2">  1       -1 0.44316971E-01 0.56353768E+03</pdfrwt>
<totfact> 0.49906000E+02</totfact>
</mgrwt>
</event>
<event>
 6    1  0.1028026E-006  0.1117494E+04  0.7818608E-02  0.9188307E-01
         -2   -1    0    0    0  501 -0.00000000000E+00  0.00000000000E+00  0.76612840832E+03  0.76612840832E+03  0.00000000000E+00 0.  1.
          2   -1    0    0  501    0  0.00000000000E+00 -0.00000000000E+00 -0.40750115245E+03  0.40750115245E+03  0.00000000000E+00 0. -1.
         23    2    1    2    0    0 -0.18976354229E+03  0.13901632913E+03  0.70836566886E+03  0.75214089038E+03  0.92726783691E+02 0.  0.
         13    1    3    3    0    0 -0.19609147416E+02  0.54149456509E+02  0.10816496196E+03  0.12254118205E+03  0.00000000000E+00 0. -1.
        -13    1    3    3    0    0 -0.17015439487E+03  0.84866872618E+02  0.60020070690E+03  0.62959970833E+03  0.00000000000E+00 0.  1.
         22    1    1    2    0    0  0.18976354229E+03 -0.13901632913E+03 -0.34973841299E+03  0.42148867039E+03  0.00000000000E+00 0. -1.
<mgrwt>
<rscale>  0 0.11174940E+04</rscale>
<asrwt>0</asrwt>
<pdfrwt beam="1">  1        2 0.62692485E-01 0.11174940E+04</pdfrwt>
<pdfrwt beam="2">  1       -2 0.11786591E+00 0.11174940E+04</pdfrwt>
<totfact> 0.42859262E+01</totfact>
</mgrwt>
</event>
<event>
 6    1  0.1028026E-006  0.3199147E+04  0.7818608E-02  0.8189043E-01
         -1   -1    0    0    0  501 -0.00000000000E+00  0.00000000000E+00  0.10622818457E+04  0.10622818457E+04  0.00000000000E+00 0.  1.
          1   -1    0    0  501    0  0.00000000000E+00 -0.00000000000E+00 -0.24086213757E+04  0.24086213757E+04  0.00000000000E+00 0. -1.
         23    2    1    2    0    0 -0.14099818718E+04  0.32831130073E+03 -0.14085096963E+04  0.20218682602E+04  0.90633921927E+02 0.  0.
         13    1    3    3    0    0 -0.73910546510E+03  0.17879275217E+03 -0.80210001269E+03  0.11052638450E+04  0.00000000000E+00 0. -1.
        -13    1    3    3    0    0 -0.67087640672E+03  0.14951854856E+03 -0.60640968365E+03  0.91660441516E+03  0.00000000000E+00 0.  1.
         22    1    1    2    0    0  0.14099818718E+04 -0.32831130073E+03  0.62170166366E+02  0.14490349612E+04  0.00000000000E+00 0.  1.
<mgrwt>
<rscale>  0 0.31991466E+04</rscale>
<asrwt>0</asrwt>
<pdfrwt beam="1">  1        1 0.37055714E+00 0.31991466E+04</pdfrwt>
<pdfrwt beam="2">  1       -1 0.16342798E+00 0.31991466E+04</pdfrwt>
<totfact> 0.36095069E-01</totfact>
</mgrwt>
</event>
<event>
 6    1  0.1028026E-006  0.1682743E+04  0.7818608E-02  0.8771268E-01
          2   -1    0    0  501    0  0.00000000000E+00  0.00000000000E+00  0.13866449631E+04  0.13866449631E+04  0.00000000000E+00 0. -1.
         -2   -1    0    0    0  501 -0.00000000000E+00 -0.00000000000E+00 -0.51051708592E+03  0.51051708592E+03  0.00000000000E+00 0.  1.
         23    2    1    2    0    0 -0.21316087610E+03  0.81141079912E+03  0.42834529208E+03  0.94619712454E+03  0.89354715705E+02 0.  0.
         13    1    3    3    0    0 -0.60603397905E+02  0.39233605591E+03  0.18224374707E+03  0.43682162945E+03  0.00000000000E+00 0. -1.
        -13    1    3    3    0    0 -0.15255747820E+03  0.41907474320E+03  0.24610154501E+03  0.50937549509E+03  0.00000000000E+00 0.  1.
         22    1    1    2    0    0  0.21316087610E+03 -0.81141079912E+03  0.44778258505E+03  0.95096492443E+03  0.00000000000E+00 0.  1.
<mgrwt>
<rscale>  0 0.16827429E+04</rscale>
<asrwt>0</asrwt>
<pdfrwt beam="1">  1        2 0.21332999E+00 0.16827429E+04</pdfrwt>
<pdfrwt beam="2">  1       -2 0.78541091E-01 0.16827429E+04</pdfrwt>
<totfact> 0.20217926E+01</totfact>
</mgrwt>
</event>
<event>
 6    1  0.1028026E-006  0.5203045E+04  0.7818608E-02  0.7797927E-01
          2   -1    0    0  501    0  0.00000000000E+00  0.00000000000E+00  0.29898900152E+04  0.29898900152E+04  0.00000000000E+00 0. -1.
         -2   -1    0    0    0  501 -0.00000000000E+00 -0.00000000000E+00 -0.22636015551E+04  0.22636015551E+04  0.00000000000E+00 0.  1.
         23    2    1    2    0    0  0.22118283620E+04 -0.40518850221E+03  0.16825910013E+04  0.28099537712E+04  0.91461979254E+02 0.  0.
         13    1    3    3    0    0  0.90131025849E+03 -0.17581334527E+03  0.63277238436E+03  0.11152001636E+04  0.00000000000E+00 0. -1.
        -13    1    3    3    0    0  0.13105181035E+04 -0.22937515694E+03  0.10498186170E+04  0.16947536077E+04  0.00000000000E+00 0.  1.
         22    1    1    2    0    0 -0.22118283620E+04  0.40518850221E+03 -0.95630254119E+03  0.24435377990E+04  0.00000000000E+00 0.  1.
<mgrwt>
<rscale>  0 0.52030451E+04</rscale>
<asrwt>0</asrwt>
<pdfrwt beam="1">  1        2 0.45998308E+00 0.52030451E+04</pdfrwt>
<pdfrwt beam="2">  1       -2 0.34824639E+00 0.52030451E+04</pdfrwt>
<totfact> 0.20192596E-02</totfact>
</mgrwt>
</event>
<event>
 6    1  0.1028026E-006  0.2323352E+04  0.7818608E-02  0.8468770E-01
          2   -1    0    0  501    0  0.00000000000E+00  0.00000000000E+00  0.99646642550E+03  0.99646642550E+03  0.00000000000E+00 0. -1.
         -2   -1    0    0    0  501 -0.00000000000E+00 -0.00000000000E+00 -0.13542759918E+04  0.13542759918E+04  0.00000000000E+00 0.  1.
         23    2    1    2    0    0 -0.66523391107E+03 -0.35232987397E+02 -0.11398583207E+04  0.13234266070E+04  0.91670459016E+02 0.  0.
         13    1    3    3    0    0 -0.28477295519E+03 -0.49020210405E+02 -0.43302671782E+03  0.52058693355E+03  0.00000000000E+00 0.  1.
        -13    1    3    3    0    0 -0.38046095588E+03  0.13787223007E+02 -0.70683160285E+03  0.80283967344E+03  0.00000000000E+00 0. -1.
         22    1    1    2    0    0  0.66523391107E+03  0.35232987397E+02  0.78204875438E+03  0.10273158103E+04  0.00000000000E+00 0. -1.
<mgrwt>
<rscale>  0 0.23233515E+04</rscale>
<asrwt>0</asrwt>
<pdfrwt beam="1">  1        2 0.15330253E+00 0.23233515E+04</pdfrwt>
<pdfrwt beam="2">  1       -2 0.20835015E+00 0.23233515E+04</pdfrwt>
<totfact> 0.26881185E+00</totfact>
</mgrwt>
</event>
<event>
 6    1  0.1028026E-006  0.2318754E+04  0.7818608E-02  0.8470563E-01
          2   -1    0    0  501    0  0.00000000000E+00  0.00000000000E+00  0.10225796767E+04  0.10225796767E+04  0.00000000000E+00 0. -1.
         -2   -1    0    0    0  501 -0.00000000000E+00 -0.00000000000E+00 -0.13144747400E+04  0.13144747400E+04  0.00000000000E+00 0.  1.
         23    2    1    2    0    0 -0.16831273255E+03  0.34904326999E+03  0.95326586334E+03  0.10329891908E+04  0.90501280813E+02 0.  0.
         13    1    3    3    0    0 -0.12910422029E+03  0.31458520831E+03  0.87656416581E+03  0.94021087516E+03  0.00000000000E+00 0. -1.
        -13    1    3    3    0    0 -0.39208512260E+02  0.34458061686E+02  0.76701697521E+02  0.92778315631E+02  0.00000000000E+00 0.  1.
         22    1    1    2    0    0  0.16831273255E+03 -0.34904326999E+03 -0.12451609267E+04  0.13040652260E+04  0.00000000000E+00 0.  1.
<mgrwt>
<rscale>  0 0.23187541E+04</rscale>
<asrwt>0</asrwt>
<pdfrwt beam="1">  1        2 0.15731995E+00 0.23187541E+04</pdfrwt>
<pdfrwt beam="2">  1       -2 0.20222688E+00 0.23187541E+04</pdfrwt>
<totfact> 0.28357300E+00</totfact>
</mgrwt>
</event>
<event>
 6    1  0.1028026E-006  0.1848017E+04  0.7818608E-02  0.8681173E-01
          2   -1    0    0  501    0  0.00000000000E+00  0.00000000000E+00  0.13888831804E+04  0.13888831804E+04  0.00000000000E+00 0. -1.
         -2   -1    0    0    0  501 -0.00000000000E+00 -0.00000000000E+00 -0.61473284875E+03  0.61473284875E+03  0.00000000000E+00 0.  1.
         23    2    1    2    0    0  0.10888002752E+03  0.51898567644E+03  0.12052711198E+04  0.13201936658E+04  0.95036047099E+02 0.  0.
         11    1    3    3    0    0  0.99633734339E+02  0.29560398168E+03  0.62985041531E+03  0.70286566332E+03  0.00000000000E+00 0.  1.
        -11    1    3    3    0    0  0.92462931837E+01  0.22338169475E+03  0.57542070453E+03  0.61732800251E+03  0.00000000000E+00 0. -1.
         22    1    1    2    0    0 -0.10888002752E+03 -0.51898567644E+03 -0.43112078816E+03  0.68342236335E+03  0.00000000000E+00 0.  1.
<mgrwt>
<rscale>  0 0.18480174E+04</rscale>
<asrwt>0</asrwt>
<pdfrwt beam="1">  1        2 0.21367433E+00 0.18480174E+04</pdfrwt>
<pdfrwt beam="2">  1       -2 0.94574285E-01 0.18480174E+04</pdfrwt>
<totfact> 0.13008610E+01</totfact>
</mgrwt>
</event>
<event>
 6    1  0.1028026E-006  0.1744679E+04  0.7818608E-02  0.8736285E-01
          2   -1    0    0  501    0  0.00000000000E+00  0.00000000000E+00  0.72147645278E+03  0.72147645278E+03  0.00000000000E+00 0. -1.
         -2   -1    0    0    0  501 -0.00000000000E+00 -0.00000000000E+00 -0.10547483774E+04  0.10547483774E+04  0.00000000000E+00 0.  1.
         23    2    1    2    0    0 -0.46074173289E+03 -0.73792055356E+03 -0.17946834022E+03  0.89278539801E+03  0.89706153485E+02 0.  0.
         13    1    3    3    0    0 -0.21201537877E+03 -0.34405534133E+03 -0.12904655351E+03  0.42423768303E+03  0.00000000000E+00 0.  1.
        -13    1    3    3    0    0 -0.24872635412E+03 -0.39386521223E+03 -0.50421786708E+02  0.46854771498E+03  0.00000000000E+00 0. -1.
         22    1    1    2    0    0  0.46074173289E+03  0.73792055356E+03 -0.15380358445E+03  0.88343943221E+03  0.00000000000E+00 0.  1.
<mgrwt>
<rscale>  0 0.17446789E+04</rscale>
<asrwt>0</asrwt>
<pdfrwt beam="1">  1        2 0.11099638E+00 0.17446789E+04</pdfrwt>
<pdfrwt beam="2">  1       -2 0.16226898E+00 0.17446789E+04</pdfrwt>
<totfact> 0.90553678E+00</totfact>
</mgrwt>
</event>
<event>
 6    1  0.1028026E-006  0.1133540E+04  0.7818608E-02  0.9173104E-01
          2   -1    0    0  501    0  0.00000000000E+00  0.00000000000E+00  0.12817246898E+04  0.12817246898E+04  0.00000000000E+00 0. -1.
         -2   -1    0    0    0  501 -0.00000000000E+00 -0.00000000000E+00 -0.25062194846E+03  0.25062194846E+03  0.00000000000E+00 0.  1.
         23    2    1    2    0    0  0.37302964241E+03  0.29162087193E+03  0.10674582612E+03  0.49377571927E+03  0.90696981708E+02 0.  0.
         11    1    3    3    0    0  0.11914510362E+03  0.14194741780E+03  0.63501329070E+02  0.19590059707E+03  0.00000000000E+00 0. -1.
        -11    1    3    3    0    0  0.25388453878E+03  0.14967345413E+03  0.43244497050E+02  0.29787512220E+03  0.00000000000E+00 0.  1.
         22    1    1    2    0    0 -0.37302964241E+03 -0.29162087193E+03  0.92435691522E+03  0.10385709190E+04  0.00000000000E+00 0. -1.
<mgrwt>
<rscale>  0 0.11335402E+04</rscale>
<asrwt>0</asrwt>
<pdfrwt beam="1">  1        2 0.19718841E+00 0.11335402E+04</pdfrwt>
<pdfrwt beam="2">  1       -2 0.38557224E-01 0.11335402E+04</pdfrwt>
<totfact> 0.10659892E+02</totfact>
</mgrwt>
</event>
<event>
 6    1  0.1028026E-006  0.1074782E+04  0.7818608E-02  0.9230126E-01
         -1   -1    0    0    0  501 -0.00000000000E+00  0.00000000000E+00  0.56322481116E+03  0.56322481116E+03  0.00000000000E+00 0.  1.
          1   -1    0    0  501    0  0.00000000000E+00 -0.00000000000E+00 -0.51274167198E+03  0.51274167198E+03  0.00000000000E+00 0. -1.
         23    2    1    2    0    0  0.53233978370E+03 -0.26055507455E+02  0.98664792950E+00  0.54069604922E+03  0.91031364841E+02 0.  0.
         13    1    3    3    0    0  0.43730542970E+03 -0.93324020919E+01  0.33964999752E+02  0.43872172704E+03  0.00000000000E+00 0. -1.
        -13    1    3    3    0    0  0.95034354005E+02 -0.16723105363E+02 -0.32978351822E+02  0.10197432218E+03  0.00000000000E+00 0.  1.
         22    1    1    2    0    0 -0.53233978370E+03  0.26055507455E+02  0.49496491247E+02  0.53527043392E+03  0.00000000000E+00 0. -1.
<mgrwt>
<rscale>  0 0.10747815E+04</rscale>
<asrwt>0</asrwt>
<pdfrwt beam="1">  1        1 0.78883334E-01 0.10747815E+04</pdfrwt>
<pdfrwt beam="2">  1       -1 0.86649971E-01 0.10747815E+04</pdfrwt>
<totfact> 0.56123005E+01</totfact>
</mgrwt>
</event>
<event>
 6    1  0.1028026E-006  0.1176701E+04  0.7818608E-02  0.9133498E-01
          2   -1    0    0  501    0  0.00000000000E+00  0.00000000000E+00  0.84621831323E+03  0.84621831323E+03  0.00000000000E+00 0. -1.
         -2   -1    0    0    0  501 -0.00000000000E+00 -0.00000000000E+00 -0.40906299300E+03  0.40906299300E+03  0.00000000000E+00 0.  1.
         23    2    1    2    0    0  0.51482889799E+01 -0.17732894108E+03  0.81436043433E+03  0.83844110145E+03  0.91260645340E+02 0.  0.
         13    1    3    3    0    0 -0.12877547768E+02 -0.28135623367E+02  0.32641558506E+03  0.32787890860E+03  0.00000000000E+00 0. -1.
        -13    1    3    3    0    0  0.18025836748E+02 -0.14919331771E+03  0.48794484927E+03  0.51056219285E+03  0.00000000000E+00 0.  1.
         22    1    1    2    0    0 -0.51482889799E+01  0.17732894108E+03 -0.37720511409E+03  0.41684020478E+03  0.00000000000E+00 0.  1.
<mgrwt>
<rscale>  0 0.11767015E+04</rscale>
<asrwt>0</asrwt>
<pdfrwt beam="1">  1        2 0.13018743E+00 0.11767015E+04</pdfrwt>
<pdfrwt beam="2">  1       -2 0.62932768E-01 0.11767015E+04</pdfrwt>
<totfact> 0.73862718E+01</totfact>
</mgrwt>
</event>
<event>
 6    1  0.1028026E-006  0.8579377E+03  0.7818608E-02  0.9479745E-01
         -2   -1    0    0    0  501 -0.00000000000E+00  0.00000000000E+00  0.31251176529E+03  0.31251176529E+03  0.00000000000E+00 0.  1.
          2   -1    0    0  501    0  0.00000000000E+00 -0.00000000000E+00 -0.58882354538E+03  0.58882354538E+03  0.00000000000E+00 0. -1.
         23    2    1    2    0    0  0.41645683634E+03 -0.75078731823E+02 -0.11419246043E+03  0.44817332384E+03  0.93521642843E+02 0.  0.
         13    1    3    3    0    0  0.21748689586E+03 -0.28652415705E+02 -0.11916462286E+02  0.21968958298E+03  0.00000000000E+00 0.  1.
        -13    1    3    3    0    0  0.19896994047E+03 -0.46426316117E+02 -0.10227599814E+03  0.22848374086E+03  0.00000000000E+00 0. -1.
         22    1    1    2    0    0 -0.41645683634E+03  0.75078731823E+02 -0.16211931966E+03  0.45316198683E+03  0.00000000000E+00 0. -1.
<mgrwt>
<rscale>  0 0.85793773E+03</rscale>
<asrwt>0</asrwt>
<pdfrwt beam="1">  1        2 0.90588236E-01 0.85793773E+03</pdfrwt>
<pdfrwt beam="2">  1       -2 0.48078734E-01 0.85793773E+03</pdfrwt>
<totfact> 0.20896206E+02</totfact>
</mgrwt>
</event>
<event>
 6    1  0.1028026E-006  0.2628844E+04  0.7818608E-02  0.8358469E-01
          1   -1    0    0  501    0  0.00000000000E+00  0.00000000000E+00  0.22055987317E+04  0.22055987317E+04  0.00000000000E+00 0. -1.
         -1   -1    0    0    0  501 -0.00000000000E+00 -0.00000000000E+00 -0.78332702279E+03  0.78332702279E+03  0.00000000000E+00 0.  1.
         23    2    1    2    0    0 -0.47612519096E+03 -0.88317221509E+02 -0.67540175339E+03  0.83608366007E+03  0.91505349984E+02 0.  0.
         13    1    3    3    0    0 -0.18881971057E+03  0.70329686743E+01 -0.28771692633E+03  0.34421414185E+03  0.00000000000E+00 0. -1.
        -13    1    3    3    0    0 -0.28730548039E+03 -0.95350190184E+02 -0.38768482706E+03  0.49186951823E+03  0.00000000000E+00 0.  1.
         22    1    1    2    0    0  0.47612519096E+03  0.88317221509E+02  0.20976734623E+04  0.21528420945E+04  0.00000000000E+00 0. -1.
<mgrwt>
<rscale>  0 0.26288439E+04</rscale>
<asrwt>0</asrwt>
<pdfrwt beam="1">  1        1 0.33932288E+00 0.26288439E+04</pdfrwt>
<pdfrwt beam="2">  1       -1 0.12051185E+00 0.26288439E+04</pdfrwt>
<totfact> 0.11619753E+00</totfact>
</mgrwt>
</event>
<event>
 6    1  0.1028026E-006  0.9022833E+03  0.7818608E-02  0.9422732E-01
         -1   -1    0    0    0  501 -0.00000000000E+00  0.00000000000E+00  0.53582424680E+03  0.53582424680E+03  0.00000000000E+00 0.  1.
          1   -1    0    0  501    0  0.00000000000E+00 -0.00000000000E+00 -0.37984246323E+03  0.37984246323E+03  0.00000000000E+00 0. -1.
         23    2    1    2    0    0  0.33278891516E+03 -0.22448043464E+03  0.27781773376E+03  0.49616232823E+03  0.88625251280E+02 0.  0.
         13    1    3    3    0    0  0.16217800612E+03 -0.16224659360E+03  0.15021618321E+03  0.27420897962E+03  0.00000000000E+00 0.  1.
        -13    1    3    3    0    0  0.17061090904E+03 -0.62233841039E+02  0.12760155055E+03  0.22195334860E+03  0.00000000000E+00 0. -1.
         22    1    1    2    0    0 -0.33278891516E+03  0.22448043464E+03 -0.12183595019E+03  0.41950438180E+03  0.00000000000E+00 0. -1.
<mgrwt>
<rscale>  0 0.90228333E+03</rscale>
<asrwt>0</asrwt>
<pdfrwt beam="1">  1        1 0.58437302E-01 0.90228333E+03</pdfrwt>
<pdfrwt beam="2">  1       -1 0.82434499E-01 0.90228333E+03</pdfrwt>
<totfact> 0.94812084E+01</totfact>
</mgrwt>
</event>
<event>
 6    1  0.1028026E-006  0.1646836E+04  0.7818608E-02  0.8792281E-01
         -1   -1    0    0    0  501 -0.00000000000E+00  0.00000000000E+00  0.22355218420E+03  0.22355218420E+03  0.00000000000E+00 0.  1.
          1   -1    0    0  501    0  0.00000000000E+00 -0.00000000000E+00 -0.30329250446E+04  0.30329250446E+04  0.00000000000E+00 0. -1.
         23    2    1    2    0    0 -0.18724067846E+03 -0.52072873770E+03 -0.21000938917E+03  0.59886402416E+03  0.91195865931E+02 0.  0.
         13    1    3    3    0    0 -0.43397434351E+02 -0.94019678749E+02 -0.77904664174E+02  0.12958462100E+03  0.00000000000E+00 0.  1.
        -13    1    3    3    0    0 -0.14384324411E+03 -0.42670905895E+03 -0.13210472500E+03  0.46927940316E+03  0.00000000000E+00 0. -1.
         22    1    1    2    0    0  0.18724067846E+03  0.52072873770E+03 -0.25993634712E+04  0.26576132046E+04  0.00000000000E+00 0. -1.
<mgrwt>
<rscale>  0 0.16468358E+04</rscale>
<asrwt>0</asrwt>
<pdfrwt beam="1">  1        1 0.46660386E+00 0.16468358E+04</pdfrwt>
<pdfrwt beam="2">  1       -1 0.34392643E-01 0.16468358E+04</pdfrwt>
<totfact> 0.43485506E+00</totfact>
</mgrwt>
</event>
<event>
 6    1  0.1028026E-006  0.4348904E+04  0.7818608E-02  0.7937637E-01
          2   -1    0    0  501    0  0.00000000000E+00  0.00000000000E+00  0.28953606829E+04  0.28953606829E+04  0.00000000000E+00 0. -1.
         -2   -1    0    0    0  501 -0.00000000000E+00 -0.00000000000E+00 -0.16330406487E+04  0.16330406487E+04  0.00000000000E+00 0.  1.
         23    2    1    2    0    0  0.20876650183E+04 -0.18580641897E+02  0.20067628216E+01  0.20897377610E+04  0.91155988106E+02 0.  0.
         11    1    3    3    0    0  0.17341804450E+04 -0.22553273328E+02  0.35126491943E+02  0.17346827769E+04  0.00000000000E+00 0.  1.
        -11    1    3    3    0    0  0.35348457325E+03  0.39726314313E+01 -0.33119729122E+02  0.35505498417E+03  0.00000000000E+00 0. -1.
         22    1    1    2    0    0 -0.20876650183E+04  0.18580641897E+02  0.12603132713E+04  0.24386635706E+04  0.00000000000E+00 0.  1.
<mgrwt>
<rscale>  0 0.43489041E+04</rscale>
<asrwt>0</asrwt>
<pdfrwt beam="1">  1        2 0.44544011E+00 0.43489041E+04</pdfrwt>
<pdfrwt beam="2">  1       -2 0.25123702E+00 0.43489041E+04</pdfrwt>
<totfact> 0.97909800E-02</totfact>
</mgrwt>
</event>
<event>
 6    1  0.1028026E-006  0.1851595E+04  0.7818608E-02  0.8679333E-01
          2   -1    0    0  501    0  0.00000000000E+00  0.00000000000E+00  0.63433140772E+03  0.63433140772E+03  0.00000000000E+00 0. -1.
         -2   -1    0    0    0  501 -0.00000000000E+00 -0.00000000000E+00 -0.13511884196E+04  0.13511884196E+04  0.00000000000E+00 0.  1.
         23    2    1    2    0    0  0.34678214787E+03  0.32990472557E+02  0.55759951670E+03  0.66431368421E+03  0.95127391639E+02 0.  0.
         13    1    3    3    0    0  0.25601488062E+03  0.21432689738E+02  0.47961426351E+03  0.54408898265E+03  0.00000000000E+00 0.  1.
        -13    1    3    3    0    0  0.90767267250E+02  0.11557782819E+02  0.77985253198E+02  0.12022470156E+03  0.00000000000E+00 0. -1.
         22    1    1    2    0    0 -0.34678214787E+03 -0.32990472557E+02 -0.12744565286E+04  0.13212061431E+04  0.00000000000E+00 0.  1.
<mgrwt>
<rscale>  0 0.18515953E+04</rscale>
<asrwt>0</asrwt>
<pdfrwt beam="1">  1        2 0.97589449E-01 0.18515953E+04</pdfrwt>
<pdfrwt beam="2">  1       -2 0.20787514E+00 0.18515953E+04</pdfrwt>
<totfact> 0.51448619E+00</totfact>
</mgrwt>
</event>
<event>
 6    1  0.1028026E-006  0.3006437E+04  0.7818608E-02  0.8241895E-01
          2   -1    0    0  501    0  0.00000000000E+00  0.00000000000E+00  0.20329922325E+04  0.20329922325E+04  0.00000000000E+00 0. -1.
         -2   -1    0    0    0  501 -0.00000000000E+00 -0.00000000000E+00 -0.11114972155E+04  0.11114972155E+04  0.00000000000E+00 0.  1.
         23    2    1    2    0    0 -0.13633268977E+04  0.62883701859E+03  0.42066968481E+03  0.15617948346E+04  0.90243536488E+02 0.  0.
         11    1    3    3    0    0 -0.81161522762E+03  0.39563829294E+03  0.21150997478E+03  0.92735398095E+03  0.00000000000E+00 0.  1.
        -11    1    3    3    0    0 -0.55171167007E+03  0.23319872565E+03  0.20915971003E+03  0.63444085370E+03  0.00000000000E+00 0. -1.
         22    1    1    2    0    0  0.13633268977E+04 -0.62883701859E+03  0.50082533212E+03  0.15826946134E+04  0.00000000000E+00 0. -1.
<mgrwt>
<rscale>  0 0.30064366E+04</rscale>
<asrwt>0</asrwt>
<pdfrwt beam="1">  1        2 0.31276804E+00 0.30064366E+04</pdfrwt>
<pdfrwt beam="2">  1       -2 0.17099957E+00 0.30064366E+04</pdfrwt>
<totfact> 0.11489724E+00</totfact>
</mgrwt>
</event>
<event>
 6    1  0.1028026E-006  0.1087695E+04  0.7818608E-02  0.9217269E-01
          2   -1    0    0  501    0  0.00000000000E+00  0.00000000000E+00  0.88673047181E+03  0.88673047181E+03  0.00000000000E+00 0. -1.
         -2   -1    0    0    0  501 -0.00000000000E+00 -0.00000000000E+00 -0.33355121379E+03  0.33355121379E+03  0.00000000000E+00 0.  1.
         23    2    1    2    0    0 -0.49873932457E+03  0.20707712012E+03  0.26868220038E+03  0.60990440608E+03  0.90395863910E+02 0.  0.
         11    1    3    3    0    0 -0.24898162997E+03  0.15135198755E+03  0.13366078145E+03  0.32056899522E+03  0.00000000000E+00 0.  1.
        -11    1    3    3    0    0 -0.24975769460E+03  0.55725132570E+02  0.13502141893E+03  0.28933541086E+03  0.00000000000E+00 0. -1.
         22    1    1    2    0    0  0.49873932457E+03 -0.20707712012E+03  0.28449705763E+03  0.61037727952E+03  0.00000000000E+00 0. -1.
<mgrwt>
<rscale>  0 0.10876949E+04</rscale>
<asrwt>0</asrwt>
<pdfrwt beam="1">  1        2 0.13642007E+00 0.10876949E+04</pdfrwt>
<pdfrwt beam="2">  1       -2 0.51315572E-01 0.10876949E+04</pdfrwt>
<totfact> 0.10672761E+02</totfact>
</mgrwt>
</event>
<event>
 6    1  0.1028026E-006  0.1637720E+04  0.7818608E-02  0.8797705E-01
          1   -1    0    0  501    0  0.00000000000E+00  0.00000000000E+00  0.79263149822E+03  0.79263149822E+03  0.00000000000E+00 0. -1.
         -1   -1    0    0    0  501 -0.00000000000E+00 -0.00000000000E+00 -0.84595620983E+03  0.84595620983E+03  0.00000000000E+00 0.  1.
         23    2    1    2    0    0 -0.76783999275E+03 -0.26989329715E+03 -0.89988988241E+02  0.82387001738E+03  0.90791746481E+02 0.  0.
         13    1    3    3    0    0 -0.11699894537E+03 -0.76971030695E+02 -0.19182484090E+02  0.14135508650E+03  0.00000000000E+00 0. -1.
        -13    1    3    3    0    0 -0.65084104738E+03 -0.19292226646E+03 -0.70806504151E+02  0.68251493089E+03  0.00000000000E+00 0.  1.
         22    1    1    2    0    0  0.76783999275E+03  0.26989329715E+03  0.36664276627E+02  0.81471769067E+03  0.00000000000E+00 0. -1.
<mgrwt>
<rscale>  0 0.16377198E+04</rscale>
<asrwt>0</asrwt>
<pdfrwt beam="1">  1        1 0.12194331E+00 0.16377198E+04</pdfrwt>
<pdfrwt beam="2">  1       -1 0.13014711E+00 0.16377198E+04</pdfrwt>
<totfact> 0.10857254E+01</totfact>
</mgrwt>
</event>
<event>
 6    1  0.1028026E-006  0.3135569E+04  0.7818608E-02  0.8206043E-01
         -1   -1    0    0    0  501 -0.00000000000E+00  0.00000000000E+00  0.17156954680E+04  0.17156954680E+04  0.00000000000E+00 0.  1.
          1   -1    0    0  501    0  0.00000000000E+00 -0.00000000000E+00 -0.14326253958E+04  0.14326253958E+04  0.00000000000E+00 0. -1.
         23    2    1    2    0    0  0.71587947487E+03  0.13450556092E+04 -0.22340731884E+03  0.15426504860E+04  0.90563113105E+02 0.  0.
         13    1    3    3    0    0  0.43966033796E+03  0.84699337906E+03 -0.18297231846E+03  0.97168815279E+03  0.00000000000E+00 0.  1.
        -13    1    3    3    0    0  0.27621913691E+03  0.49806223014E+03 -0.40435000380E+02  0.57096233321E+03  0.00000000000E+00 0. -1.
         22    1    1    2    0    0 -0.71587947487E+03 -0.13450556092E+04  0.50647739109E+03  0.16056703778E+04  0.00000000000E+00 0.  1.
<mgrwt>
<rscale>  0 0.31355694E+04</rscale>
<asrwt>0</asrwt>
<pdfrwt beam="1">  1        1 0.22040391E+00 0.31355694E+04</pdfrwt>
<pdfrwt beam="2">  1       -1 0.26395315E+00 0.31355694E+04</pdfrwt>
<totfact> 0.34676365E-01</totfact>
</mgrwt>
</event>
<event>
 6    1  0.1028026E-006  0.3199184E+04  0.7818608E-02  0.8189033E-01
          1   -1    0    0  501    0  0.00000000000E+00  0.00000000000E+00  0.34405371876E+04  0.34405371876E+04  0.00000000000E+00 0. -1.
         -1   -1    0    0    0  501 -0.00000000000E+00 -0.00000000000E+00 -0.74369045489E+03  0.74369045489E+03  0.00000000000E+00 0.  1.
         23    2    1    2    0    0  0.10193235151E+04 -0.88127164338E+03  0.22540035582E+03  0.13693195922E+04  0.92578005784E+02 0.  0.
         13    1    3    3    0    0  0.67016711739E+03 -0.63512569423E+03  0.14528884987E+03  0.93467505722E+03  0.00000000000E+00 0.  1.
        -13    1    3    3    0    0  0.34915639775E+03 -0.24614594916E+03  0.80111505954E+02  0.43464453495E+03  0.00000000000E+00 0. -1.
         22    1    1    2    0    0 -0.10193235151E+04  0.88127164338E+03  0.24714463769E+04  0.28149080503E+04  0.00000000000E+00 0. -1.
<mgrwt>
<rscale>  0 0.31991841E+04</rscale>
<asrwt>0</asrwt>
<pdfrwt beam="1">  1        1 0.52931340E+00 0.31991841E+04</pdfrwt>
<pdfrwt beam="2">  1       -1 0.11441392E+00 0.31991841E+04</pdfrwt>
<totfact> 0.16157387E-01</totfact>
</mgrwt>
</event>
<event>
 6    1  0.1028026E-006  0.1466746E+04  0.7818608E-02  0.8906873E-01
          3   -1    0    0  501    0  0.00000000000E+00  0.00000000000E+00  0.47166141239E+03  0.47166141239E+03  0.00000000000E+00 0. -1.
         -3   -1    0    0    0  501 -0.00000000000E+00 -0.00000000000E+00 -0.11403010233E+04  0.11403010233E+04  0.00000000000E+00 0.  1.
         23    2    1    2    0    0  0.67876855196E+03 -0.25616310139E+03 -0.24347496363E+03  0.77106335797E+03  0.94405309403E+02 0.  0.
         11    1    3    3    0    0  0.28752130002E+03 -0.15372524036E+03 -0.87306968738E+02  0.33752400548E+03  0.00000000000E+00 0. -1.
        -11    1    3    3    0    0  0.39124725194E+03 -0.10243786103E+03 -0.15616799489E+03  0.43353935249E+03  0.00000000000E+00 0.  1.
         22    1    1    2    0    0 -0.67876855196E+03  0.25616310139E+03 -0.42516464731E+03  0.84089907776E+03  0.00000000000E+00 0.  1.
<mgrwt>
<rscale>  0 0.14667460E+04</rscale>
<asrwt>0</asrwt>
<pdfrwt beam="1">  1        3 0.72563294E-01 0.14667460E+04</pdfrwt>
<pdfrwt beam="2">  1       -3 0.17543093E+00 0.14667460E+04</pdfrwt>
<totfact> 0.97187503E-01</totfact>
</mgrwt>
</event>
<event>
 6    1  0.1028026E-006  0.1776479E+04  0.7818608E-02  0.8718908E-01
          2   -1    0    0  501    0  0.00000000000E+00  0.00000000000E+00  0.36338247154E+04  0.36338247154E+04  0.00000000000E+00 0. -1.
         -2   -1    0    0    0  501 -0.00000000000E+00 -0.00000000000E+00 -0.21711828436E+03  0.21711828436E+03  0.00000000000E+00 0.  1.
         23    2    1    2    0    0 -0.69823855588E+03  0.11921646314E+03  0.55866746359E+03  0.90643346752E+03  0.88105903129E+02 0.  0.
         13    1    3    3    0    0 -0.22549891237E+03 -0.69908306281E+00  0.19393900978E+03  0.29742660895E+03  0.00000000000E+00 0. -1.
        -13    1    3    3    0    0 -0.47273964351E+03  0.11991554620E+03  0.36472845381E+03  0.60900685857E+03  0.00000000000E+00 0.  1.
         22    1    1    2    0    0  0.69823855588E+03 -0.11921646314E+03  0.28580389674E+04  0.29445095322E+04  0.00000000000E+00 0. -1.
<mgrwt>
<rscale>  0 0.17764794E+04</rscale>
<asrwt>0</asrwt>
<pdfrwt beam="1">  1        2 0.55904991E+00 0.17764794E+04</pdfrwt>
<pdfrwt beam="2">  1       -2 0.33402816E-01 0.17764794E+04</pdfrwt>
<totfact> 0.52225847E+00</totfact>
</mgrwt>
</event>
<event>
 6    1  0.1046155E-006  0.4391896E+04  0.7818608E-02  0.7929841E-01
          2   -1    0    0  501    0  0.00000000000E+00  0.00000000000E+00  0.24993436530E+04  0.24993436530E+04  0.00000000000E+00 0. -1.
         -2   -1    0    0    0  501 -0.00000000000E+00 -0.00000000000E+00 -0.19293816514E+04  0.19293816514E+04  0.00000000000E+00 0.  1.
         23    2    1    2    0    0  0.31110860145E+03  0.20667344029E+04  0.96166512908E+03  0.23023173017E+04  0.87666886461E+02 0.  0.
         13    1    3    3    0    0  0.89126000218E+02  0.50779831933E+03  0.27682257857E+03  0.58517802166E+03  0.00000000000E+00 0. -1.
        -13    1    3    3    0    0  0.22198260123E+03  0.15589360836E+04  0.68484255051E+03  0.17171392800E+04  0.00000000000E+00 0.  1.
         22    1    1    2    0    0 -0.31110860145E+03 -0.20667344029E+04 -0.39170312753E+03  0.21264080028E+04  0.00000000000E+00 0.  1.
<mgrwt>
<rscale>  0 0.43918961E+04</rscale>
<asrwt>0</asrwt>
<pdfrwt beam="1">  1        2 0.38451441E+00 0.43918961E+04</pdfrwt>
<pdfrwt beam="2">  1       -2 0.29682795E+00 0.43918961E+04</pdfrwt>
<totfact> 0.88513523E-02</totfact>
</mgrwt>
</event>
<event>
 6    1  0.1028026E-006  0.3689571E+04  0.7818608E-02  0.8070277E-01
          1   -1    0    0  501    0  0.00000000000E+00  0.00000000000E+00  0.20244300254E+04  0.20244300254E+04  0.00000000000E+00 0. -1.
         -1   -1    0    0    0  501 -0.00000000000E+00 -0.00000000000E+00 -0.16810821061E+04  0.16810821061E+04  0.00000000000E+00 0.  1.
         23    2    1    2    0    0  0.71950342846E+03 -0.16504619890E+04  0.57041649777E+03  0.18907752083E+04  0.89140038888E+02 0.  0.
         13    1    3    3    0    0  0.63189402059E+03 -0.14650559711E+04  0.53396689916E+03  0.16824980538E+04  0.00000000000E+00 0. -1.
        -13    1    3    3    0    0  0.87609407872E+02 -0.18540601794E+03  0.36449598609E+02  0.20827715447E+03  0.00000000000E+00 0.  1.
         22    1    1    2    0    0 -0.71950342846E+03  0.16504619890E+04 -0.22706857846E+03  0.18147369231E+04  0.00000000000E+00 0.  1.
<mgrwt>
<rscale>  0 0.36895708E+04</rscale>
<asrwt>0</asrwt>
<pdfrwt beam="1">  1        1 0.31145077E+00 0.36895708E+04</pdfrwt>
<pdfrwt beam="2">  1       -1 0.25862802E+00 0.36895708E+04</pdfrwt>
<totfact> 0.14108290E-01</totfact>
</mgrwt>
</event>
<event>
 6    1  0.1028026E-006  0.1265695E+04  0.7818608E-02  0.9057221E-01
         -2   -1    0    0    0  501 -0.00000000000E+00  0.00000000000E+00  0.10861555727E+04  0.10861555727E+04  0.00000000000E+00 0.  1.
          2   -1    0    0  501    0  0.00000000000E+00 -0.00000000000E+00 -0.36872780309E+03  0.36872780309E+03  0.00000000000E+00 0. -1.
         23    2    1    2    0    0 -0.31999685993E+03  0.33052118901E+03 -0.13318823522E+03  0.48783123944E+03  0.92725214602E+02 0.  0.
         11    1    3    3    0    0 -0.33474074345E+02  0.63195578389E+02  0.65110494734E+01  0.71809390378E+02  0.00000000000E+00 0. -1.
        -11    1    3    3    0    0 -0.28652278558E+03  0.26732561062E+03 -0.13969928470E+03  0.41602184906E+03  0.00000000000E+00 0.  1.
         22    1    1    2    0    0  0.31999685993E+03 -0.33052118901E+03  0.85061600480E+03  0.96705213632E+03  0.00000000000E+00 0.  1.
<mgrwt>
<rscale>  0 0.12656947E+04</rscale>
<asrwt>0</asrwt>
<pdfrwt beam="1">  1        2 0.56727355E-01 0.12656947E+04</pdfrwt>
<pdfrwt beam="2">  1       -2 0.16710086E+00 0.12656947E+04</pdfrwt>
<totfact> 0.19120485E+01</totfact>
</mgrwt>
</event>
<event>
 6    1  0.1028026E-006  0.2045745E+04  0.7818608E-02  0.8585527E-01
          1   -1    0    0  501    0  0.00000000000E+00  0.00000000000E+00  0.14626496302E+04  0.14626496302E+04  0.00000000000E+00 0. -1.
         -1   -1    0    0    0  501 -0.00000000000E+00 -0.00000000000E+00 -0.71532384512E+03  0.71532384512E+03  0.00000000000E+00 0.  1.
         23    2    1    2    0    0 -0.64064363496E+03 -0.32237644304E+03  0.11479383376E+04  0.13564862537E+04  0.89116168825E+02 0.  0.
         13    1    3    3    0    0 -0.17295715822E+03 -0.10179309506E+03  0.39537462699E+03  0.44339272485E+03  0.00000000000E+00 0. -1.
        -13    1    3    3    0    0 -0.46768647674E+03 -0.22058334798E+03  0.75256371060E+03  0.91309352886E+03  0.00000000000E+00 0.  1.
         22    1    1    2    0    0  0.64064363496E+03  0.32237644304E+03 -0.40061255251E+03  0.82148722161E+03  0.00000000000E+00 0.  1.
<mgrwt>
<rscale>  0 0.20457450E+04</rscale>
<asrwt>0</asrwt>
<pdfrwt beam="1">  1        1 0.22502302E+00 0.20457450E+04</pdfrwt>
<pdfrwt beam="2">  1       -1 0.11004982E+00 0.20457450E+04</pdfrwt>
<totfact> 0.48920960E+00</totfact>
</mgrwt>
</event>
<event>
 6    1  0.1028026E-006  0.2163119E+04  0.7818608E-02  0.8533938E-01
         -2   -1    0    0    0  501 -0.00000000000E+00  0.00000000000E+00  0.11520437471E+04  0.11520437471E+04  0.00000000000E+00 0.  1.
          2   -1    0    0  501    0  0.00000000000E+00 -0.00000000000E+00 -0.10153872056E+04  0.10153872056E+04  0.00000000000E+00 0. -1.
         23    2    1    2    0    0  0.55807700300E+03 -0.67142221566E+02  0.99207735071E+03  0.11438574185E+04  0.90743070559E+02 0.  0.
         13    1    3    3    0    0  0.20805670880E+03 -0.23658432847E+02  0.28460698665E+03  0.35333900488E+03  0.00000000000E+00 0. -1.
        -13    1    3    3    0    0  0.35002029420E+03 -0.43483788720E+02  0.70747036406E+03  0.79051841361E+03  0.00000000000E+00 0.  1.
         22    1    1    2    0    0 -0.55807700300E+03  0.67142221566E+02 -0.85542080920E+03  0.10235735342E+04  0.00000000000E+00 0. -1.
<mgrwt>
<rscale>  0 0.21631186E+04</rscale>
<asrwt>0</asrwt>
<pdfrwt beam="1">  1        2 0.15621342E+00 0.21631186E+04</pdfrwt>
<pdfrwt beam="2">  1       -2 0.17723750E+00 0.21631186E+04</pdfrwt>
<totfact> 0.42774308E+00</totfact>
</mgrwt>
</event>
<event>
 6    1  0.1028026E-006  0.1366649E+04  0.7818608E-02  0.8978320E-01
          2   -1    0    0  501    0  0.00000000000E+00  0.00000000000E+00  0.11800532245E+04  0.11800532245E+04  0.00000000000E+00 0. -1.
         -2   -1    0    0    0  501 -0.00000000000E+00 -0.00000000000E+00 -0.39568776712E+03  0.39568776712E+03  0.00000000000E+00 0.  1.
         23    2    1    2    0    0  0.22761385987E+03 -0.44967396476E+03  0.92069335881E+03  0.10536298536E+04  0.91895938767E+02 0.  0.
         11    1    3    3    0    0  0.22017889381E+03 -0.44062135343E+03  0.85362664736E+03  0.98554775403E+03  0.00000000000E+00 0. -1.
        -11    1    3    3    0    0  0.74349660621E+01 -0.90526113288E+01  0.67066711445E+02  0.68082099529E+02  0.00000000000E+00 0.  1.
         22    1    1    2    0    0 -0.22761385987E+03  0.44967396476E+03 -0.13632790142E+03  0.52211113807E+03  0.00000000000E+00 0.  1.
<mgrwt>
<rscale>  0 0.13666494E+04</rscale>
<asrwt>0</asrwt>
<pdfrwt beam="1">  1        2 0.18154665E+00 0.13666494E+04</pdfrwt>
<pdfrwt beam="2">  1       -2 0.60875042E-01 0.13666494E+04</pdfrwt>
<totfact> 0.47711084E+01</totfact>
</mgrwt>
</event>
<event>
 6    1  0.1028026E-006  0.2736060E+04  0.7818608E-02  0.8323399E-01
         -2   -1    0    0    0  501 -0.00000000000E+00  0.00000000000E+00  0.12315421375E+04  0.12315421375E+04  0.00000000000E+00 0.  1.
          2   -1    0    0  501    0  0.00000000000E+00 -0.00000000000E+00 -0.15196443967E+04  0.15196443967E+04  0.00000000000E+00 0. -1.
         23    2    1    2    0    0 -0.42208906024E+03  0.12995371849E+04 -0.16513657025E+03  0.13792985539E+04  0.90765325846E+02 0.  0.
         13    1    3    3    0    0 -0.92239613204E+02  0.31495925241E+03 -0.77711175694E+02  0.33726325586E+03  0.00000000000E+00 0. -1.
        -13    1    3    3    0    0 -0.32984944704E+03  0.98457793246E+03 -0.87425394556E+02  0.10420352981E+04  0.00000000000E+00 0.  1.
         22    1    1    2    0    0  0.42208906024E+03 -0.12995371849E+04 -0.12296568898E+03  0.13718879802E+04  0.00000000000E+00 0. -1.
<mgrwt>
<rscale>  0 0.27360600E+04</rscale>
<asrwt>0</asrwt>
<pdfrwt beam="1">  1        2 0.23379144E+00 0.27360600E+04</pdfrwt>
<pdfrwt beam="2">  1       -2 0.18946802E+00 0.27360600E+04</pdfrwt>
<totfact> 0.16917385E+00</totfact>
</mgrwt>
</event>
<event>
 6    1  0.1028026E-006  0.1786681E+04  0.7818608E-02  0.8713415E-01
         -1   -1    0    0    0  501 -0.00000000000E+00  0.00000000000E+00  0.25683239392E+03  0.25683239392E+03  0.00000000000E+00 0.  1.
          1   -1    0    0  501    0  0.00000000000E+00 -0.00000000000E+00 -0.31073068918E+04  0.31073068918E+04  0.00000000000E+00 0. -1.
         23    2    1    2    0    0 -0.65497671226E+03 -0.58137564511E+03 -0.11058082785E+04  0.14119988319E+04  0.62742475243E+02 0.  0.
         13    1    3    3    0    0 -0.48395620552E+03 -0.42155155477E+03 -0.85265801291E+03  0.10672136661E+04  0.00000000000E+00 0. -1.
        -13    1    3    3    0    0 -0.17102050673E+03 -0.15982409034E+03 -0.25315026559E+03  0.34478516579E+03  0.00000000000E+00 0.  1.
         22    1    1    2    0    0  0.65497671226E+03  0.58137564511E+03 -0.17446662194E+04  0.19521404538E+04  0.00000000000E+00 0. -1.
<mgrwt>
<rscale>  0 0.17866808E+04</rscale>
<asrwt>0</asrwt>
<pdfrwt beam="1">  1        1 0.47804720E+00 0.17866808E+04</pdfrwt>
<pdfrwt beam="2">  1       -1 0.39512677E-01 0.17866808E+04</pdfrwt>
<totfact> 0.29443805E+00</totfact>
</mgrwt>
</event>
<event>
 6    1  0.1028026E-006  0.2310289E+04  0.7818608E-02  0.8473875E-01
         -2   -1    0    0    0  501 -0.00000000000E+00  0.00000000000E+00  0.11831819942E+04  0.11831819942E+04  0.00000000000E+00 0.  1.
          2   -1    0    0  501    0  0.00000000000E+00 -0.00000000000E+00 -0.11277717111E+04  0.11277717111E+04  0.00000000000E+00 0. -1.
         23    2    1    2    0    0 -0.40549231208E+03  0.10468584694E+04  0.29244840421E+03  0.11635550208E+04  0.89429006665E+02 0.  0.
         11    1    3    3    0    0 -0.16820420206E+03  0.41410250828E+03  0.16120953354E+03  0.47514424616E+03  0.00000000000E+00 0. -1.
        -11    1    3    3    0    0 -0.23728811002E+03  0.63275596114E+03  0.13123887067E+03  0.68841077468E+03  0.00000000000E+00 0.  1.
         22    1    1    2    0    0  0.40549231208E+03 -0.10468584694E+04 -0.23703812111E+03  0.11473986844E+04  0.00000000000E+00 0. -1.
<mgrwt>
<rscale>  0 0.23102893E+04</rscale>
<asrwt>0</asrwt>
<pdfrwt beam="1">  1        2 0.17350334E+00 0.23102893E+04</pdfrwt>
<pdfrwt beam="2">  1       -2 0.18202800E+00 0.23102893E+04</pdfrwt>
<totfact> 0.33313008E+00</totfact>
</mgrwt>
</event>
<event>
 6    1  0.1028026E-006  0.5444143E+03  0.7818608E-02  0.1002795E+00
          3   -1    0    0  501    0  0.00000000000E+00  0.00000000000E+00  0.21067518113E+03  0.21067518113E+03  0.00000000000E+00 0. -1.
         -3   -1    0    0    0  501 -0.00000000000E+00 -0.00000000000E+00 -0.35171071872E+03  0.35171071872E+03  0.00000000000E+00 0.  1.
         23    2    1    2    0    0 -0.19393366853E+03 -0.17594380376E+03 -0.34226983069E+02  0.27958816790E+03  0.91823566637E+02 0.  0.
         13    1    3    3    0    0 -0.90941909365E+02 -0.13746299393E+03 -0.13361620185E+01  0.16482806468E+03  0.00000000000E+00 0. -1.
        -13    1    3    3    0    0 -0.10299175917E+03 -0.38480809833E+02 -0.32890821051E+02  0.11476010322E+03  0.00000000000E+00 0.  1.
         22    1    1    2    0    0  0.19393366853E+03  0.17594380376E+03 -0.10680855453E+03  0.28279773194E+03  0.00000000000E+00 0.  1.
<mgrwt>
<rscale>  0 0.54441425E+03</rscale>
<asrwt>0</asrwt>
<pdfrwt beam="1">  1        3 0.32411567E-01 0.54441425E+03</pdfrwt>
<pdfrwt beam="2">  1       -3 0.54109340E-01 0.54441425E+03</pdfrwt>
<totfact> 0.82541504E+01</totfact>
</mgrwt>
</event>
<event>
 6    1  0.1028026E-006  0.1526665E+04  0.7818608E-02  0.8866912E-01
         -1   -1    0    0    0  501 -0.00000000000E+00  0.00000000000E+00  0.40198124367E+03  0.40198124367E+03  0.00000000000E+00 0.  1.
          1   -1    0    0  501    0  0.00000000000E+00 -0.00000000000E+00 -0.14495115427E+04  0.14495115427E+04  0.00000000000E+00 0. -1.
         23    2    1    2    0    0  0.13447698722E+03  0.74413584005E+03 -0.42545581008E+03  0.87231002594E+03  0.89944018703E+02 0.  0.
         13    1    3    3    0    0  0.14624577833E+02  0.24328273956E+03 -0.17216984159E+03  0.29840044235E+03  0.00000000000E+00 0.  1.
        -13    1    3    3    0    0  0.11985240939E+03  0.50085310049E+03 -0.25328596849E+03  0.57390958359E+03  0.00000000000E+00 0. -1.
         22    1    1    2    0    0 -0.13447698722E+03 -0.74413584005E+03 -0.62207448899E+03  0.97918276046E+03  0.00000000000E+00 0. -1.
<mgrwt>
<rscale>  0 0.15266649E+04</rscale>
<asrwt>0</asrwt>
<pdfrwt beam="1">  1        1 0.22300178E+00 0.15266649E+04</pdfrwt>
<pdfrwt beam="2">  1       -1 0.61843267E-01 0.15266649E+04</pdfrwt>
<totfact> 0.18156044E+01</totfact>
</mgrwt>
</event>
<event>
 6    1  0.1028026E-006  0.6484338E+04  0.7818608E-02  0.7633088E-01
          1   -1    0    0  501    0  0.00000000000E+00  0.00000000000E+00  0.32656765860E+04  0.32656765860E+04  0.00000000000E+00 0. -1.
         -1   -1    0    0    0  501 -0.00000000000E+00 -0.00000000000E+00 -0.32188305960E+04  0.32188305960E+04  0.00000000000E+00 0.  1.
         23    2    1    2    0    0  0.10983313696E+04 -0.25683616753E+04  0.16680761340E+04  0.32547702465E+04  0.90762747235E+02 0.  0.
         11    1    3    3    0    0  0.66736991049E+03 -0.14822901054E+04  0.10082745391E+04  0.19128993963E+04  0.00000000000E+00 0. -1.
        -11    1    3    3    0    0  0.43096145908E+03 -0.10860715699E+04  0.65980159483E+03  0.13418708502E+04  0.00000000000E+00 0.  1.
         22    1    1    2    0    0 -0.10983313696E+04  0.25683616753E+04 -0.16212301440E+04  0.32297369355E+04  0.00000000000E+00 0.  1.
<mgrwt>
<rscale>  0 0.64843380E+04</rscale>
<asrwt>0</asrwt>
<pdfrwt beam="1">  1        1 0.50241178E+00 0.64843380E+04</pdfrwt>
<pdfrwt beam="2">  1       -1 0.49520471E+00 0.64843380E+04</pdfrwt>
<totfact> 0.39518062E-04</totfact>
</mgrwt>
</event>
<event>
 6    1  0.1028026E-006  0.5159144E+04  0.7818608E-02  0.7804416E-01
         -2   -1    0    0    0  501 -0.00000000000E+00  0.00000000000E+00  0.16429419730E+04  0.16429419730E+04  0.00000000000E+00 0.  1.
          2   -1    0    0  501    0  0.00000000000E+00 -0.00000000000E+00 -0.40501687348E+04  0.40501687348E+04  0.00000000000E+00 0. -1.
         23    2    1    2    0    0 -0.21359745333E+04 -0.11564256151E+04 -0.24814649387E+03  0.24432899415E+04  0.91551327344E+02 0.  0.
         11    1    3    3    0    0 -0.44752359068E+03 -0.23813892561E+03 -0.14660232155E+02  0.50715129352E+03  0.00000000000E+00 0.  1.
        -11    1    3    3    0    0 -0.16884509426E+04 -0.91828668945E+03 -0.23348626171E+03  0.19361386479E+04  0.00000000000E+00 0. -1.
         22    1    1    2    0    0  0.21359745333E+04  0.11564256151E+04 -0.21590802679E+04  0.32498207663E+04  0.00000000000E+00 0. -1.
<mgrwt>
<rscale>  0 0.51591442E+04</rscale>
<asrwt>0</asrwt>
<pdfrwt beam="1">  1        2 0.62310287E+00 0.51591442E+04</pdfrwt>
<pdfrwt beam="2">  1       -2 0.25276031E+00 0.51591442E+04</pdfrwt>
<totfact> 0.13759017E-02</totfact>
</mgrwt>
</event>
<event>
 6    1  0.1028026E-006  0.1755993E+04  0.7818608E-02  0.8730058E-01
         -1   -1    0    0    0  501 -0.00000000000E+00  0.00000000000E+00  0.15048271945E+04  0.15048271945E+04  0.00000000000E+00 0.  1.
          1   -1    0    0  501    0  0.00000000000E+00 -0.00000000000E+00 -0.51227021215E+03  0.51227021215E+03  0.00000000000E+00 0. -1.
         23    2    1    2    0    0  0.64310486080E+03  0.17071552932E+03 -0.15610389742E+03  0.68963762546E+03  0.92216992573E+02 0.  0.
         11    1    3    3    0    0  0.39068043847E+03  0.14975484258E+03 -0.93341128796E+02  0.42868436431E+03  0.00000000000E+00 0.  1.
        -11    1    3    3    0    0  0.25242442233E+03  0.20960686742E+02 -0.62762768625E+02  0.26095326115E+03  0.00000000000E+00 0. -1.
         22    1    1    2    0    0 -0.64310486080E+03 -0.17071552932E+03  0.11486608798E+04  0.13274597812E+04  0.00000000000E+00 0.  1.
<mgrwt>
<rscale>  0 0.17559933E+04</rscale>
<asrwt>0</asrwt>
<pdfrwt beam="1">  1        1 0.78810803E-01 0.17559933E+04</pdfrwt>
<pdfrwt beam="2">  1       -1 0.23151187E+00 0.17559933E+04</pdfrwt>
<totfact> 0.37437945E+00</totfact>
</mgrwt>
</event>
<event>
 6    1  0.1028026E-006  0.4804008E+04  0.7818608E-02  0.7859473E-01
          2   -1    0    0  501    0  0.00000000000E+00  0.00000000000E+00  0.21755958687E+04  0.21755958687E+04  0.00000000000E+00 0. -1.
         -2   -1    0    0    0  501 -0.00000000000E+00 -0.00000000000E+00 -0.26519739223E+04  0.26519739223E+04  0.00000000000E+00 0.  1.
         23    2    1    2    0    0 -0.79952045953E+03 -0.10242669063E+04  0.17908482046E+04  0.22143972811E+04  0.89790678246E+02 0.  0.
         13    1    3    3    0    0 -0.38421503514E+03 -0.55506256620E+03  0.89004559582E+03  0.11170930168E+04  0.00000000000E+00 0.  1.
        -13    1    3    3    0    0 -0.41530542440E+03 -0.46920434005E+03  0.90080260881E+03  0.10973042642E+04  0.00000000000E+00 0. -1.
         22    1    1    2    0    0  0.79952045953E+03  0.10242669063E+04 -0.22672262583E+04  0.26131725099E+04  0.00000000000E+00 0.  1.
<mgrwt>
<rscale>  0 0.48040081E+04</rscale>
<asrwt>0</asrwt>
<pdfrwt beam="1">  1        2 0.33470706E+00 0.48040081E+04</pdfrwt>
<pdfrwt beam="2">  1       -2 0.40799599E+00 0.48040081E+04</pdfrwt>
<totfact> 0.25941588E-02</totfact>
</mgrwt>
</event>
<event>
 6    1  0.1028026E-006  0.1105388E+04  0.7818608E-02  0.9199956E-01
         -3   -1    0    0    0  501 -0.00000000000E+00  0.00000000000E+00  0.49652262998E+03  0.49652262998E+03  0.00000000000E+00 0.  1.
          3   -1    0    0  501    0  0.00000000000E+00 -0.00000000000E+00 -0.61522049975E+03  0.61522049975E+03  0.00000000000E+00 0. -1.
         23    2    1    2    0    0  0.50472200734E+03  0.45884529844E+02  0.15230108972E+03  0.53703439409E+03  0.91436446464E+02 0.  0.
         13    1    3    3    0    0  0.36323392802E+03  0.72844895749E+02  0.99130049357E+02  0.38349971576E+03  0.00000000000E+00 0. -1.
        -13    1    3    3    0    0  0.14148807931E+03 -0.26960365905E+02  0.53171040361E+02  0.15353467833E+03  0.00000000000E+00 0.  1.
         22    1    1    2    0    0 -0.50472200734E+03 -0.45884529844E+02 -0.27099895949E+03  0.57470873563E+03  0.00000000000E+00 0.  1.
<mgrwt>
<rscale>  0 0.11053884E+04</rscale>
<asrwt>0</asrwt>
<pdfrwt beam="1">  1        3 0.94649308E-01 0.11053884E+04</pdfrwt>
<pdfrwt beam="2">  1       -3 0.76388097E-01 0.11053884E+04</pdfrwt>
<totfact> 0.41672978E+00</totfact>
</mgrwt>
</event>
<event>
 6    1  0.1028026E-006  0.3242429E+04  0.7818608E-02  0.8177701E-01
          2   -1    0    0  501    0  0.00000000000E+00  0.00000000000E+00  0.13006700271E+04  0.13006700271E+04  0.00000000000E+00 0. -1.
         -2   -1    0    0    0  501 -0.00000000000E+00 -0.00000000000E+00 -0.20207557864E+04  0.20207557864E+04  0.00000000000E+00 0.  1.
         23    2    1    2    0    0  0.26067423786E+03 -0.94304245148E+03 -0.16828472302E+04  0.19487678905E+04  0.91876913375E+02 0.  0.
         11    1    3    3    0    0  0.20497784150E+03 -0.81172010128E+03 -0.13817878107E+04  0.16156246446E+04  0.00000000000E+00 0.  1.
        -11    1    3    3    0    0  0.55696396365E+02 -0.13132235019E+03 -0.30105941955E+03  0.33314324596E+03  0.00000000000E+00 0. -1.
         22    1    1    2    0    0 -0.26067423786E+03  0.94304245148E+03  0.96276147095E+03  0.13726579230E+04  0.00000000000E+00 0. -1.
<mgrwt>
<rscale>  0 0.32424290E+04</rscale>
<asrwt>0</asrwt>
<pdfrwt beam="1">  1        2 0.20010308E+00 0.32424290E+04</pdfrwt>
<pdfrwt beam="2">  1       -2 0.31088551E+00 0.32424290E+04</pdfrwt>
<totfact> 0.37762691E-01</totfact>
</mgrwt>
</event>
<event>
 6    1  0.1028026E-006  0.5506155E+04  0.7818608E-02  0.7754843E-01
          2   -1    0    0  501    0  0.00000000000E+00  0.00000000000E+00  0.34005453550E+04  0.34005453550E+04  0.00000000000E+00 0. -1.
         -2   -1    0    0    0  501 -0.00000000000E+00 -0.00000000000E+00 -0.22288886021E+04  0.22288886021E+04  0.00000000000E+00 0.  1.
         23    2    1    2    0    0  0.13619372068E+04 -0.15636469895E+04  0.24362796680E+04  0.32006202589E+04  0.92986870584E+02 0.  0.
         11    1    3    3    0    0  0.19559608470E+03 -0.17745510437E+03  0.30903483563E+03  0.40651035909E+03  0.00000000000E+00 0.  1.
        -11    1    3    3    0    0  0.11663411221E+04 -0.13861918851E+04  0.21272448324E+04  0.27941098998E+04  0.00000000000E+00 0. -1.
         22    1    1    2    0    0 -0.13619372068E+04  0.15636469895E+04 -0.12646229151E+04  0.24288136981E+04  0.00000000000E+00 0.  1.
<mgrwt>
<rscale>  0 0.55061554E+04</rscale>
<asrwt>0</asrwt>
<pdfrwt beam="1">  1        2 0.52316083E+00 0.55061554E+04</pdfrwt>
<pdfrwt beam="2">  1       -2 0.34290594E+00 0.55061554E+04</pdfrwt>
<totfact> 0.11470489E-02</totfact>
</mgrwt>
</event>
<event>
 6    1  0.1028026E-006  0.5165732E+04  0.7818608E-02  0.7803438E-01
         -2   -1    0    0    0  501 -0.00000000000E+00  0.00000000000E+00  0.20600637443E+04  0.20600637443E+04  0.00000000000E+00 0.  1.
          2   -1    0    0  501    0  0.00000000000E+00 -0.00000000000E+00 -0.32383444263E+04  0.32383444263E+04  0.00000000000E+00 0. -1.
         23    2    1    2    0    0  0.16754263739E+04 -0.16292568568E+04 -0.17154942320E+04  0.29004653360E+04  0.90814456670E+02 0.  0.
         13    1    3    3    0    0  0.55351614789E+03 -0.50440002822E+03 -0.59296488624E+03  0.95519991140E+03  0.00000000000E+00 0.  1.
        -13    1    3    3    0    0  0.11219102261E+04 -0.11248568286E+04 -0.11225293458E+04  0.19452654246E+04  0.00000000000E+00 0. -1.
         22    1    1    2    0    0 -0.16754263739E+04  0.16292568568E+04  0.53721354997E+03  0.23979428346E+04  0.00000000000E+00 0.  1.
<mgrwt>
<rscale>  0 0.51657317E+04</rscale>
<asrwt>0</asrwt>
<pdfrwt beam="1">  1        2 0.49820683E+00 0.51657317E+04</pdfrwt>
<pdfrwt beam="2">  1       -2 0.31693289E+00 0.51657317E+04</pdfrwt>
<totfact> 0.21970134E-02</totfact>
</mgrwt>
</event>
<event>
 6    1  0.1028026E-006  0.2699608E+04  0.7818608E-02  0.8335132E-01
          1   -1    0    0  501    0  0.00000000000E+00  0.00000000000E+00  0.23528043859E+04  0.23528043859E+04  0.00000000000E+00 0. -1.
         -1   -1    0    0    0  501 -0.00000000000E+00 -0.00000000000E+00 -0.77438242089E+03  0.77438242089E+03  0.00000000000E+00 0.  1.
         23    2    1    2    0    0  0.24838679885E+03 -0.13238585542E+04  0.85880630415E+03  0.16000508689E+04  0.91197815395E+02 0.  0.
         13    1    3    3    0    0  0.74863464475E+02 -0.28457101988E+03  0.15122712355E+03  0.33083960852E+03  0.00000000000E+00 0.  1.
        -13    1    3    3    0    0  0.17352333437E+03 -0.10392875344E+04  0.70757918059E+03  0.12692112604E+04  0.00000000000E+00 0. -1.
         22    1    1    2    0    0 -0.24838679885E+03  0.13238585542E+04  0.71961566087E+03  0.15271359379E+04  0.00000000000E+00 0. -1.
<mgrwt>
<rscale>  0 0.26996076E+04</rscale>
<asrwt>0</asrwt>
<pdfrwt beam="1">  1        1 0.36196990E+00 0.26996076E+04</pdfrwt>
<pdfrwt beam="2">  1       -1 0.11913576E+00 0.26996076E+04</pdfrwt>
<totfact> 0.94173505E-01</totfact>
</mgrwt>
</event>
<event>
 6    1  0.1028026E-006  0.1517057E+04  0.7818608E-02  0.8873189E-01
          2   -1    0    0  501    0  0.00000000000E+00  0.00000000000E+00  0.15966252949E+04  0.15966252949E+04  0.00000000000E+00 0. -1.
         -2   -1    0    0    0  501 -0.00000000000E+00 -0.00000000000E+00 -0.36036365311E+03  0.36036365311E+03  0.00000000000E+00 0.  1.
         23    2    1    2    0    0  0.61925531296E+03  0.32125234013E+03  0.99582086349E+03  0.12190919521E+04  0.88576446449E+02 0.  0.
         11    1    3    3    0    0  0.57501547159E+03  0.30907514625E+03  0.95973995992E+03  0.11607200478E+04  0.00000000000E+00 0.  1.
        -11    1    3    3    0    0  0.44239841368E+02  0.12177193885E+02  0.36080903567E+02  0.58371904350E+02  0.00000000000E+00 0. -1.
         22    1    1    2    0    0 -0.61925531296E+03 -0.32125234013E+03  0.24044077828E+03  0.73789699588E+03  0.00000000000E+00 0.  1.
<mgrwt>
<rscale>  0 0.15170573E+04</rscale>
<asrwt>0</asrwt>
<pdfrwt beam="1">  1        2 0.24563466E+00 0.15170573E+04</pdfrwt>
<pdfrwt beam="2">  1       -2 0.55440563E-01 0.15170573E+04</pdfrwt>
<totfact> 0.33042848E+01</totfact>
</mgrwt>
</event>
<event>
 6    1  0.1028026E-006  0.1376723E+04  0.7818608E-02  0.8970842E-01
         -2   -1    0    0    0  501 -0.00000000000E+00  0.00000000000E+00  0.26611680858E+03  0.26611680858E+03  0.00000000000E+00 0.  1.
          2   -1    0    0  501    0  0.00000000000E+00 -0.00000000000E+00 -0.17805763101E+04  0.17805763101E+04  0.00000000000E+00 0. -1.
         23    2    1    2    0    0  0.29931368983E+03 -0.19269957704E+03 -0.16310823532E+04  0.16720964003E+04  0.93567714776E+02 0.  0.
         13    1    3    3    0    0  0.15752163886E+03 -0.15118852263E+03 -0.88587792324E+03  0.91238737989E+03  0.00000000000E+00 0. -1.
        -13    1    3    3    0    0  0.14179205097E+03 -0.41511054411E+02 -0.74520442991E+03  0.75970902043E+03  0.00000000000E+00 0.  1.
         22    1    1    2    0    0 -0.29931368983E+03  0.19269957704E+03  0.11662285162E+03  0.37459671839E+03  0.00000000000E+00 0.  1.
<mgrwt>
<rscale>  0 0.13767226E+04</rscale>
<asrwt>0</asrwt>
<pdfrwt beam="1">  1        2 0.27393481E+00 0.13767226E+04</pdfrwt>
<pdfrwt beam="2">  1       -2 0.40941048E-01 0.13767226E+04</pdfrwt>
<totfact> 0.48727294E+01</totfact>
</mgrwt>
</event>
<event>
 6    1  0.1028026E-006  0.1947129E+04  0.7818608E-02  0.8631747E-01
          2   -1    0    0  501    0  0.00000000000E+00  0.00000000000E+00  0.84890894915E+03  0.84890894915E+03  0.00000000000E+00 0. -1.
         -2   -1    0    0    0  501 -0.00000000000E+00 -0.00000000000E+00 -0.11165245134E+04  0.11165245134E+04  0.00000000000E+00 0.  1.
         23    2    1    2    0    0 -0.90129702315E+03  0.70543588599E+02 -0.49200895350E+03  0.10339480279E+04  0.98300519738E+02 0.  0.
         11    1    3    3    0    0 -0.43924759405E+03 -0.14438225474E+02 -0.23023059320E+03  0.49613812319E+03  0.00000000000E+00 0.  1.
        -11    1    3    3    0    0 -0.46204942910E+03  0.84981814072E+02 -0.26177836030E+03  0.53780990469E+03  0.00000000000E+00 0. -1.
         22    1    1    2    0    0  0.90129702315E+03 -0.70543588599E+02  0.22439338926E+03  0.93148543466E+03  0.00000000000E+00 0. -1.
<mgrwt>
<rscale>  0 0.19471288E+04</rscale>
<asrwt>0</asrwt>
<pdfrwt beam="1">  1        2 0.13060138E+00 0.19471288E+04</pdfrwt>
<pdfrwt beam="2">  1       -2 0.17177300E+00 0.19471288E+04</pdfrwt>
<totfact> 0.61394847E+00</totfact>
</mgrwt>
</event>
<event>
 6    1  0.1028026E-006  0.4259902E+04  0.7818608E-02  0.7954074E-01
          2   -1    0    0  501    0  0.00000000000E+00  0.00000000000E+00  0.36431640992E+04  0.36431640992E+04  0.00000000000E+00 0. -1.
         -2   -1    0    0    0  501 -0.00000000000E+00 -0.00000000000E+00 -0.12452612119E+04  0.12452612119E+04  0.00000000000E+00 0.  1.
         23    2    1    2    0    0 -0.16340115679E+04 -0.12299740541E+04  0.18781146319E+04  0.27782097278E+04  0.91130364050E+02 0.  0.
         11    1    3    3    0    0 -0.10169866789E+04 -0.74811309158E+03  0.12159381570E+04  0.17528379002E+04  0.00000000000E+00 0.  1.
        -11    1    3    3    0    0 -0.61702488896E+03 -0.48186096248E+03  0.66217647499E+03  0.10253718276E+04  0.00000000000E+00 0. -1.
         22    1    1    2    0    0  0.16340115679E+04  0.12299740541E+04  0.51978825544E+03  0.21102155833E+04  0.00000000000E+00 0.  1.
<mgrwt>
<rscale>  0 0.42599018E+04</rscale>
<asrwt>0</asrwt>
<pdfrwt beam="1">  1        2 0.56048678E+00 0.42599018E+04</pdfrwt>
<pdfrwt beam="2">  1       -2 0.19157865E+00 0.42599018E+04</pdfrwt>
<totfact> 0.74904698E-02</totfact>
</mgrwt>
</event>
<event>
 6    1  0.1028026E-006  0.1101318E+04  0.7818608E-02  0.9203908E-01
         -1   -1    0    0    0  501 -0.00000000000E+00  0.00000000000E+00  0.18243505121E+03  0.18243505121E+03  0.00000000000E+00 0.  1.
          1   -1    0    0  501    0  0.00000000000E+00 -0.00000000000E+00 -0.16621015655E+04  0.16621015655E+04  0.00000000000E+00 0. -1.
         23    2    1    2    0    0  0.39864424614E+03  0.22315329243E+03 -0.12483446954E+04  0.13324580966E+04  0.91462964038E+02 0.  0.
         11    1    3    3    0    0  0.17387684545E+03  0.72684991502E+02 -0.62900941768E+03  0.65663468755E+03  0.00000000000E+00 0. -1.
        -11    1    3    3    0    0  0.22476740069E+03  0.15046830092E+03 -0.61933527767E+03  0.67582340901E+03  0.00000000000E+00 0.  1.
         22    1    1    2    0    0 -0.39864424614E+03 -0.22315329243E+03 -0.23132181897E+03  0.51207852018E+03  0.00000000000E+00 0. -1.
<mgrwt>
<rscale>  0 0.11013185E+04</rscale>
<asrwt>0</asrwt>
<pdfrwt beam="1">  1        1 0.25570794E+00 0.11013185E+04</pdfrwt>
<pdfrwt beam="2">  1       -1 0.28066930E-01 0.11013185E+04</pdfrwt>
<totfact> 0.57821098E+01</totfact>
</mgrwt>
</event>
<event>
 6    1  0.1028026E-006  0.2603407E+04  0.7818608E-02  0.8367045E-01
          1   -1    0    0  501    0  0.00000000000E+00  0.00000000000E+00  0.16669151220E+04  0.16669151220E+04  0.00000000000E+00 0. -1.
         -1   -1    0    0    0  501 -0.00000000000E+00 -0.00000000000E+00 -0.10165080165E+04  0.10165080165E+04  0.00000000000E+00 0.  1.
         23    2    1    2    0    0  0.30092966163E+03 -0.12551057513E+04  0.48628142638E+03  0.13823519080E+04  0.92617836282E+02 0.  0.
         13    1    3    3    0    0  0.79099779195E+02 -0.18685979344E+03  0.71888606147E+02  0.21527036296E+03  0.00000000000E+00 0. -1.
        -13    1    3    3    0    0  0.22182988244E+03 -0.10682459579E+04  0.41439282023E+03  0.11670815450E+04  0.00000000000E+00 0.  1.
         22    1    1    2    0    0 -0.30092966163E+03  0.12551057513E+04  0.16412567916E+03  0.13010712305E+04  0.00000000000E+00 0.  1.
<mgrwt>
<rscale>  0 0.26034074E+04</rscale>
<asrwt>0</asrwt>
<pdfrwt beam="1">  1        1 0.25644848E+00 0.26034074E+04</pdfrwt>
<pdfrwt beam="2">  1       -1 0.15638585E+00 0.26034074E+04</pdfrwt>
<totfact> 0.13765739E+00</totfact>
</mgrwt>
</event>
<event>
 6    1  0.1028026E-006  0.1338353E+04  0.7818608E-02  0.8999692E-01
          2   -1    0    0  501    0  0.00000000000E+00  0.00000000000E+00  0.43094515895E+03  0.43094515895E+03  0.00000000000E+00 0. -1.
         -2   -1    0    0    0  501 -0.00000000000E+00 -0.00000000000E+00 -0.10391044193E+04  0.10391044193E+04  0.00000000000E+00 0.  1.
         23    2    1    2    0    0  0.21045728448E+03 -0.49186658265E+03  0.13043665205E+03  0.55804687785E+03  0.90430050088E+02 0.  0.
         11    1    3    3    0    0  0.46533015929E+02 -0.21132192788E+03  0.70961857043E+02  0.22772321781E+03  0.00000000000E+00 0.  1.
        -11    1    3    3    0    0  0.16392426855E+03 -0.28054465477E+03  0.59474795008E+02  0.33032366004E+03  0.00000000000E+00 0. -1.
         22    1    1    2    0    0 -0.21045728448E+03  0.49186658265E+03 -0.73859591238E+03  0.91200270038E+03  0.00000000000E+00 0.  1.
<mgrwt>
<rscale>  0 0.13383527E+04</rscale>
<asrwt>0</asrwt>
<pdfrwt beam="1">  1        2 0.66299256E-01 0.13383527E+04</pdfrwt>
<pdfrwt beam="2">  1       -2 0.15986222E+00 0.13383527E+04</pdfrwt>
<totfact> 0.18015910E+01</totfact>
</mgrwt>
</event>
<event>
 6    1  0.1028026E-006  0.4077438E+04  0.7818608E-02  0.7989104E-01
          2   -1    0    0  501    0  0.00000000000E+00  0.00000000000E+00  0.24503986201E+04  0.24503986201E+04  0.00000000000E+00 0. -1.
         -2   -1    0    0    0  501 -0.00000000000E+00 -0.00000000000E+00 -0.16962038811E+04  0.16962038811E+04  0.00000000000E+00 0.  1.
         23    2    1    2    0    0  0.11304667334E+04  0.81813469527E+03 -0.11328497521E+04  0.17996392875E+04  0.89741793670E+02 0.  0.
         11    1    3    3    0    0  0.64402848292E+03  0.41330716148E+03 -0.63665868419E+03  0.99545455782E+03  0.00000000000E+00 0. -1.
        -11    1    3    3    0    0  0.48643825045E+03  0.40482753380E+03 -0.49619106790E+03  0.80418472970E+03  0.00000000000E+00 0.  1.
         22    1    1    2    0    0 -0.11304667334E+04 -0.81813469527E+03  0.18870444911E+04  0.23469632137E+04  0.00000000000E+00 0. -1.
<mgrwt>
<rscale>  0 0.40774382E+04</rscale>
<asrwt>0</asrwt>
<pdfrwt beam="1">  1        2 0.37698440E+00 0.40774382E+04</pdfrwt>
<pdfrwt beam="2">  1       -2 0.26095444E+00 0.40774382E+04</pdfrwt>
<totfact> 0.16049436E-01</totfact>
</mgrwt>
</event>
<event>
 6    1  0.1028026E-006  0.5476677E+04  0.7818608E-02  0.7758907E-01
          2   -1    0    0  501    0  0.00000000000E+00  0.00000000000E+00  0.38711338497E+04  0.38711338497E+04  0.00000000000E+00 0. -1.
         -2   -1    0    0    0  501 -0.00000000000E+00 -0.00000000000E+00 -0.19370287126E+04  0.19370287126E+04  0.00000000000E+00 0.  1.
         23    2    1    2    0    0 -0.26274563245E+04 -0.71746523364E+03  0.12599475861E+04  0.30023166111E+04  0.90299583388E+02 0.  0.
         11    1    3    3    0    0 -0.57214830498E+03 -0.15350954274E+03  0.23347240906E+03  0.63673246218E+03  0.00000000000E+00 0.  1.
        -11    1    3    3    0    0 -0.20553080195E+04 -0.56395569090E+03  0.10264751770E+04  0.23655841489E+04  0.00000000000E+00 0. -1.
         22    1    1    2    0    0  0.26274563245E+04  0.71746523364E+03  0.67415755100E+03  0.28058459513E+04  0.00000000000E+00 0.  1.
<mgrwt>
<rscale>  0 0.54766769E+04</rscale>
<asrwt>0</asrwt>
<pdfrwt beam="1">  1        2 0.59555905E+00 0.54766769E+04</pdfrwt>
<pdfrwt beam="2">  1       -2 0.29800442E+00 0.54766769E+04</pdfrwt>
<totfact> 0.98825223E-03</totfact>
</mgrwt>
</event>
<event>
 6    1  0.1028026E-006  0.2412684E+04  0.7818608E-02  0.8434770E-01
         -2   -1    0    0    0  501 -0.00000000000E+00  0.00000000000E+00  0.12957095658E+04  0.12957095658E+04  0.00000000000E+00 0.  1.
          2   -1    0    0  501    0  0.00000000000E+00 -0.00000000000E+00 -0.11231386889E+04  0.11231386889E+04  0.00000000000E+00 0. -1.
         23    2    1    2    0    0  0.64154645365E+03  0.10053215472E+04 -0.83277387736E+02  0.11991304184E+04  0.93409697066E+02 0.  0.
         13    1    3    3    0    0  0.32385627301E+03  0.46945051211E+03  0.22230722466E+01  0.57032588135E+03  0.00000000000E+00 0. -1.
        -13    1    3    3    0    0  0.31769018064E+03  0.53587103510E+03 -0.85500459983E+02  0.62880453703E+03  0.00000000000E+00 0.  1.
         22    1    1    2    0    0 -0.64154645365E+03 -0.10053215472E+04  0.25584826464E+03  0.12197178362E+04  0.00000000000E+00 0.  1.
<mgrwt>
<rscale>  0 0.24126844E+04</rscale>
<asrwt>0</asrwt>
<pdfrwt beam="1">  1        2 0.17279057E+00 0.24126844E+04</pdfrwt>
<pdfrwt beam="2">  1       -2 0.19933993E+00 0.24126844E+04</pdfrwt>
<totfact> 0.25439614E+00</totfact>
</mgrwt>
</event>
<event>
 6    1  0.1028026E-006  0.2276903E+04  0.7818608E-02  0.8487084E-01
          2   -1    0    0  501    0  0.00000000000E+00  0.00000000000E+00  0.22167244038E+04  0.22167244038E+04  0.00000000000E+00 0. -1.
         -2   -1    0    0    0  501 -0.00000000000E+00 -0.00000000000E+00 -0.58467868400E+03  0.58467868400E+03  0.00000000000E+00 0.  1.
         23    2    1    2    0    0  0.10782144817E+04 -0.31868624122E+03  0.61226728292E+03  0.12834915458E+04  0.91498270220E+02 0.  0.
         11    1    3    3    0    0  0.48748435888E+03 -0.10884104114E+03  0.30619134476E+03  0.58586731603E+03  0.00000000000E+00 0. -1.
        -11    1    3    3    0    0  0.59073012285E+03 -0.20984520009E+03  0.30607593816E+03  0.69762422977E+03  0.00000000000E+00 0.  1.
         22    1    1    2    0    0 -0.10782144817E+04  0.31868624122E+03  0.10197784368E+04  0.15179115420E+04  0.00000000000E+00 0. -1.
<mgrwt>
<rscale>  0 0.22769027E+04</rscale>
<asrwt>0</asrwt>
<pdfrwt beam="1">  1        2 0.34103452E+00 0.22769027E+04</pdfrwt>
<pdfrwt beam="2">  1       -2 0.89950568E-01 0.22769027E+04</pdfrwt>
<totfact> 0.48560220E+00</totfact>
</mgrwt>
</event>
<event>
 6    1  0.1028026E-006  0.1336749E+04  0.7818608E-02  0.9000920E-01
         -2   -1    0    0    0  501 -0.00000000000E+00  0.00000000000E+00  0.58081117072E+03  0.58081117072E+03  0.00000000000E+00 0.  1.
          2   -1    0    0  501    0  0.00000000000E+00 -0.00000000000E+00 -0.76913932959E+03  0.76913932959E+03  0.00000000000E+00 0. -1.
         23    2    1    2    0    0 -0.65160128567E+03 -0.14908154223E+02  0.39140932717E+02  0.65962544921E+03  0.93633498713E+02 0.  0.
         13    1    3    3    0    0 -0.51356159009E+02  0.24046983571E+02  0.84680816460E+01  0.57336034863E+02  0.00000000000E+00 0. -1.
        -13    1    3    3    0    0 -0.60024512667E+03 -0.38955137794E+02  0.30672851071E+02  0.60228941435E+03  0.00000000000E+00 0.  1.
         22    1    1    2    0    0  0.65160128567E+03  0.14908154223E+02 -0.22746909158E+03  0.69032505110E+03  0.00000000000E+00 0. -1.
<mgrwt>
<rscale>  0 0.13367494E+04</rscale>
<asrwt>0</asrwt>
<pdfrwt beam="1">  1        2 0.11832913E+00 0.13367494E+04</pdfrwt>
<pdfrwt beam="2">  1       -2 0.89355565E-01 0.13367494E+04</pdfrwt>
<totfact> 0.38132492E+01</totfact>
</mgrwt>
</event>
<event>
 6    1  0.1028026E-006  0.1426481E+04  0.7818608E-02  0.8934870E-01
          2   -1    0    0  501    0  0.00000000000E+00  0.00000000000E+00  0.27383665457E+04  0.27383665457E+04  0.00000000000E+00 0. -1.
         -2   -1    0    0    0  501 -0.00000000000E+00 -0.00000000000E+00 -0.18577196436E+03  0.18577196436E+03  0.00000000000E+00 0.  1.
         23    2    1    2    0    0 -0.11390915074E+03 -0.39925030649E+03  0.10063560612E+03  0.43727725175E+03  0.93315421167E+02 0.  0.
         13    1    3    3    0    0  0.84345083622E+01 -0.76137964537E+01 -0.66707531196E+01  0.13176106213E+02  0.00000000000E+00 0. -1.
        -13    1    3    3    0    0 -0.12234365911E+03 -0.39163651004E+03  0.10730635924E+03  0.42410114554E+03  0.00000000000E+00 0.  1.
         22    1    1    2    0    0  0.11390915074E+03  0.39925030649E+03  0.24519589752E+04  0.24868612583E+04  0.00000000000E+00 0. -1.
<mgrwt>
<rscale>  0 0.14264806E+04</rscale>
<asrwt>0</asrwt>
<pdfrwt beam="1">  1        2 0.42128713E+00 0.14264806E+04</pdfrwt>
<pdfrwt beam="2">  1       -2 0.28580304E-01 0.14264806E+04</pdfrwt>
<totfact> 0.27616082E+01</totfact>
</mgrwt>
</event>
<event>
 6    1  0.1028026E-006  0.6012891E+03  0.7818608E-02  0.9902735E-01
          3   -1    0    0  501    0  0.00000000000E+00  0.00000000000E+00  0.23357873567E+03  0.23357873567E+03  0.00000000000E+00 0. -1.
         -3   -1    0    0    0  501 -0.00000000000E+00 -0.00000000000E+00 -0.38696647522E+03  0.38696647522E+03  0.00000000000E+00 0.  1.
         23    2    1    2    0    0 -0.55437855290E+02  0.80055166118E+02  0.20749346372E+03  0.24675726527E+03  0.91397073568E+02 0.  0.
         11    1    3    3    0    0 -0.25525083795E+02 -0.71843690544E+01  0.10752101838E+03  0.11074255936E+03  0.00000000000E+00 0. -1.
        -11    1    3    3    0    0 -0.29912771495E+02  0.87239535173E+02  0.99972445339E+02  0.13601470591E+03  0.00000000000E+00 0.  1.
         22    1    1    2    0    0  0.55437855290E+02 -0.80055166118E+02 -0.36088120326E+03  0.37378794562E+03  0.00000000000E+00 0.  1.
<mgrwt>
<rscale>  0 0.60128908E+03</rscale>
<asrwt>0</asrwt>
<pdfrwt beam="1">  1        3 0.35935190E-01 0.60128908E+03</pdfrwt>
<pdfrwt beam="2">  1       -3 0.59533304E-01 0.60128908E+03</pdfrwt>
<totfact> 0.55598899E+01</totfact>
</mgrwt>
</event>
<event>
 6    1  0.1028026E-006  0.2947332E+03  0.7818608E-02  0.1087903E+00
          2   -1    0    0  501    0  0.00000000000E+00  0.00000000000E+00  0.11654348225E+04  0.11654348225E+04  0.00000000000E+00 0. -1.
         -2   -1    0    0    0  501 -0.00000000000E+00 -0.00000000000E+00 -0.18634170929E+02  0.18634170929E+02  0.00000000000E+00 0.  1.
         23    2    1    2    0    0 -0.11519886059E+03  0.68326280164E+02  0.58753530249E+03  0.60898900880E+03  0.87923962156E+02 0.  0.
         13    1    3    3    0    0 -0.11037282129E+03  0.34952379745E+02  0.52821547342E+03  0.54075448670E+03  0.00000000000E+00 0.  1.
        -13    1    3    3    0    0 -0.48260392995E+01  0.33373900419E+02  0.59319829076E+02  0.68234522099E+02  0.00000000000E+00 0. -1.
         22    1    1    2    0    0  0.11519886059E+03 -0.68326280164E+02  0.55926534907E+03  0.57507998462E+03  0.00000000000E+00 0. -1.
<mgrwt>
<rscale>  0 0.29473318E+03</rscale>
<asrwt>0</asrwt>
<pdfrwt beam="1">  1        2 0.17929761E+00 0.29473318E+03</pdfrwt>
<pdfrwt beam="2">  1       -2 0.28667965E-02 0.29473318E+03</pdfrwt>
<totfact> 0.94890872E+03</totfact>
</mgrwt>
</event>
<event>
 6    1  0.1028026E-006  0.3605237E+04  0.7818608E-02  0.8089293E-01
          2   -1    0    0  501    0  0.00000000000E+00  0.00000000000E+00  0.12018704999E+04  0.12018704999E+04  0.00000000000E+00 0. -1.
         -2   -1    0    0    0  501 -0.00000000000E+00 -0.00000000000E+00 -0.27036473113E+04  0.27036473113E+04  0.00000000000E+00 0.  1.
         23    2    1    2    0    0 -0.73051546767E+02  0.13282104615E+04 -0.20673691990E+04  0.24600509982E+04  0.91410887154E+02 0.  0.
         11    1    3    3    0    0 -0.59696802970E+02  0.86546510204E+03 -0.14238549239E+04  0.16673201238E+04  0.00000000000E+00 0. -1.
        -11    1    3    3    0    0 -0.13354743797E+02  0.46274535944E+03 -0.64351427516E+03  0.79273087439E+03  0.00000000000E+00 0.  1.
         22    1    1    2    0    0  0.73051546767E+02 -0.13282104615E+04  0.56559238769E+03  0.14454668130E+04  0.00000000000E+00 0.  1.
<mgrwt>
<rscale>  0 0.36052373E+04</rscale>
<asrwt>0</asrwt>
<pdfrwt beam="1">  1        2 0.18490316E+00 0.36052373E+04</pdfrwt>
<pdfrwt beam="2">  1       -2 0.41594574E+00 0.36052373E+04</pdfrwt>
<totfact> 0.89673394E-02</totfact>
</mgrwt>
</event>
<event>
 6    1  0.1028026E-006  0.2188291E+04  0.7818608E-02  0.8523318E-01
         -2   -1    0    0    0  501 -0.00000000000E+00  0.00000000000E+00  0.79470564989E+03  0.79470564989E+03  0.00000000000E+00 0.  1.
          2   -1    0    0  501    0  0.00000000000E+00 -0.00000000000E+00 -0.15064116974E+04  0.15064116974E+04  0.00000000000E+00 0. -1.
         23    2    1    2    0    0  0.87908432956E+03 -0.63880211365E+03 -0.24011570764E+03  0.11165267650E+04  0.90105855025E+02 0.  0.
         13    1    3    3    0    0  0.28424400236E+03 -0.25564182931E+03 -0.10111730699E+03  0.39543913254E+03  0.00000000000E+00 0. -1.
        -13    1    3    3    0    0  0.59484032720E+03 -0.38316028434E+03 -0.13899840064E+03  0.72108763250E+03  0.00000000000E+00 0.  1.
         22    1    1    2    0    0 -0.87908432956E+03  0.63880211365E+03 -0.47159033986E+03  0.11845905822E+04  0.00000000000E+00 0.  1.
<mgrwt>
<rscale>  0 0.21882906E+04</rscale>
<asrwt>0</asrwt>
<pdfrwt beam="1">  1        2 0.23175565E+00 0.21882906E+04</pdfrwt>
<pdfrwt beam="2">  1       -2 0.12226241E+00 0.21882906E+04</pdfrwt>
<totfact> 0.58384060E+00</totfact>
</mgrwt>
</event>
<event>
 6    1  0.1028026E-006  0.1682995E+04  0.7818608E-02  0.8771123E-01
          2   -1    0    0  501    0  0.00000000000E+00  0.00000000000E+00  0.17420370654E+04  0.17420370654E+04  0.00000000000E+00 0. -1.
         -2   -1    0    0    0  501 -0.00000000000E+00 -0.00000000000E+00 -0.40648860842E+03  0.40648860842E+03  0.00000000000E+00 0.  1.
         23    2    1    2    0    0  0.35973898552E+03 -0.39390503140E+03  0.14965341002E+04  0.15913096575E+04  0.89882152423E+02 0.  0.
         13    1    3    3    0    0  0.51540691602E+02 -0.97097089771E+02  0.24152396394E+03  0.26536411380E+03  0.00000000000E+00 0. -1.
        -13    1    3    3    0    0  0.30819829392E+03 -0.29680794163E+03  0.12550101363E+04  0.13259455437E+04  0.00000000000E+00 0.  1.
         22    1    1    2    0    0 -0.35973898552E+03  0.39390503140E+03 -0.16098564331E+03  0.55721601630E+03  0.00000000000E+00 0.  1.
<mgrwt>
<rscale>  0 0.16829952E+04</rscale>
<asrwt>0</asrwt>
<pdfrwt beam="1">  1        2 0.26800570E+00 0.16829952E+04</pdfrwt>
<pdfrwt beam="2">  1       -2 0.62536710E-01 0.16829952E+04</pdfrwt>
<totfact> 0.20997334E+01</totfact>
</mgrwt>
</event>
<event>
 6    1  0.1028026E-006  0.2815762E+04  0.7818608E-02  0.8298392E-01
         -2   -1    0    0    0  501 -0.00000000000E+00  0.00000000000E+00  0.48611040777E+03  0.48611040777E+03  0.00000000000E+00 0.  1.
          2   -1    0    0  501    0  0.00000000000E+00 -0.00000000000E+00 -0.40775281231E+04  0.40775281231E+04  0.00000000000E+00 0. -1.
         23    2    1    2    0    0 -0.48857357065E+03  0.90634637714E+03 -0.33503766915E+04  0.35061563020E+04  0.89107517126E+02 0.  0.
         13    1    3    3    0    0 -0.22117749316E+03  0.33846592437E+03 -0.12220057021E+04  0.12871583436E+04  0.00000000000E+00 0. -1.
        -13    1    3    3    0    0 -0.26739607748E+03  0.56788045277E+03 -0.21283709894E+04  0.22189979584E+04  0.00000000000E+00 0.  1.
         22    1    1    2    0    0  0.48857357065E+03 -0.90634637714E+03 -0.24104102383E+03  0.10574822289E+04  0.00000000000E+00 0.  1.
<mgrwt>
<rscale>  0 0.28157620E+04</rscale>
<asrwt>0</asrwt>
<pdfrwt beam="1">  1        2 0.62731201E+00 0.28157620E+04</pdfrwt>
<pdfrwt beam="2">  1       -2 0.74786218E-01 0.28157620E+04</pdfrwt>
<totfact> 0.41295538E-01</totfact>
</mgrwt>
</event>
<event>
 6    1  0.1028026E-006  0.3224322E+04  0.7818608E-02  0.8182423E-01
          2   -1    0    0  501    0  0.00000000000E+00  0.00000000000E+00  0.13946574150E+04  0.13946574150E+04  0.00000000000E+00 0. -1.
         -2   -1    0    0    0  501 -0.00000000000E+00 -0.00000000000E+00 -0.18635856139E+04  0.18635856139E+04  0.00000000000E+00 0.  1.
         23    2    1    2    0    0 -0.47408755681E+03 -0.52204401692E+03  0.12289068639E+04  0.14197836555E+04  0.91019673915E+02 0.  0.
         13    1    3    3    0    0 -0.89426166387E+02 -0.10226182528E+03  0.17103838863E+03  0.21842309981E+03  0.00000000000E+00 0. -1.
        -13    1    3    3    0    0 -0.38466139042E+03 -0.41978219164E+03  0.10578684753E+04  0.12013605557E+04  0.00000000000E+00 0.  1.
         22    1    1    2    0    0  0.47408755681E+03  0.52204401692E+03 -0.16978350628E+04  0.18384593734E+04  0.00000000000E+00 0.  1.
<mgrwt>
<rscale>  0 0.32243223E+04</rscale>
<asrwt>0</asrwt>
<pdfrwt beam="1">  1        2 0.21456268E+00 0.32243223E+04</pdfrwt>
<pdfrwt beam="2">  1       -2 0.28670548E+00 0.32243223E+04</pdfrwt>
<totfact> 0.46933401E-01</totfact>
</mgrwt>
</event>
<event>
 6    1  0.1028026E-006  0.2052472E+04  0.7818608E-02  0.8582474E-01
          2   -1    0    0  501    0  0.00000000000E+00  0.00000000000E+00  0.14272557347E+04  0.14272557347E+04  0.00000000000E+00 0. -1.
         -2   -1    0    0    0  501 -0.00000000000E+00 -0.00000000000E+00 -0.73789179221E+03  0.73789179221E+03  0.00000000000E+00 0.  1.
         23    2    1    2    0    0 -0.96034220003E+03  0.16884173772E+03  0.13920354420E+02  0.97898197599E+03  0.86297505753E+02 0.  0.
         11    1    3    3    0    0 -0.22013084654E+03  0.72644926139E+02 -0.11741425748E+02  0.23210501066E+03  0.00000000000E+00 0.  1.
        -11    1    3    3    0    0 -0.74021135349E+03  0.96196811580E+02  0.25661780167E+02  0.74687696534E+03  0.00000000000E+00 0. -1.
         22    1    1    2    0    0  0.96034220003E+03 -0.16884173772E+03  0.67544358811E+03  0.11861655510E+04  0.00000000000E+00 0.  1.
<mgrwt>
<rscale>  0 0.20524720E+04</rscale>
<asrwt>0</asrwt>
<pdfrwt beam="1">  1        2 0.21957781E+00 0.20524720E+04</pdfrwt>
<pdfrwt beam="2">  1       -2 0.11352181E+00 0.20524720E+04</pdfrwt>
<totfact> 0.78610246E+00</totfact>
</mgrwt>
</event>
<event>
 6    1  0.1028026E-006  0.1504816E+04  0.7818608E-02  0.8881257E-01
         -2   -1    0    0    0  501 -0.00000000000E+00  0.00000000000E+00  0.63186585447E+03  0.63186585447E+03  0.00000000000E+00 0.  1.
          2   -1    0    0  501    0  0.00000000000E+00 -0.00000000000E+00 -0.89594572492E+03  0.89594572492E+03  0.00000000000E+00 0. -1.
         23    2    1    2    0    0  0.36164670486E+03  0.35874583179E+03 -0.69077608319E+03  0.86331434920E+03  0.93022349213E+02 0.  0.
         13    1    3    3    0    0  0.94196665611E+02  0.67522940619E+02 -0.10380380447E+03  0.15558788238E+03  0.00000000000E+00 0. -1.
        -13    1    3    3    0    0  0.26745003924E+03  0.29122289118E+03 -0.58697227873E+03  0.70772646682E+03  0.00000000000E+00 0.  1.
         22    1    1    2    0    0 -0.36164670486E+03 -0.35874583179E+03  0.42669621275E+03  0.66449723019E+03  0.00000000000E+00 0.  1.
<mgrwt>
<rscale>  0 0.15048156E+04</rscale>
<asrwt>0</asrwt>
<pdfrwt beam="1">  1        2 0.13783780E+00 0.15048156E+04</pdfrwt>
<pdfrwt beam="2">  1       -2 0.97210132E-01 0.15048156E+04</pdfrwt>
<totfact> 0.25173188E+01</totfact>
</mgrwt>
</event>
<event>
 6    1  0.1028026E-006  0.1346952E+04  0.7818608E-02  0.8993139E-01
          1   -1    0    0  501    0  0.00000000000E+00  0.00000000000E+00  0.51651183579E+03  0.51651183579E+03  0.00000000000E+00 0. -1.
         -1   -1    0    0    0  501 -0.00000000000E+00 -0.00000000000E+00 -0.87814019411E+03  0.87814019411E+03  0.00000000000E+00 0.  1.
         23    2    1    2    0    0  0.21269957672E+02  0.17875293394E+03  0.48713657670E+03  0.52700755352E+03  0.89609679256E+02 0.  0.
         13    1    3    3    0    0 -0.34931756442E+02  0.57798083885E+02  0.17430220318E+03  0.18692807211E+03  0.00000000000E+00 0. -1.
        -13    1    3    3    0    0  0.56201714113E+02  0.12095485006E+03  0.31283437352E+03  0.34007948141E+03  0.00000000000E+00 0.  1.
         22    1    1    2    0    0 -0.21269957672E+02 -0.17875293394E+03 -0.84876493502E+03  0.86764447639E+03  0.00000000000E+00 0.  1.
<mgrwt>
<rscale>  0 0.13469518E+04</rscale>
<asrwt>0</asrwt>
<pdfrwt beam="1">  1        1 0.79463360E-01 0.13469518E+04</pdfrwt>
<pdfrwt beam="2">  1       -1 0.13509849E+00 0.13469518E+04</pdfrwt>
<totfact> 0.19075878E+01</totfact>
</mgrwt>
</event>
<event>
 6    1  0.1028026E-006  0.2398108E+04  0.7818608E-02  0.8440212E-01
          2   -1    0    0  501    0  0.00000000000E+00  0.00000000000E+00  0.13922870132E+04  0.13922870132E+04  0.00000000000E+00 0. -1.
         -2   -1    0    0    0  501 -0.00000000000E+00 -0.00000000000E+00 -0.10326392157E+04  0.10326392157E+04  0.00000000000E+00 0.  1.
         23    2    1    2    0    0  0.33209005677E+03 -0.11433518389E+04  0.54167288807E+02  0.11957575771E+04  0.96772178992E+02 0.  0.
         11    1    3    3    0    0  0.14059921221E+03 -0.33763402454E+03  0.34515902427E+02  0.36736388027E+03  0.00000000000E+00 0. -1.
        -11    1    3    3    0    0  0.19149084456E+03 -0.80571781436E+03  0.19651386381E+02  0.82839369680E+03  0.00000000000E+00 0.  1.
         22    1    1    2    0    0 -0.33209005677E+03  0.11433518389E+04  0.30548050866E+03  0.12291686518E+04  0.00000000000E+00 0.  1.
<mgrwt>
<rscale>  0 0.23981077E+04</rscale>
<asrwt>0</asrwt>
<pdfrwt beam="1">  1        2 0.21419800E+00 0.23981077E+04</pdfrwt>
<pdfrwt beam="2">  1       -2 0.15886757E+00 0.23981077E+04</pdfrwt>
<totfact> 0.33769341E+00</totfact>
</mgrwt>
</event>
<event>
 6    1  0.1028026E-006  0.1455538E+04  0.7818608E-02  0.8914570E-01
          2   -1    0    0  501    0  0.00000000000E+00  0.00000000000E+00  0.27902176668E+04  0.27902176668E+04  0.00000000000E+00 0. -1.
         -2   -1    0    0    0  501 -0.00000000000E+00 -0.00000000000E+00 -0.18982298258E+03  0.18982298258E+03  0.00000000000E+00 0.  1.
         23    2    1    2    0    0 -0.58173314454E+03  0.21876869133E+03  0.54014604530E+03  0.82808859462E+03  0.87748381931E+02 0.  0.
         13    1    3    3    0    0 -0.18256163782E+03  0.50072946750E+02  0.21402274304E+03  0.28573026815E+03  0.00000000000E+00 0. -1.
        -13    1    3    3    0    0 -0.39917150672E+03  0.16869574458E+03  0.32612330226E+03  0.54235832647E+03  0.00000000000E+00 0.  1.
         22    1    1    2    0    0  0.58173314454E+03 -0.21876869133E+03  0.20602486389E+04  0.21519520547E+04  0.00000000000E+00 0. -1.
<mgrwt>
<rscale>  0 0.14555376E+04</rscale>
<asrwt>0</asrwt>
<pdfrwt beam="1">  1        2 0.42926423E+00 0.14555376E+04</pdfrwt>
<pdfrwt beam="2">  1       -2 0.29203538E-01 0.14555376E+04</pdfrwt>
<totfact> 0.24642070E+01</totfact>
</mgrwt>
</event>
<event>
 6    1  0.1028026E-006  0.1749668E+04  0.7818608E-02  0.8733533E-01
         -2   -1    0    0    0  501 -0.00000000000E+00  0.00000000000E+00  0.32344658697E+03  0.32344658697E+03  0.00000000000E+00 0.  1.
          2   -1    0    0  501    0  0.00000000000E+00 -0.00000000000E+00 -0.23661858212E+04  0.23661858212E+04  0.00000000000E+00 0. -1.
         23    2    1    2    0    0  0.48155030602E+03 -0.70008552420E+03 -0.13282542442E+04  0.15794525852E+04  0.91655295298E+02 0.  0.
         11    1    3    3    0    0  0.42498909435E+03 -0.62470381802E+03 -0.11219585128E+04  0.13526498050E+04  0.00000000000E+00 0. -1.
        -11    1    3    3    0    0  0.56561211671E+02 -0.75381706181E+02 -0.20629573144E+03  0.22680278020E+03  0.00000000000E+00 0.  1.
         22    1    1    2    0    0 -0.48155030602E+03  0.70008552420E+03 -0.71448499004E+03  0.11101798230E+04  0.00000000000E+00 0.  1.
<mgrwt>
<rscale>  0 0.17496682E+04</rscale>
<asrwt>0</asrwt>
<pdfrwt beam="1">  1        2 0.36402859E+00 0.17496682E+04</pdfrwt>
<pdfrwt beam="2">  1       -2 0.49761013E-01 0.17496682E+04</pdfrwt>
<totfact> 0.15069508E+01</totfact>
</mgrwt>
</event>
<event>
 6    1  0.1028026E-006  0.2457540E+04  0.7818608E-02  0.8418270E-01
         -1   -1    0    0    0  501 -0.00000000000E+00  0.00000000000E+00  0.67472106809E+03  0.67472106809E+03  0.00000000000E+00 0.  1.
          1   -1    0    0  501    0  0.00000000000E+00 -0.00000000000E+00 -0.22377784793E+04  0.22377784793E+04  0.00000000000E+00 0. -1.
         23    2    1    2    0    0  0.76317069332E+03  0.25881115670E+02  0.35575648278E+03  0.84732495452E+03  0.91090966766E+02 0.  0.
         11    1    3    3    0    0  0.93013160005E+02 -0.25941561721E+02  0.52667399110E+02  0.10999212466E+03  0.00000000000E+00 0.  1.
        -11    1    3    3    0    0  0.67015753331E+03  0.51822677390E+02  0.30308908367E+03  0.73733282986E+03  0.00000000000E+00 0. -1.
         22    1    1    2    0    0 -0.76317069332E+03 -0.25881115670E+02 -0.19188138939E+04  0.20651745928E+04  0.00000000000E+00 0. -1.
<mgrwt>
<rscale>  0 0.24575405E+04</rscale>
<asrwt>0</asrwt>
<pdfrwt beam="1">  1        1 0.34427361E+00 0.24575405E+04</pdfrwt>
<pdfrwt beam="2">  1       -1 0.10380324E+00 0.24575405E+04</pdfrwt>
<totfact> 0.16001542E+00</totfact>
</mgrwt>
</event>
<event>
 6    1  0.1028026E-006  0.1405870E+04  0.7818608E-02  0.8949581E-01
          1   -1    0    0  501    0  0.00000000000E+00  0.00000000000E+00  0.14498650979E+04  0.14498650979E+04  0.00000000000E+00 0. -1.
         -1   -1    0    0    0  501 -0.00000000000E+00 -0.00000000000E+00 -0.34080224899E+03  0.34080224899E+03  0.00000000000E+00 0.  1.
         23    2    1    2    0    0 -0.67700594674E+03 -0.73220830720E+02  0.35070185356E+03  0.77144718362E+03  0.91872874441E+02 0.  0.
         11    1    3    3    0    0 -0.35847741617E+03 -0.42659766719E+02  0.13442618585E+03  0.38522242022E+03  0.00000000000E+00 0.  1.
        -11    1    3    3    0    0 -0.31852853057E+03 -0.30561064001E+02  0.21627566771E+03  0.38622476340E+03  0.00000000000E+00 0. -1.
         22    1    1    2    0    0  0.67700594674E+03  0.73220830720E+02  0.75836099539E+03  0.10192201633E+04  0.00000000000E+00 0. -1.
<mgrwt>
<rscale>  0 0.14058695E+04</rscale>
<asrwt>0</asrwt>
<pdfrwt beam="1">  1        1 0.22305617E+00 0.14058695E+04</pdfrwt>
<pdfrwt beam="2">  1       -1 0.52431116E-01 0.14058695E+04</pdfrwt>
<totfact> 0.25318618E+01</totfact>
</mgrwt>
</event>
<event>
 6    1  0.1028026E-006  0.2263587E+04  0.7818608E-02  0.8492418E-01
          2   -1    0    0  501    0  0.00000000000E+00  0.00000000000E+00  0.22355815262E+04  0.22355815262E+04  0.00000000000E+00 0. -1.
         -2   -1    0    0    0  501 -0.00000000000E+00 -0.00000000000E+00 -0.57298566716E+03  0.57298566716E+03  0.00000000000E+00 0.  1.
         23    2    1    2    0    0 -0.78213746469E+03 -0.69018192777E+03  0.29354788049E+03  0.10874098866E+04  0.90552726027E+02 0.  0.
         11    1    3    3    0    0 -0.41093316092E+03 -0.34755087203E+03  0.19689890768E+03  0.57308537866E+03  0.00000000000E+00 0. -1.
        -11    1    3    3    0    0 -0.37120430377E+03 -0.34263105574E+03  0.96648972817E+02  0.51432450792E+03  0.00000000000E+00 0.  1.
         22    1    1    2    0    0  0.78213746469E+03  0.69018192777E+03  0.13690479785E+04  0.17211573067E+04  0.00000000000E+00 0. -1.
<mgrwt>
<rscale>  0 0.22635867E+04</rscale>
<asrwt>0</asrwt>
<pdfrwt beam="1">  1        2 0.34393561E+00 0.22635867E+04</pdfrwt>
<pdfrwt beam="2">  1       -2 0.88151643E-01 0.22635867E+04</pdfrwt>
<totfact> 0.49696856E+00</totfact>
</mgrwt>
</event>
<event>
 6    1  0.1028026E-006  0.4034523E+04  0.7818608E-02  0.7997618E-01
         -2   -1    0    0    0  501 -0.00000000000E+00  0.00000000000E+00  0.21119180537E+04  0.21119180537E+04  0.00000000000E+00 0.  1.
          2   -1    0    0  501    0  0.00000000000E+00 -0.00000000000E+00 -0.19268473070E+04  0.19268473070E+04  0.00000000000E+00 0. -1.
         23    2    1    2    0    0  0.19314074502E+04 -0.43450804294E+03 -0.29007985693E+03  0.20028625943E+04  0.90444846340E+02 0.  0.
         13    1    3    3    0    0  0.21143376874E+03 -0.76307068707E+02 -0.38812054835E+02  0.22810827013E+03  0.00000000000E+00 0. -1.
        -13    1    3    3    0    0  0.17199736814E+04 -0.35820097424E+03 -0.25126780210E+03  0.17747543242E+04  0.00000000000E+00 0.  1.
         22    1    1    2    0    0 -0.19314074502E+04  0.43450804294E+03  0.47515060366E+03  0.20359027664E+04  0.00000000000E+00 0.  1.
<mgrwt>
<rscale>  0 0.40345228E+04</rscale>
<asrwt>0</asrwt>
<pdfrwt beam="1">  1        2 0.29643805E+00 0.40345228E+04</pdfrwt>
<pdfrwt beam="2">  1       -2 0.32491047E+00 0.40345228E+04</pdfrwt>
<totfact> 0.12885386E-01</totfact>
</mgrwt>
</event>
<event>
 6    1  0.1028026E-006  0.1836159E+04  0.7818608E-02  0.8687303E-01
         -1   -1    0    0    0  501 -0.00000000000E+00  0.00000000000E+00  0.52052286185E+03  0.52052286185E+03  0.00000000000E+00 0.  1.
          1   -1    0    0  501    0  0.00000000000E+00 -0.00000000000E+00 -0.16192754617E+04  0.16192754617E+04  0.00000000000E+00 0. -1.
         23    2    1    2    0    0  0.47784182643E+03  0.58539380281E+03  0.52328158516E+02  0.76284312176E+03  0.90402858298E+02 0.  0.
         11    1    3    3    0    0  0.16047650630E+03  0.14916985822E+03  0.43161982495E+02  0.22330990217E+03  0.00000000000E+00 0. -1.
        -11    1    3    3    0    0  0.31736532014E+03  0.43622394460E+03  0.91661760215E+01  0.53953321959E+03  0.00000000000E+00 0.  1.
         22    1    1    2    0    0 -0.47784182643E+03 -0.58539380281E+03 -0.11510807584E+04  0.13769552018E+04  0.00000000000E+00 0. -1.
<mgrwt>
<rscale>  0 0.18361589E+04</rscale>
<asrwt>0</asrwt>
<pdfrwt beam="1">  1        1 0.24911929E+00 0.18361589E+04</pdfrwt>
<pdfrwt beam="2">  1       -1 0.80080443E-01 0.18361589E+04</pdfrwt>
<totfact> 0.79247844E+00</totfact>
</mgrwt>
</event>
<event>
 6    1  0.1028026E-006  0.2588436E+03  0.7818608E-02  0.1107840E+00
         -1   -1    0    0    0  501 -0.00000000000E+00  0.00000000000E+00  0.29221856157E+02  0.29221856157E+02  0.00000000000E+00 0.  1.
          1   -1    0    0  501    0  0.00000000000E+00 -0.00000000000E+00 -0.57320099950E+03  0.57320099950E+03  0.00000000000E+00 0. -1.
         23    2    1    2    0    0 -0.32141392481E+02 -0.90245880906E+02 -0.44673592804E+03  0.46591779694E+03  0.91263442728E+02 0.  0.
         13    1    3    3    0    0 -0.42953111366E+02 -0.21045631580E+01 -0.16542914048E+03  0.17092746848E+03  0.00000000000E+00 0. -1.
        -13    1    3    3    0    0  0.10811718884E+02 -0.88141317748E+02 -0.28130678756E+03  0.29499032846E+03  0.00000000000E+00 0.  1.
         22    1    1    2    0    0  0.32141392481E+02  0.90245880906E+02 -0.97243215305E+02  0.13650505871E+03  0.00000000000E+00 0.  1.
<mgrwt>
<rscale>  0 0.25884356E+03</rscale>
<asrwt>0</asrwt>
<pdfrwt beam="1">  1        1 0.88184768E-01 0.25884356E+03</pdfrwt>
<pdfrwt beam="2">  1       -1 0.44956703E-02 0.25884356E+03</pdfrwt>
<totfact> 0.76866454E+03</totfact>
</mgrwt>
</event>
<event>
 6    1  0.1028026E-006  0.2188233E+04  0.7818608E-02  0.8523342E-01
         -2   -1    0    0    0  501 -0.00000000000E+00  0.00000000000E+00  0.26193764622E+04  0.26193764622E+04  0.00000000000E+00 0.  1.
          2   -1    0    0  501    0  0.00000000000E+00 -0.00000000000E+00 -0.45701384124E+03  0.45701384124E+03  0.00000000000E+00 0. -1.
         23    2    1    2    0    0 -0.53700056633E+03  0.73548212277E+03  0.19308731761E+04  0.21367675471E+04  0.90558086360E+02 0.  0.
         11    1    3    3    0    0 -0.37776560429E+03  0.57452583701E+03  0.14052026962E+04  0.15644108816E+04  0.00000000000E+00 0. -1.
        -11    1    3    3    0    0 -0.15923496204E+03  0.16095628577E+03  0.52567047992E+03  0.57235666549E+03  0.00000000000E+00 0.  1.
         22    1    1    2    0    0  0.53700056633E+03 -0.73548212277E+03  0.23148944488E+03  0.93962275635E+03  0.00000000000E+00 0. -1.
<mgrwt>
<rscale>  0 0.21882334E+04</rscale>
<asrwt>0</asrwt>
<pdfrwt beam="1">  1        2 0.70309823E-01 0.21882334E+04</pdfrwt>
<pdfrwt beam="2">  1       -2 0.40298099E+00 0.21882334E+04</pdfrwt>
<totfact> 0.44432125E-01</totfact>
</mgrwt>
</event>
<event>
 6    1  0.1028026E-006  0.1837845E+04  0.7818608E-02  0.8686429E-01
         -3   -1    0    0    0  501 -0.00000000000E+00  0.00000000000E+00  0.45503591985E+03  0.45503591985E+03  0.00000000000E+00 0.  1.
          3   -1    0    0  501    0  0.00000000000E+00 -0.00000000000E+00 -0.18557177338E+04  0.18557177338E+04  0.00000000000E+00 0. -1.
         23    2    1    2    0    0 -0.24861523016E+02  0.65959564529E+03 -0.15014603406E+04  0.16430405250E+04  0.97542308095E+02 0.  0.
         11    1    3    3    0    0  0.84944432582E+01  0.74104856426E+02 -0.25186810374E+03  0.26268084626E+03  0.00000000000E+00 0. -1.
        -11    1    3    3    0    0 -0.33355966274E+02  0.58549078887E+03 -0.12495922369E+04  0.13803596788E+04  0.00000000000E+00 0.  1.
         22    1    1    2    0    0  0.24861523016E+02 -0.65959564529E+03  0.10077852671E+03  0.66771312857E+03  0.00000000000E+00 0.  1.
<mgrwt>
<rscale>  0 0.18378446E+04</rscale>
<asrwt>0</asrwt>
<pdfrwt beam="1">  1        3 0.28549503E+00 0.18378446E+04</pdfrwt>
<pdfrwt beam="2">  1       -3 0.70005527E-01 0.18378446E+04</pdfrwt>
<totfact> 0.22390971E-01</totfact>
</mgrwt>
</event>
<event>
 6    1  0.1028026E-006  0.4310841E+03  0.7818608E-02  0.1033518E+00
          2   -1    0    0  501    0  0.00000000000E+00  0.00000000000E+00  0.37416564952E+03  0.37416564952E+03  0.00000000000E+00 0. -1.
         -2   -1    0    0    0  501 -0.00000000000E+00 -0.00000000000E+00 -0.12416524550E+03  0.12416524550E+03  0.00000000000E+00 0.  1.
         23    2    1    2    0    0  0.40521853700E+02 -0.10135455633E+02  0.36383701620E+03  0.37707281339E+03  0.89787438730E+02 0.  0.
         13    1    3    3    0    0 -0.53040078986E+01  0.33889319219E+02  0.15655032975E+03  0.16026423245E+03  0.00000000000E+00 0.  1.
        -13    1    3    3    0    0  0.45825861599E+02 -0.44024774851E+02  0.20728668644E+03  0.21680858094E+03  0.00000000000E+00 0. -1.
         22    1    1    2    0    0 -0.40521853700E+02  0.10135455633E+02 -0.11383661218E+03  0.12125808163E+03  0.00000000000E+00 0.  1.
<mgrwt>
<rscale>  0 0.43108407E+03</rscale>
<asrwt>0</asrwt>
<pdfrwt beam="1">  1        2 0.57563946E-01 0.43108407E+03</pdfrwt>
<pdfrwt beam="2">  1       -2 0.19102346E-01 0.43108407E+03</pdfrwt>
<totfact> 0.19673265E+03</totfact>
</mgrwt>
</event>
<event>
 6    1  0.1028026E-006  0.2055952E+04  0.7818608E-02  0.8580899E-01
          2   -1    0    0  501    0  0.00000000000E+00  0.00000000000E+00  0.21356001496E+04  0.21356001496E+04  0.00000000000E+00 0. -1.
         -2   -1    0    0    0  501 -0.00000000000E+00 -0.00000000000E+00 -0.49481848965E+03  0.49481848965E+03  0.00000000000E+00 0.  1.
         23    2    1    2    0    0  0.10923638915E+03 -0.90873632626E+03  0.14149958596E+04  0.16877026019E+04  0.91610535919E+02 0.  0.
         13    1    3    3    0    0  0.26141291565E+02 -0.56527403518E+03  0.84113498680E+03  0.10137683009E+04  0.00000000000E+00 0.  1.
        -13    1    3    3    0    0  0.83095097587E+02 -0.34346229109E+03  0.57386087283E+03  0.67393430096E+03  0.00000000000E+00 0. -1.
         22    1    1    2    0    0 -0.10923638915E+03  0.90873632626E+03  0.22578580028E+03  0.94271603731E+03  0.00000000000E+00 0.  1.
<mgrwt>
<rscale>  0 0.20559518E+04</rscale>
<asrwt>0</asrwt>
<pdfrwt beam="1">  1        2 0.32855386E+00 0.20559518E+04</pdfrwt>
<pdfrwt beam="2">  1       -2 0.76125923E-01 0.20559518E+04</pdfrwt>
<totfact> 0.80178396E+00</totfact>
</mgrwt>
</event>
<event>
 6    1  0.1028026E-006  0.1451525E+04  0.7818608E-02  0.8917344E-01
         -2   -1    0    0    0  501 -0.00000000000E+00  0.00000000000E+00  0.10407060059E+04  0.10407060059E+04  0.00000000000E+00 0.  1.
          2   -1    0    0  501    0  0.00000000000E+00 -0.00000000000E+00 -0.50612883232E+03  0.50612883232E+03  0.00000000000E+00 0. -1.
         23    2    1    2    0    0  0.22228757109E+03  0.42444524258E+03 -0.30855391251E+03  0.57707427162E+03  0.90794657530E+02 0.  0.
         13    1    3    3    0    0  0.11575250688E+03  0.21131381011E+03 -0.20856123534E+03  0.31866904161E+03  0.00000000000E+00 0. -1.
        -13    1    3    3    0    0  0.10653506421E+03  0.21313143246E+03 -0.99992677167E+02  0.25840523001E+03  0.00000000000E+00 0.  1.
         22    1    1    2    0    0 -0.22228757109E+03 -0.42444524258E+03  0.84313108605E+03  0.96976056656E+03  0.00000000000E+00 0.  1.
<mgrwt>
<rscale>  0 0.14515252E+04</rscale>
<asrwt>0</asrwt>
<pdfrwt beam="1">  1        2 0.77865975E-01 0.14515252E+04</pdfrwt>
<pdfrwt beam="2">  1       -2 0.16010862E+00 0.14515252E+04</pdfrwt>
<totfact> 0.14786620E+01</totfact>
</mgrwt>
</event>
<event>
 6    1  0.1028026E-006  0.2982992E+04  0.7818608E-02  0.8248604E-01
          1   -1    0    0  501    0  0.00000000000E+00  0.00000000000E+00  0.93656563490E+03  0.93656563490E+03  0.00000000000E+00 0. -1.
         -1   -1    0    0    0  501 -0.00000000000E+00 -0.00000000000E+00 -0.23752314367E+04  0.23752314367E+04  0.00000000000E+00 0.  1.
         23    2    1    2    0    0  0.50283865928E+03 -0.81318153319E+03  0.54893404431E+03  0.11061987239E+04  0.90753008166E+02 0.  0.
         13    1    3    3    0    0  0.23495242789E+03 -0.31282493625E+03  0.19277359020E+03  0.43614646759E+03  0.00000000000E+00 0.  1.
        -13    1    3    3    0    0  0.26788623139E+03 -0.50035659695E+03  0.35616045411E+03  0.67005225628E+03  0.00000000000E+00 0. -1.
         22    1    1    2    0    0 -0.50283865928E+03  0.81318153319E+03 -0.19875998461E+04  0.22055983477E+04  0.00000000000E+00 0.  1.
<mgrwt>
<rscale>  0 0.29829919E+04</rscale>
<asrwt>0</asrwt>
<pdfrwt beam="1">  1        1 0.14408702E+00 0.29829919E+04</pdfrwt>
<pdfrwt beam="2">  1       -1 0.36542022E+00 0.29829919E+04</pdfrwt>
<totfact> 0.17753479E-01</totfact>
</mgrwt>
</event>
<event>
 6    1  0.1028026E-006  0.1658239E+04  0.7818608E-02  0.8785547E-01
          1   -1    0    0  501    0  0.00000000000E+00  0.00000000000E+00  0.17549025576E+04  0.17549025576E+04  0.00000000000E+00 0. -1.
         -1   -1    0    0    0  501 -0.00000000000E+00 -0.00000000000E+00 -0.39172500320E+03  0.39172500320E+03  0.00000000000E+00 0.  1.
         23    2    1    2    0    0  0.28028175241E+03  0.68843633149E+03  0.11520734033E+04  0.13739261917E+04  0.88868499743E+02 0.  0.
         11    1    3    3    0    0  0.14704653454E+03  0.30760563359E+03  0.45588339364E+03  0.56927460662E+03  0.00000000000E+00 0. -1.
        -11    1    3    3    0    0  0.13323521787E+03  0.38083069790E+03  0.69619000967E+03  0.80465158504E+03  0.00000000000E+00 0.  1.
         22    1    1    2    0    0 -0.28028175241E+03 -0.68843633149E+03  0.21110415107E+03  0.77270136913E+03  0.00000000000E+00 0.  1.
<mgrwt>
<rscale>  0 0.16582391E+04</rscale>
<asrwt>0</asrwt>
<pdfrwt beam="1">  1        1 0.26998500E+00 0.16582391E+04</pdfrwt>
<pdfrwt beam="2">  1       -1 0.60265386E-01 0.16582391E+04</pdfrwt>
<totfact> 0.11657692E+01</totfact>
</mgrwt>
</event>
<event>
 6    1  0.1028026E-006  0.3168767E+04  0.7818608E-02  0.8197115E-01
         -1   -1    0    0    0  501 -0.00000000000E+00  0.00000000000E+00  0.15333391860E+04  0.15333391860E+04  0.00000000000E+00 0.  1.
          1   -1    0    0  501    0  0.00000000000E+00 -0.00000000000E+00 -0.16371275581E+04  0.16371275581E+04  0.00000000000E+00 0. -1.
         23    2    1    2    0    0 -0.13381005158E+04 -0.66538898304E+03  0.47073988920E+03  0.15694238926E+04  0.90773467924E+02 0.  0.
         11    1    3    3    0    0 -0.29501753537E+03 -0.11656671206E+03  0.73362896555E+02  0.32558448846E+03  0.00000000000E+00 0. -1.
        -11    1    3    3    0    0 -0.10430829804E+04 -0.54882227099E+03  0.39737699265E+03  0.12438394042E+04  0.00000000000E+00 0.  1.
         22    1    1    2    0    0  0.13381005158E+04  0.66538898304E+03 -0.57452826126E+03  0.16010428514E+04  0.00000000000E+00 0. -1.
<mgrwt>
<rscale>  0 0.31687675E+04</rscale>
<asrwt>0</asrwt>
<pdfrwt beam="1">  1        1 0.25186578E+00 0.31687675E+04</pdfrwt>
<pdfrwt beam="2">  1       -1 0.23589834E+00 0.31687675E+04</pdfrwt>
<totfact> 0.38087361E-01</totfact>
</mgrwt>
</event>
<event>
 6    1  0.1028026E-006  0.4234751E+04  0.7818608E-02  0.7958795E-01
         -2   -1    0    0    0  501 -0.00000000000E+00  0.00000000000E+00  0.14169810205E+04  0.14169810205E+04  0.00000000000E+00 0.  1.
          2   -1    0    0  501    0  0.00000000000E+00 -0.00000000000E+00 -0.31639652589E+04  0.31639652589E+04  0.00000000000E+00 0. -1.
         23    2    1    2    0    0 -0.15361147805E+04 -0.11206886539E+04  0.13134622295E+03  0.19081730007E+04  0.90998309713E+02 0.  0.
         11    1    3    3    0    0 -0.48485653020E+03 -0.31302612748E+03  0.13948525905E+02  0.57729175703E+03  0.00000000000E+00 0. -1.
        -11    1    3    3    0    0 -0.10512582503E+04 -0.80766252642E+03  0.11739769704E+03  0.13308812436E+04  0.00000000000E+00 0.  1.
         22    1    1    2    0    0  0.15361147805E+04  0.11206886539E+04 -0.18783304613E+04  0.26727732787E+04  0.00000000000E+00 0.  1.
<mgrwt>
<rscale>  0 0.42347509E+04</rscale>
<asrwt>0</asrwt>
<pdfrwt beam="1">  1        2 0.48676389E+00 0.42347509E+04</pdfrwt>
<pdfrwt beam="2">  1       -2 0.21799708E+00 0.42347509E+04</pdfrwt>
<totfact> 0.10773000E-01</totfact>
</mgrwt>
</event>
<event>
 6    1  0.1028026E-006  0.2487177E+04  0.7818608E-02  0.8407568E-01
         -2   -1    0    0    0  501 -0.00000000000E+00  0.00000000000E+00  0.12733384988E+04  0.12733384988E+04  0.00000000000E+00 0.  1.
          2   -1    0    0  501    0  0.00000000000E+00 -0.00000000000E+00 -0.12145331833E+04  0.12145331833E+04  0.00000000000E+00 0. -1.
         23    2    1    2    0    0  0.11267113630E+04  0.45233543599E+03  0.29093789552E+03  0.12517602887E+04  0.90405304031E+02 0.  0.
         11    1    3    3    0    0  0.68815072789E+03  0.32115455791E+03  0.16762542634E+03  0.77768242742E+03  0.00000000000E+00 0.  1.
        -11    1    3    3    0    0  0.43856063513E+03  0.13118087808E+03  0.12331246917E+03  0.47407786124E+03  0.00000000000E+00 0. -1.
         22    1    1    2    0    0 -0.11267113630E+04 -0.45233543599E+03 -0.23213258001E+03  0.12361113934E+04  0.00000000000E+00 0. -1.
<mgrwt>
<rscale>  0 0.24871766E+04</rscale>
<asrwt>0</asrwt>
<pdfrwt beam="1">  1        2 0.18685126E+00 0.24871766E+04</pdfrwt>
<pdfrwt beam="2">  1       -2 0.19589823E+00 0.24871766E+04</pdfrwt>
<totfact> 0.23464685E+00</totfact>
</mgrwt>
</event>
<event>
 6    1  0.1028026E-006  0.2564610E+04  0.7818608E-02  0.8380323E-01
          1   -1    0    0  501    0  0.00000000000E+00  0.00000000000E+00  0.23456156990E+04  0.23456156990E+04  0.00000000000E+00 0. -1.
         -1   -1    0    0    0  501 -0.00000000000E+00 -0.00000000000E+00 -0.70101248011E+03  0.70101248011E+03  0.00000000000E+00 0.  1.
         23    2    1    2    0    0 -0.90392233655E+03  0.71253844718E+03  0.14904356184E+04  0.18853554815E+04  0.91544140603E+02 0.  0.
         13    1    3    3    0    0 -0.19032091196E+03  0.13105565811E+03  0.35618995446E+03  0.42458087417E+03  0.00000000000E+00 0. -1.
        -13    1    3    3    0    0 -0.71360142459E+03  0.58148278906E+03  0.11342456639E+04  0.14607746073E+04  0.00000000000E+00 0.  1.
         22    1    1    2    0    0  0.90392233655E+03 -0.71253844718E+03  0.15416760047E+03  0.11612726976E+04  0.00000000000E+00 0.  1.
<mgrwt>
<rscale>  0 0.25646098E+04</rscale>
<asrwt>0</asrwt>
<pdfrwt beam="1">  1        1 0.36086395E+00 0.25646098E+04</pdfrwt>
<pdfrwt beam="2">  1       -1 0.10784807E+00 0.25646098E+04</pdfrwt>
<totfact> 0.12228982E+00</totfact>
</mgrwt>
</event>
<event>
 6    1  0.1028026E-006  0.2043119E+04  0.7818608E-02  0.8586722E-01
          1   -1    0    0  501    0  0.00000000000E+00  0.00000000000E+00  0.18628410997E+04  0.18628410997E+04  0.00000000000E+00 0. -1.
         -1   -1    0    0    0  501 -0.00000000000E+00 -0.00000000000E+00 -0.56021093855E+03  0.56021093855E+03  0.00000000000E+00 0.  1.
         23    2    1    2    0    0 -0.96321362826E+03  0.27971340061E+03  0.43491159361E+03  0.10967958064E+04  0.88277213827E+02 0.  0.
         13    1    3    3    0    0 -0.78852416901E+03  0.24786439946E+03  0.32626709660E+03  0.88862666174E+03  0.00000000000E+00 0. -1.
        -13    1    3    3    0    0 -0.17468945924E+03  0.31849001146E+02  0.10864449701E+03  0.20816914463E+03  0.00000000000E+00 0.  1.
         22    1    1    2    0    0  0.96321362826E+03 -0.27971340061E+03  0.86771856753E+03  0.13262562319E+04  0.00000000000E+00 0. -1.
<mgrwt>
<rscale>  0 0.20431191E+04</rscale>
<asrwt>0</asrwt>
<pdfrwt beam="1">  1        1 0.28659094E+00 0.20431191E+04</pdfrwt>
<pdfrwt beam="2">  1       -1 0.86186299E-01 0.20431191E+04</pdfrwt>
<totfact> 0.45328485E+00</totfact>
</mgrwt>
</event>
<event>
 6    1  0.1028026E-006  0.2650826E+04  0.7818608E-02  0.8351139E-01
          2   -1    0    0  501    0  0.00000000000E+00  0.00000000000E+00  0.10034231426E+04  0.10034231426E+04  0.00000000000E+00 0. -1.
         -2   -1    0    0    0  501 -0.00000000000E+00 -0.00000000000E+00 -0.17507266394E+04  0.17507266394E+04  0.00000000000E+00 0.  1.
         23    2    1    2    0    0  0.10413889729E+04  0.50026522379E+03 -0.10459086220E+04  0.15608680433E+04  0.87337942352E+02 0.  0.
         11    1    3    3    0    0  0.35616207862E+03  0.20157424904E+03 -0.32815626582E+03  0.52456662010E+03  0.00000000000E+00 0. -1.
        -11    1    3    3    0    0  0.68522689424E+03  0.29869097476E+03 -0.71775235615E+03  0.10363014232E+04  0.00000000000E+00 0.  1.
         22    1    1    2    0    0 -0.10413889729E+04 -0.50026522379E+03  0.29860512517E+03  0.11932817386E+04  0.00000000000E+00 0.  1.
<mgrwt>
<rscale>  0 0.26508260E+04</rscale>
<asrwt>0</asrwt>
<pdfrwt beam="1">  1        2 0.15437279E+00 0.26508260E+04</pdfrwt>
<pdfrwt beam="2">  1       -2 0.26934256E+00 0.26508260E+04</pdfrwt>
<totfact> 0.10798096E+00</totfact>
</mgrwt>
</event>
<event>
 6    1  0.1028026E-006  0.9536523E+03  0.7818608E-02  0.9360892E-01
         -2   -1    0    0    0  501 -0.00000000000E+00  0.00000000000E+00  0.38144232171E+03  0.38144232171E+03  0.00000000000E+00 0.  1.
          2   -1    0    0  501    0  0.00000000000E+00 -0.00000000000E+00 -0.59606175303E+03  0.59606175303E+03  0.00000000000E+00 0. -1.
         23    2    1    2    0    0  0.17913778272E+03 -0.95604213412E+02  0.32894243060E+03  0.39725412123E+03  0.91527063542E+02 0.  0.
         11    1    3    3    0    0  0.65687495234E+01 -0.20945352096E+01  0.79742957464E+02  0.80040457352E+02  0.00000000000E+00 0.  1.
        -11    1    3    3    0    0  0.17256903320E+03 -0.93509678203E+02  0.24919947314E+03  0.31721366388E+03  0.00000000000E+00 0. -1.
         22    1    1    2    0    0 -0.17913778272E+03  0.95604213412E+02 -0.54356186192E+03  0.58024995352E+03  0.00000000000E+00 0. -1.
<mgrwt>
<rscale>  0 0.95365230E+03</rscale>
<asrwt>0</asrwt>
<pdfrwt beam="1">  1        2 0.91701807E-01 0.95365230E+03</pdfrwt>
<pdfrwt beam="2">  1       -2 0.58683435E-01 0.95365230E+03</pdfrwt>
<totfact> 0.13587076E+02</totfact>
</mgrwt>
</event>
<event>
 6    1  0.1028026E-006  0.1311078E+04  0.7818608E-02  0.9020826E-01
         -2   -1    0    0    0  501 -0.00000000000E+00  0.00000000000E+00  0.60779123714E+03  0.60779123714E+03  0.00000000000E+00 0.  1.
          2   -1    0    0  501    0  0.00000000000E+00 -0.00000000000E+00 -0.70703789105E+03  0.70703789105E+03  0.00000000000E+00 0. -1.
         23    2    1    2    0    0  0.26462510561E+03  0.56489345595E+03 -0.24140521989E+03  0.67503219089E+03  0.90889578392E+02 0.  0.
         13    1    3    3    0    0  0.20982476543E+03  0.46917356056E+03 -0.16115046263E+03  0.53862763921E+03  0.00000000000E+00 0. -1.
        -13    1    3    3    0    0  0.54800340180E+02  0.95719895393E+02 -0.80254757260E+02  0.13640455169E+03  0.00000000000E+00 0.  1.
         22    1    1    2    0    0 -0.26462510561E+03 -0.56489345595E+03  0.14215856598E+03  0.63979693730E+03  0.00000000000E+00 0.  1.
<mgrwt>
<rscale>  0 0.13110781E+04</rscale>
<asrwt>0</asrwt>
<pdfrwt beam="1">  1        2 0.10877506E+00 0.13110781E+04</pdfrwt>
<pdfrwt beam="2">  1       -2 0.93506344E-01 0.13110781E+04</pdfrwt>
<totfact> 0.38334168E+01</totfact>
</mgrwt>
</event>
<event>
 6    1  0.1028026E-006  0.3380014E+04  0.7818608E-02  0.8142829E-01
         -2   -1    0    0    0  501 -0.00000000000E+00  0.00000000000E+00  0.77467136181E+03  0.77467136181E+03  0.00000000000E+00 0.  1.
          2   -1    0    0  501    0  0.00000000000E+00 -0.00000000000E+00 -0.36868839585E+04  0.36868839585E+04  0.00000000000E+00 0. -1.
         23    2    1    2    0    0 -0.16777936697E+03  0.98228007241E+03  0.34255813305E+03  0.10576521842E+04  0.90873602531E+02 0.  0.
         13    1    3    3    0    0 -0.80993128327E+02  0.25819709589E+03  0.74358926067E+02  0.28063299351E+03  0.00000000000E+00 0. -1.
        -13    1    3    3    0    0 -0.86786238640E+02  0.72408297652E+03  0.26819920699E+03  0.77701919071E+03  0.00000000000E+00 0.  1.
         22    1    1    2    0    0  0.16777936697E+03 -0.98228007241E+03 -0.32547707297E+04  0.34039031361E+04  0.00000000000E+00 0. -1.
<mgrwt>
<rscale>  0 0.33800139E+04</rscale>
<asrwt>0</asrwt>
<pdfrwt beam="1">  1        2 0.56721291E+00 0.33800139E+04</pdfrwt>
<pdfrwt beam="2">  1       -2 0.11918021E+00 0.33800139E+04</pdfrwt>
<totfact> 0.26702307E-01</totfact>
</mgrwt>
</event>
<event>
 6    1  0.1028026E-006  0.1290783E+04  0.7818608E-02  0.9036906E-01
          2   -1    0    0  501    0  0.00000000000E+00  0.00000000000E+00  0.68263854914E+03  0.68263854914E+03  0.00000000000E+00 0. -1.
         -2   -1    0    0    0  501 -0.00000000000E+00 -0.00000000000E+00 -0.61017703461E+03  0.61017703461E+03  0.00000000000E+00 0.  1.
         23    2    1    2    0    0 -0.21332997023E+03  0.52328592821E+03  0.34162257163E+03  0.66688786147E+03  0.93250198197E+02 0.  0.
         13    1    3    3    0    0 -0.19031014893E+03  0.35508070268E+03  0.23451451137E+03  0.46615160007E+03  0.00000000000E+00 0.  1.
        -13    1    3    3    0    0 -0.23019821298E+02  0.16820522553E+03  0.10710806026E+03  0.20073626140E+03  0.00000000000E+00 0. -1.
         22    1    1    2    0    0  0.21332997023E+03 -0.52328592821E+03 -0.26916105711E+03  0.62592772228E+03  0.00000000000E+00 0.  1.
<mgrwt>
<rscale>  0 0.12907833E+04</rscale>
<asrwt>0</asrwt>
<pdfrwt beam="1">  1        2 0.10502132E+00 0.12907833E+04</pdfrwt>
<pdfrwt beam="2">  1       -2 0.93873390E-01 0.12907833E+04</pdfrwt>
<totfact> 0.39767442E+01</totfact>
</mgrwt>
</event>
<event>
 6    1  0.1028026E-006  0.2873337E+04  0.7818608E-02  0.8280855E-01
         -2   -1    0    0    0  501 -0.00000000000E+00  0.00000000000E+00  0.80960581908E+03  0.80960581908E+03  0.00000000000E+00 0.  1.
          2   -1    0    0  501    0  0.00000000000E+00 -0.00000000000E+00 -0.25494085520E+04  0.25494085520E+04  0.00000000000E+00 0. -1.
         23    2    1    2    0    0 -0.10356346028E+04  0.87343399511E+03 -0.31699176592E+03  0.13943726678E+04  0.91462465971E+02 0.  0.
         11    1    3    3    0    0 -0.49414485544E+03  0.47653746571E+03 -0.15865822814E+03  0.70458464909E+03  0.00000000000E+00 0.  1.
        -11    1    3    3    0    0 -0.54148974739E+03  0.39689652941E+03 -0.15833353777E+03  0.68978801871E+03  0.00000000000E+00 0. -1.
         22    1    1    2    0    0  0.10356346028E+04 -0.87343399511E+03 -0.14228109670E+04  0.19646417033E+04  0.00000000000E+00 0. -1.
<mgrwt>
<rscale>  0 0.28733367E+04</rscale>
<asrwt>0</asrwt>
<pdfrwt beam="1">  1        2 0.39221669E+00 0.28733367E+04</pdfrwt>
<pdfrwt beam="2">  1       -2 0.12455474E+00 0.28733367E+04</pdfrwt>
<totfact> 0.13630415E+00</totfact>
</mgrwt>
</event>
<event>
 6    1  0.1028026E-006  0.2290902E+04  0.7818608E-02  0.8481517E-01
         -2   -1    0    0    0  501 -0.00000000000E+00  0.00000000000E+00  0.69387136782E+03  0.69387136782E+03  0.00000000000E+00 0.  1.
          2   -1    0    0  501    0  0.00000000000E+00 -0.00000000000E+00 -0.18909233141E+04  0.18909233141E+04  0.00000000000E+00 0. -1.
         23    2    1    2    0    0 -0.66949834558E+03  0.89629335153E+03 -0.33168098956E+03  0.11704267314E+04  0.91195657956E+02 0.  0.
         13    1    3    3    0    0 -0.42709131871E+03  0.52910722185E+03 -0.23927724098E+03  0.72084328725E+03  0.00000000000E+00 0. -1.
        -13    1    3    3    0    0 -0.24240702687E+03  0.36718612968E+03 -0.92403748586E+02  0.44958344416E+03  0.00000000000E+00 0.  1.
         22    1    1    2    0    0  0.66949834558E+03 -0.89629335153E+03 -0.86537095673E+03  0.14143679505E+04  0.00000000000E+00 0. -1.
<mgrwt>
<rscale>  0 0.22909016E+04</rscale>
<asrwt>0</asrwt>
<pdfrwt beam="1">  1        2 0.29091128E+00 0.22909016E+04</pdfrwt>
<pdfrwt beam="2">  1       -2 0.10674944E+00 0.22909016E+04</pdfrwt>
<totfact> 0.49236525E+00</totfact>
</mgrwt>
</event>
<event>
 6    1  0.1028026E-006  0.1724169E+04  0.7818608E-02  0.8747699E-01
          1   -1    0    0  501    0  0.00000000000E+00  0.00000000000E+00  0.13154172469E+04  0.13154172469E+04  0.00000000000E+00 0. -1.
         -1   -1    0    0    0  501 -0.00000000000E+00 -0.00000000000E+00 -0.56498383078E+03  0.56498383078E+03  0.00000000000E+00 0.  1.
         23    2    1    2    0    0  0.23094365658E+03 -0.48446822003E+03  0.11086812352E+04  0.12351213488E+04  0.91138555327E+02 0.  0.
         13    1    3    3    0    0  0.15794602149E+03 -0.23420560597E+03  0.61746984101E+03  0.67902004103E+03  0.00000000000E+00 0. -1.
        -13    1    3    3    0    0  0.72997635097E+02 -0.25026261406E+03  0.49121139418E+03  0.55610130776E+03  0.00000000000E+00 0.  1.
         22    1    1    2    0    0 -0.23094365658E+03  0.48446822003E+03 -0.35824781902E+03  0.64527972893E+03  0.00000000000E+00 0.  1.
<mgrwt>
<rscale>  0 0.17241688E+04</rscale>
<asrwt>0</asrwt>
<pdfrwt beam="1">  1        1 0.20237188E+00 0.17241688E+04</pdfrwt>
<pdfrwt beam="2">  1       -1 0.86920589E-01 0.17241688E+04</pdfrwt>
<totfact> 0.10922040E+01</totfact>
</mgrwt>
</event>
<event>
 6    1  0.1449945E-006  0.3286949E+04  0.7818608E-02  0.8166224E-01
          1   -1    0    0  501    0  0.00000000000E+00  0.00000000000E+00  0.18684584472E+04  0.18684584472E+04  0.00000000000E+00 0. -1.
         -1   -1    0    0    0  501 -0.00000000000E+00 -0.00000000000E+00 -0.14455813537E+04  0.14455813537E+04  0.00000000000E+00 0.  1.
         23    2    1    2    0    0 -0.62156965028E+03  0.14735348282E+04  0.58786711510E+03  0.17062850225E+04  0.90372081136E+02 0.  0.
         13    1    3    3    0    0 -0.33166716003E+03  0.88033376634E+03  0.31837454223E+03  0.99315305685E+03  0.00000000000E+00 0.  1.
        -13    1    3    3    0    0 -0.28990249025E+03  0.59320106187E+03  0.26949257287E+03  0.71313196569E+03  0.00000000000E+00 0. -1.
         22    1    1    2    0    0  0.62156965028E+03 -0.14735348282E+04 -0.16499002167E+03  0.16077547784E+04  0.00000000000E+00 0.  1.
<mgrwt>
<rscale>  0 0.32869492E+04</rscale>
<asrwt>0</asrwt>
<pdfrwt beam="1">  1        1 0.28745515E+00 0.32869492E+04</pdfrwt>
<pdfrwt beam="2">  1       -1 0.22239713E+00 0.32869492E+04</pdfrwt>
<totfact> 0.32242914E-01</totfact>
</mgrwt>
</event>
<event>
 6    1  0.1028026E-006  0.4125439E+04  0.7818608E-02  0.7979709E-01
         -1   -1    0    0    0  501 -0.00000000000E+00  0.00000000000E+00  0.29487345776E+04  0.29487345776E+04  0.00000000000E+00 0.  1.
          1   -1    0    0  501    0  0.00000000000E+00 -0.00000000000E+00 -0.14429277339E+04  0.14429277339E+04  0.00000000000E+00 0. -1.
         23    2    1    2    0    0  0.14814712269E+04 -0.83982741374E+03 -0.48401878651E+03  0.17726027246E+04  0.88199503692E+02 0.  0.
         13    1    3    3    0    0  0.46619385750E+03 -0.22567221748E+03 -0.17079620516E+03  0.54537693956E+03  0.00000000000E+00 0. -1.
        -13    1    3    3    0    0  0.10152773694E+04 -0.61415519626E+03 -0.31322258136E+03  0.12272257850E+04  0.00000000000E+00 0.  1.
         22    1    1    2    0    0 -0.14814712269E+04  0.83982741374E+03  0.19898256302E+04  0.26190595869E+04  0.00000000000E+00 0.  1.
<mgrwt>
<rscale>  0 0.41254386E+04</rscale>
<asrwt>0</asrwt>
<pdfrwt beam="1">  1        1 0.22198888E+00 0.41254386E+04</pdfrwt>
<pdfrwt beam="2">  1       -1 0.45365147E+00 0.41254386E+04</pdfrwt>
<totfact> 0.16961818E-02</totfact>
</mgrwt>
</event>
<event>
 6    1  0.1028026E-006  0.1733695E+04  0.7818608E-02  0.8742377E-01
          1   -1    0    0  501    0  0.00000000000E+00  0.00000000000E+00  0.11498451614E+04  0.11498451614E+04  0.00000000000E+00 0. -1.
         -1   -1    0    0    0  501 -0.00000000000E+00 -0.00000000000E+00 -0.65350073094E+03  0.65350073094E+03  0.00000000000E+00 0.  1.
         23    2    1    2    0    0  0.42585528592E+03 -0.46715998833E+03 -0.36481621170E+03  0.73508149117E+03  0.87537141292E+02 0.  0.
         11    1    3    3    0    0  0.36329547850E+03 -0.35979852913E+03 -0.31891752362E+03  0.60261677137E+03  0.00000000000E+00 0. -1.
        -11    1    3    3    0    0  0.62559807416E+02 -0.10736145919E+03 -0.45898688080E+02  0.13246471980E+03  0.00000000000E+00 0.  1.
         22    1    1    2    0    0 -0.42585528592E+03  0.46715998833E+03  0.86116064220E+03  0.10682644012E+04  0.00000000000E+00 0. -1.
<mgrwt>
<rscale>  0 0.17336951E+04</rscale>
<asrwt>0</asrwt>
<pdfrwt beam="1">  1        1 0.17689926E+00 0.17336951E+04</pdfrwt>
<pdfrwt beam="2">  1       -1 0.10053857E+00 0.17336951E+04</pdfrwt>
<totfact> 0.10395951E+01</totfact>
</mgrwt>
</event>
<event>
 6    1  0.1028026E-006  0.2096079E+04  0.7818608E-02  0.8562973E-01
          1   -1    0    0  501    0  0.00000000000E+00  0.00000000000E+00  0.25586857733E+04  0.25586857733E+04  0.00000000000E+00 0. -1.
         -1   -1    0    0    0  501 -0.00000000000E+00 -0.00000000000E+00 -0.42927766857E+03  0.42927766857E+03  0.00000000000E+00 0.  1.
         23    2    1    2    0    0  0.43533146454E+03 -0.64079712747E+02 -0.28602547988E+03  0.53277727881E+03  0.91767968678E+02 0.  0.
         13    1    3    3    0    0  0.13049464523E+03 -0.19485580618E+02 -0.13818643575E+03  0.19106028188E+03  0.00000000000E+00 0. -1.
        -13    1    3    3    0    0  0.30483681931E+03 -0.44594132129E+02 -0.14783904413E+03  0.34171699694E+03  0.00000000000E+00 0.  1.
         22    1    1    2    0    0 -0.43533146454E+03  0.64079712747E+02  0.24154335846E+04  0.24551861631E+04  0.00000000000E+00 0. -1.
<mgrwt>
<rscale>  0 0.20960789E+04</rscale>
<asrwt>0</asrwt>
<pdfrwt beam="1">  1        1 0.39364396E+00 0.20960789E+04</pdfrwt>
<pdfrwt beam="2">  1       -1 0.66042720E-01 0.20960789E+04</pdfrwt>
<totfact> 0.26370259E+00</totfact>
</mgrwt>
</event>
<event>
 6    1  0.1028026E-006  0.4878955E+04  0.7818608E-02  0.7847456E-01
          1   -1    0    0  501    0  0.00000000000E+00  0.00000000000E+00  0.31338594279E+04  0.31338594279E+04  0.00000000000E+00 0. -1.
         -1   -1    0    0    0  501 -0.00000000000E+00 -0.00000000000E+00 -0.18989526980E+04  0.18989526980E+04  0.00000000000E+00 0.  1.
         23    2    1    2    0    0 -0.50357739090E+03 -0.82352634312E+02 -0.18421657136E+04  0.19137181922E+04  0.91491298978E+02 0.  0.
         11    1    3    3    0    0 -0.24979870343E+03 -0.81449227917E+02 -0.10183908917E+04  0.10517382647E+04  0.00000000000E+00 0.  1.
        -11    1    3    3    0    0 -0.25377868747E+03 -0.90340639467E+00 -0.82377482188E+03  0.86197992756E+03  0.00000000000E+00 0. -1.
         22    1    1    2    0    0  0.50357739090E+03  0.82352634312E+02  0.30770724435E+04  0.31190939338E+04  0.00000000000E+00 0. -1.
<mgrwt>
<rscale>  0 0.48789551E+04</rscale>
<asrwt>0</asrwt>
<pdfrwt beam="1">  1        1 0.48213222E+00 0.48789551E+04</pdfrwt>
<pdfrwt beam="2">  1       -1 0.29214657E+00 0.48789551E+04</pdfrwt>
<totfact> 0.12887398E-02</totfact>
</mgrwt>
</event>
<event>
 6    1  0.1028026E-006  0.1817280E+04  0.7818608E-02  0.8697164E-01
         -2   -1    0    0    0  501 -0.00000000000E+00  0.00000000000E+00  0.35873508797E+03  0.35873508797E+03  0.00000000000E+00 0.  1.
          2   -1    0    0  501    0  0.00000000000E+00 -0.00000000000E+00 -0.23014951382E+04  0.23014951382E+04  0.00000000000E+00 0. -1.
         23    2    1    2    0    0  0.30831930973E+03 -0.68417710499E+03 -0.22986625041E+03  0.79015956515E+03  0.91403159526E+02 0.  0.
         11    1    3    3    0    0  0.40110090693E+02 -0.17115066298E+03 -0.73277307335E+02  0.19044929137E+03  0.00000000000E+00 0. -1.
        -11    1    3    3    0    0  0.26820921904E+03 -0.51302644201E+03 -0.15658894307E+03  0.59971027378E+03  0.00000000000E+00 0.  1.
         22    1    1    2    0    0 -0.30831930973E+03  0.68417710499E+03 -0.17128937998E+04  0.18700706610E+04  0.00000000000E+00 0. -1.
<mgrwt>
<rscale>  0 0.18172805E+04</rscale>
<asrwt>0</asrwt>
<pdfrwt beam="1">  1        2 0.35407617E+00 0.18172805E+04</pdfrwt>
<pdfrwt beam="2">  1       -2 0.55190014E-01 0.18172805E+04</pdfrwt>
<totfact> 0.13173751E+01</totfact>
</mgrwt>
</event>
<event>
 6    1  0.1028026E-006  0.3091579E+04  0.7818608E-02  0.8218053E-01
          2   -1    0    0  501    0  0.00000000000E+00  0.00000000000E+00  0.39402858296E+04  0.39402858296E+04  0.00000000000E+00 0. -1.
         -2   -1    0    0    0  501 -0.00000000000E+00 -0.00000000000E+00 -0.60641923482E+03  0.60641923482E+03  0.00000000000E+00 0.  1.
         23    2    1    2    0    0  0.76808445064E+03 -0.23519542023E+03 -0.27151813338E+03  0.85291708362E+03  0.92058925550E+02 0.  0.
         11    1    3    3    0    0  0.51681280772E+03 -0.19578632950E+03 -0.21025733266E+03  0.59130018686E+03  0.00000000000E+00 0.  1.
        -11    1    3    3    0    0  0.25127164292E+03 -0.39409090725E+02 -0.61260800716E+02  0.26161689676E+03  0.00000000000E+00 0. -1.
         22    1    1    2    0    0 -0.76808445064E+03  0.23519542023E+03  0.36053847282E+04  0.36937879808E+04  0.00000000000E+00 0. -1.
<mgrwt>
<rscale>  0 0.30915790E+04</rscale>
<asrwt>0</asrwt>
<pdfrwt beam="1">  1        2 0.60619780E+00 0.30915790E+04</pdfrwt>
<pdfrwt beam="2">  1       -2 0.93295270E-01 0.30915790E+04</pdfrwt>
<totfact> 0.31521755E-01</totfact>
</mgrwt>
</event>
<event>
 6    1  0.1028026E-006  0.1751619E+04  0.7818608E-02  0.8732460E-01
         -1   -1    0    0    0  501 -0.00000000000E+00  0.00000000000E+00  0.96746327340E+03  0.96746327340E+03  0.00000000000E+00 0.  1.
          1   -1    0    0  501    0  0.00000000000E+00 -0.00000000000E+00 -0.79283838606E+03  0.79283838606E+03  0.00000000000E+00 0. -1.
         23    2    1    2    0    0 -0.78995646543E+03  0.33617796253E+03 -0.73072294459E+02  0.86676893280E+03  0.94350319994E+02 0.  0.
         11    1    3    3    0    0 -0.31495347858E+03  0.17132350939E+03  0.10572335756E+01  0.35853668750E+03  0.00000000000E+00 0.  1.
        -11    1    3    3    0    0 -0.47500298685E+03  0.16485445314E+03 -0.74129528035E+02  0.50823224530E+03  0.00000000000E+00 0. -1.
         22    1    1    2    0    0  0.78995646543E+03 -0.33617796253E+03  0.24769718180E+03  0.89353272667E+03  0.00000000000E+00 0.  1.
<mgrwt>
<rscale>  0 0.17516187E+04</rscale>
<asrwt>0</asrwt>
<pdfrwt beam="1">  1        1 0.12197514E+00 0.17516187E+04</pdfrwt>
<pdfrwt beam="2">  1       -1 0.14884051E+00 0.17516187E+04</pdfrwt>
<totfact> 0.75726292E+00</totfact>
</mgrwt>
</event>
<event>
 6    1  0.1028026E-006  0.1538052E+04  0.7818608E-02  0.8859536E-01
          2   -1    0    0  501    0  0.00000000000E+00  0.00000000000E+00  0.11913093433E+04  0.11913093433E+04  0.00000000000E+00 0. -1.
         -2   -1    0    0    0  501 -0.00000000000E+00 -0.00000000000E+00 -0.49642908446E+03  0.49642908446E+03  0.00000000000E+00 0.  1.
         23    2    1    2    0    0 -0.19752799544E+03  0.72520981520E+03  0.51304005171E+03  0.91442578337E+03  0.89542356498E+02 0.  0.
         13    1    3    3    0    0 -0.30166027103E+02  0.24592645068E+03  0.19573651452E+03  0.31575717165E+03  0.00000000000E+00 0.  1.
        -13    1    3    3    0    0 -0.16736196833E+03  0.47928336452E+03  0.31730353718E+03  0.59866861172E+03  0.00000000000E+00 0. -1.
         22    1    1    2    0    0  0.19752799544E+03 -0.72520981520E+03  0.18184020714E+03  0.77331264439E+03  0.00000000000E+00 0. -1.
<mgrwt>
<rscale>  0 0.15380515E+04</rscale>
<asrwt>0</asrwt>
<pdfrwt beam="1">  1        2 0.18327836E+00 0.15380515E+04</pdfrwt>
<pdfrwt beam="2">  1       -2 0.76373706E-01 0.15380515E+04</pdfrwt>
<totfact> 0.28327513E+01</totfact>
</mgrwt>
</event>
<event>
 6    1  0.1028026E-006  0.1173473E+04  0.7818608E-02  0.9136397E-01
          1   -1    0    0  501    0  0.00000000000E+00  0.00000000000E+00  0.13918776364E+03  0.13918776364E+03  0.00000000000E+00 0. -1.
         -1   -1    0    0    0  501 -0.00000000000E+00 -0.00000000000E+00 -0.24733487639E+04  0.24733487639E+04  0.00000000000E+00 0.  1.
         23    2    1    2    0    0  0.38329141202E+03  0.12516852792E+03 -0.21122327598E+04  0.21522848455E+04  0.90682730498E+02 0.  0.
         13    1    3    3    0    0  0.20610729356E+03  0.74869771942E+02 -0.13759559248E+04  0.13933199224E+04  0.00000000000E+00 0.  1.
        -13    1    3    3    0    0  0.17718411846E+03  0.50298755975E+02 -0.73627683502E+03  0.75896492308E+03  0.00000000000E+00 0. -1.
         22    1    1    2    0    0 -0.38329141202E+03 -0.12516852792E+03 -0.22192824042E+03  0.46025168202E+03  0.00000000000E+00 0. -1.
<mgrwt>
<rscale>  0 0.11734733E+04</rscale>
<asrwt>0</asrwt>
<pdfrwt beam="1">  1        1 0.21413503E-01 0.11734733E+04</pdfrwt>
<pdfrwt beam="2">  1       -1 0.38051518E+00 0.11734733E+04</pdfrwt>
<totfact> 0.23414225E+00</totfact>
</mgrwt>
</event>
<event>
 6    1  0.1028026E-006  0.8461129E+03  0.7818608E-02  0.9495569E-01
          2   -1    0    0  501    0  0.00000000000E+00  0.00000000000E+00  0.96645947195E+03  0.96645947195E+03  0.00000000000E+00 0. -1.
         -2   -1    0    0    0  501 -0.00000000000E+00 -0.00000000000E+00 -0.18518805851E+03  0.18518805851E+03  0.00000000000E+00 0.  1.
         23    2    1    2    0    0  0.21675392570E+03  0.82496746231E+02 -0.78330772143E+02  0.26130832830E+03  0.91424040225E+02 0.  0.
         11    1    3    3    0    0  0.35862800483E+02 -0.74413763963E+01 -0.42558996446E+02  0.56149645766E+02  0.00000000000E+00 0. -1.
        -11    1    3    3    0    0  0.18089112522E+03  0.89938122628E+02 -0.35771775698E+02  0.20515868254E+03  0.00000000000E+00 0.  1.
         22    1    1    2    0    0 -0.21675392570E+03 -0.82496746231E+02  0.85960218558E+03  0.89033920216E+03  0.00000000000E+00 0. -1.
<mgrwt>
<rscale>  0 0.84611288E+03</rscale>
<asrwt>0</asrwt>
<pdfrwt beam="1">  1        2 0.14868607E+00 0.84611288E+03</pdfrwt>
<pdfrwt beam="2">  1       -2 0.28490471E-01 0.84611288E+03</pdfrwt>
<totfact> 0.29978743E+02</totfact>
</mgrwt>
</event>
<event>
 6    1  0.1028026E-006  0.2400866E+04  0.7818608E-02  0.8439179E-01
         -2   -1    0    0    0  501 -0.00000000000E+00  0.00000000000E+00  0.81900663885E+03  0.81900663885E+03  0.00000000000E+00 0.  1.
          2   -1    0    0  501    0  0.00000000000E+00 -0.00000000000E+00 -0.17594965038E+04  0.17594965038E+04  0.00000000000E+00 0. -1.
         23    2    1    2    0    0 -0.34799986506E+03 -0.11432309429E+04 -0.57239591500E+03  0.13280735961E+04  0.89785847410E+02 0.  0.
         11    1    3    3    0    0 -0.71122249254E+02 -0.37272487380E+03 -0.19254195179E+03  0.42550512228E+03  0.00000000000E+00 0.  1.
        -11    1    3    3    0    0 -0.27687761581E+03 -0.77050606906E+03 -0.37985396320E+03  0.90256847383E+03  0.00000000000E+00 0. -1.
         22    1    1    2    0    0  0.34799986506E+03  0.11432309429E+04 -0.36809394992E+03  0.12504295465E+04  0.00000000000E+00 0. -1.
<mgrwt>
<rscale>  0 0.24008659E+04</rscale>
<asrwt>0</asrwt>
<pdfrwt beam="1">  1        2 0.27069177E+00 0.24008659E+04</pdfrwt>
<pdfrwt beam="2">  1       -2 0.12600102E+00 0.24008659E+04</pdfrwt>
<totfact> 0.38405667E+00</totfact>
</mgrwt>
</event>
<event>
 6    1  0.1028026E-006  0.4266298E+04  0.7818608E-02  0.7952879E-01
          2   -1    0    0  501    0  0.00000000000E+00  0.00000000000E+00  0.23101920958E+04  0.23101920958E+04  0.00000000000E+00 0. -1.
         -2   -1    0    0    0  501 -0.00000000000E+00 -0.00000000000E+00 -0.19696737676E+04  0.19696737676E+04  0.00000000000E+00 0.  1.
         23    2    1    2    0    0 -0.23629998672E+03  0.20200752658E+04 -0.47169999775E+03  0.20898338152E+04  0.91447931782E+02 0.  0.
         11    1    3    3    0    0 -0.78132173337E+02  0.47566370136E+03 -0.79251296065E+02  0.48850932563E+03  0.00000000000E+00 0.  1.
        -11    1    3    3    0    0 -0.15816781338E+03  0.15444115644E+04 -0.39244870168E+03  0.16013244896E+04  0.00000000000E+00 0. -1.
         22    1    1    2    0    0  0.23629998672E+03 -0.20200752658E+04  0.81221832588E+03  0.21900320482E+04  0.00000000000E+00 0.  1.
<mgrwt>
<rscale>  0 0.42662981E+04</rscale>
<asrwt>0</asrwt>
<pdfrwt beam="1">  1        2 0.35541417E+00 0.42662981E+04</pdfrwt>
<pdfrwt beam="2">  1       -2 0.30302673E+00 0.42662981E+04</pdfrwt>
<totfact> 0.10520014E-01</totfact>
</mgrwt>
</event>
<event>
 6    1  0.1028026E-006  0.4705162E+03  0.7818608E-02  0.1021775E+00
         -2   -1    0    0    0  501 -0.00000000000E+00  0.00000000000E+00  0.21865334350E+03  0.21865334350E+03  0.00000000000E+00 0.  1.
          2   -1    0    0  501    0  0.00000000000E+00 -0.00000000000E+00 -0.25312385563E+03  0.25312385563E+03  0.00000000000E+00 0. -1.
         23    2    1    2    0    0  0.13572781164E+03 -0.69496456158E+02  0.14783268494E+03  0.23410883369E+03  0.98491862629E+02 0.  0.
         13    1    3    3    0    0  0.10239647566E+02 -0.41814461485E+02  0.72722700567E+01  0.43659884142E+02  0.00000000000E+00 0.  1.
        -13    1    3    3    0    0  0.12548816407E+03 -0.27681994674E+02  0.14056041489E+03  0.19044894955E+03  0.00000000000E+00 0. -1.
         22    1    1    2    0    0 -0.13572781164E+03  0.69496456158E+02 -0.18230319707E+03  0.23766836544E+03  0.00000000000E+00 0. -1.
<mgrwt>
<rscale>  0 0.47051622E+03</rscale>
<asrwt>0</asrwt>
<pdfrwt beam="1">  1        2 0.38942132E-01 0.47051622E+03</pdfrwt>
<pdfrwt beam="2">  1       -2 0.33638976E-01 0.47051622E+03</pdfrwt>
<totfact> 0.10962600E+03</totfact>
</mgrwt>
</event>
<event>
 6    1  0.1028026E-006  0.2143403E+04  0.7818608E-02  0.8542361E-01
         -2   -1    0    0    0  501 -0.00000000000E+00  0.00000000000E+00  0.12549044144E+04  0.12549044144E+04  0.00000000000E+00 0.  1.
          2   -1    0    0  501    0  0.00000000000E+00 -0.00000000000E+00 -0.91524440834E+03  0.91524440834E+03  0.00000000000E+00 0. -1.
         23    2    1    2    0    0  0.61165263021E+03  0.17921087438E+03 -0.69911308089E+03  0.95142612920E+03  0.10107968100E+03 0.  0.
         11    1    3    3    0    0  0.30763829140E+03  0.62499697741E+02 -0.27984895467E+03  0.42055079121E+03  0.00000000000E+00 0. -1.
        -11    1    3    3    0    0  0.30401433881E+03  0.11671117664E+03 -0.41926412622E+03  0.53087533799E+03  0.00000000000E+00 0.  1.
         22    1    1    2    0    0 -0.61165263021E+03 -0.17921087438E+03  0.10387730870E+04  0.12187226935E+04  0.00000000000E+00 0.  1.
<mgrwt>
<rscale>  0 0.21434031E+04</rscale>
<asrwt>0</asrwt>
<pdfrwt beam="1">  1        2 0.14080683E+00 0.21434031E+04</pdfrwt>
<pdfrwt beam="2">  1       -2 0.19306222E+00 0.21434031E+04</pdfrwt>
<totfact> 0.38864910E+00</totfact>
</mgrwt>
</event>
<event>
 6    1  0.1028026E-006  0.1322035E+04  0.7818608E-02  0.9012272E-01
         -1   -1    0    0    0  501 -0.00000000000E+00  0.00000000000E+00  0.42219666139E+03  0.42219666139E+03  0.00000000000E+00 0.  1.
          1   -1    0    0  501    0  0.00000000000E+00 -0.00000000000E+00 -0.10349300084E+04  0.10349300084E+04  0.00000000000E+00 0. -1.
         23    2    1    2    0    0  0.62970270785E+03 -0.12201541616E+03 -0.46935441676E+03  0.79988182976E+03  0.90022835918E+02 0.  0.
         11    1    3    3    0    0  0.28431718080E+03 -0.11841974451E+02 -0.18928238847E+03  0.34176646155E+03  0.00000000000E+00 0. -1.
        -11    1    3    3    0    0  0.34538552705E+03 -0.11017344171E+03 -0.28007202829E+03  0.45811536820E+03  0.00000000000E+00 0.  1.
         22    1    1    2    0    0 -0.62970270785E+03  0.12201541616E+03 -0.14337893020E+03  0.65724483998E+03  0.00000000000E+00 0.  1.
<mgrwt>
<rscale>  0 0.13220348E+04</rscale>
<asrwt>0</asrwt>
<pdfrwt beam="1">  1        1 0.15922000E+00 0.13220348E+04</pdfrwt>
<pdfrwt beam="2">  1       -1 0.64953333E-01 0.13220348E+04</pdfrwt>
<totfact> 0.33508972E+01</totfact>
</mgrwt>
</event>
<event>
 6    1  0.1028026E-006  0.4299609E+04  0.7818608E-02  0.7946690E-01
         -1   -1    0    0    0  501 -0.00000000000E+00  0.00000000000E+00  0.29234670109E+04  0.29234670109E+04  0.00000000000E+00 0.  1.
          1   -1    0    0  501    0  0.00000000000E+00 -0.00000000000E+00 -0.15808829869E+04  0.15808829869E+04  0.00000000000E+00 0. -1.
         23    2    1    2    0    0  0.17292090433E+04 -0.96790327829E+03 -0.19984947034E+03  0.19931547135E+04  0.75665247849E+02 0.  0.
         13    1    3    3    0    0  0.36904542096E+03 -0.24224607991E+03 -0.39890981510E+02  0.44324821079E+03  0.00000000000E+00 0. -1.
        -13    1    3    3    0    0  0.13601636223E+04 -0.72565719838E+03 -0.15995848883E+03  0.15499065027E+04  0.00000000000E+00 0.  1.
         22    1    1    2    0    0 -0.17292090433E+04  0.96790327829E+03  0.15424334943E+04  0.25111952843E+04  0.00000000000E+00 0.  1.
<mgrwt>
<rscale>  0 0.42996089E+04</rscale>
<asrwt>0</asrwt>
<pdfrwt beam="1">  1        1 0.24321277E+00 0.42996089E+04</pdfrwt>
<pdfrwt beam="2">  1       -1 0.44976415E+00 0.42996089E+04</pdfrwt>
<totfact> 0.14275383E-02</totfact>
</mgrwt>
</event>
<event>
 6    1  0.1028026E-006  0.1450062E+04  0.7818608E-02  0.8918358E-01
          1   -1    0    0  501    0  0.00000000000E+00  0.00000000000E+00  0.19403210344E+04  0.19403210344E+04  0.00000000000E+00 0. -1.
         -1   -1    0    0    0  501 -0.00000000000E+00 -0.00000000000E+00 -0.27091905450E+03  0.27091905450E+03  0.00000000000E+00 0.  1.
         23    2    1    2    0    0  0.51554274711E+03 -0.53803919896E+02  0.71336921763E+02  0.53121297129E+03  0.91755536977E+02 0.  0.
         11    1    3    3    0    0  0.29418975907E+03 -0.27900380893E+02 -0.52518966860E+01  0.29555647178E+03  0.00000000000E+00 0. -1.
        -11    1    3    3    0    0  0.22135298804E+03 -0.25903539003E+02  0.76588818449E+02  0.23565649950E+03  0.00000000000E+00 0.  1.
         22    1    1    2    0    0 -0.51554274711E+03  0.53803919896E+02  0.15980650581E+04  0.16800271176E+04  0.00000000000E+00 0. -1.
<mgrwt>
<rscale>  0 0.14500620E+04</rscale>
<asrwt>0</asrwt>
<pdfrwt beam="1">  1        1 0.29851092E+00 0.14500620E+04</pdfrwt>
<pdfrwt beam="2">  1       -1 0.41679856E-01 0.14500620E+04</pdfrwt>
<totfact> 0.17952165E+01</totfact>
</mgrwt>
</event>
<event>
 6    1  0.1028026E-006  0.1635156E+04  0.7818608E-02  0.8799236E-01
          4   -1    0    0  501    0  0.00000000000E+00  0.00000000000E+00  0.11808404496E+04  0.11808404496E+04  0.00000000000E+00 0. -1.
         -4   -1    0    0    0  501 -0.00000000000E+00 -0.00000000000E+00 -0.56606647006E+03  0.56606647006E+03  0.00000000000E+00 0.  1.
         23    2    1    2    0    0  0.21974647158E+03 -0.33277850920E+03  0.10677093840E+04  0.11434332015E+04  0.91684838717E+02 0.  0.
         11    1    3    3    0    0  0.11736224146E+03 -0.12773198320E+03  0.56317439208E+03  0.58928325205E+03  0.00000000000E+00 0.  1.
        -11    1    3    3    0    0  0.10238423013E+03 -0.20504652600E+03  0.50453499192E+03  0.55414994945E+03  0.00000000000E+00 0. -1.
         22    1    1    2    0    0 -0.21974647158E+03  0.33277850920E+03 -0.45293540444E+03  0.60347371819E+03  0.00000000000E+00 0.  1.
<mgrwt>
<rscale>  0 0.16351565E+04</rscale>
<asrwt>0</asrwt>
<pdfrwt beam="1">  1        4 0.18166776E+00 0.16351565E+04</pdfrwt>
<pdfrwt beam="2">  1       -4 0.87087149E-01 0.16351565E+04</pdfrwt>
<totfact> 0.38246696E-01</totfact>
</mgrwt>
</event>
<event>
 6    1  0.1028026E-006  0.3170407E+04  0.7818608E-02  0.8196677E-01
         -1   -1    0    0    0  501 -0.00000000000E+00  0.00000000000E+00  0.58991426894E+03  0.58991426894E+03  0.00000000000E+00 0.  1.
          1   -1    0    0  501    0  0.00000000000E+00 -0.00000000000E+00 -0.42597215521E+04  0.42597215521E+04  0.00000000000E+00 0. -1.
         23    2    1    2    0    0 -0.10929362151E+04  0.39006435433E+03 -0.18751189640E+03  0.11790717048E+04  0.91594775388E+02 0.  0.
         11    1    3    3    0    0 -0.83890257508E+00  0.20266166132E+01  0.38135243365E+01  0.43993067968E+01  0.00000000000E+00 0. -1.
        -11    1    3    3    0    0 -0.10920973126E+04  0.38803773772E+03 -0.19132542074E+03  0.11746723980E+04  0.00000000000E+00 0.  1.
         22    1    1    2    0    0  0.10929362151E+04 -0.39006435433E+03 -0.34822953868E+04  0.36705641163E+04  0.00000000000E+00 0. -1.
<mgrwt>
<rscale>  0 0.31704072E+04</rscale>
<asrwt>0</asrwt>
<pdfrwt beam="1">  1        1 0.65534175E+00 0.31704072E+04</pdfrwt>
<pdfrwt beam="2">  1       -1 0.90756045E-01 0.31704072E+04</pdfrwt>
<totfact> 0.55191367E-02</totfact>
</mgrwt>
</event>
<event>
 6    1  0.1028026E-006  0.2375664E+04  0.7818608E-02  0.8448671E-01
         -1   -1    0    0    0  501 -0.00000000000E+00  0.00000000000E+00  0.80310258435E+03  0.80310258435E+03  0.00000000000E+00 0.  1.
          1   -1    0    0  501    0  0.00000000000E+00 -0.00000000000E+00 -0.17568677716E+04  0.17568677716E+04  0.00000000000E+00 0. -1.
         23    2    1    2    0    0  0.97803907562E+03  0.66166509770E+03 -0.36292033081E+03  0.12395693641E+04  0.10227368632E+03 0.  0.
         13    1    3    3    0    0  0.40266149182E+03  0.31239199463E+03 -0.11641241774E+03  0.52275891796E+03  0.00000000000E+00 0. -1.
        -13    1    3    3    0    0  0.57537758380E+03  0.34927310307E+03 -0.24650791307E+03  0.71681044613E+03  0.00000000000E+00 0.  1.
         22    1    1    2    0    0 -0.97803907562E+03 -0.66166509770E+03 -0.59084485647E+03  0.13204009919E+04  0.00000000000E+00 0.  1.
<mgrwt>
<rscale>  0 0.23756642E+04</rscale>
<asrwt>0</asrwt>
<pdfrwt beam="1">  1        1 0.27028735E+00 0.23756642E+04</pdfrwt>
<pdfrwt beam="2">  1       -1 0.12355424E+00 0.23756642E+04</pdfrwt>
<totfact> 0.22546822E+00</totfact>
</mgrwt>
</event>
<event>
 6    1  0.1028026E-006  0.1679777E+04  0.7818608E-02  0.8772983E-01
         -1   -1    0    0    0  501 -0.00000000000E+00  0.00000000000E+00  0.86602542542E+03  0.86602542542E+03  0.00000000000E+00 0.  1.
          1   -1    0    0  501    0  0.00000000000E+00 -0.00000000000E+00 -0.81454080009E+03  0.81454080009E+03  0.00000000000E+00 0. -1.
         23    2    1    2    0    0  0.22637953787E+03  0.15240606939E+03  0.81850729248E+03  0.86644149484E+03  0.79318163027E+02 0.  0.
         11    1    3    3    0    0  0.13682164227E+03  0.59146191945E+02  0.34997674234E+03  0.38039736329E+03  0.00000000000E+00 0.  1.
        -11    1    3    3    0    0  0.89557895598E+02  0.93259877450E+02  0.46853055014E+03  0.48604413156E+03  0.00000000000E+00 0. -1.
         22    1    1    2    0    0 -0.22637953787E+03 -0.15240606939E+03 -0.76702266715E+03  0.81412473066E+03  0.00000000000E+00 0. -1.
<mgrwt>
<rscale>  0 0.16797774E+04</rscale>
<asrwt>0</asrwt>
<pdfrwt beam="1">  1        1 0.12531397E+00 0.16797774E+04</pdfrwt>
<pdfrwt beam="2">  1       -1 0.13323468E+00 0.16797774E+04</pdfrwt>
<totfact> 0.97547288E+00</totfact>
</mgrwt>
</event>
<event>
 6    1  0.1028026E-006  0.1143770E+04  0.7818608E-02  0.9163551E-01
          4   -1    0    0  501    0  0.00000000000E+00  0.00000000000E+00  0.48839603639E+03  0.48839603639E+03  0.00000000000E+00 0. -1.
         -4   -1    0    0    0  501 -0.00000000000E+00 -0.00000000000E+00 -0.66964570765E+03  0.66964570765E+03  0.00000000000E+00 0.  1.
         23    2    1    2    0    0  0.28644472514E+03 -0.41752272453E+03 -0.35239593396E+03  0.62356363477E+03  0.90955518127E+02 0.  0.
         13    1    3    3    0    0  0.97211762116E+02 -0.11281887115E+03 -0.15155661163E+03  0.21247971882E+03  0.00000000000E+00 0. -1.
        -13    1    3    3    0    0  0.18923296302E+03 -0.30470385338E+03 -0.20083932233E+03  0.41108391595E+03  0.00000000000E+00 0.  1.
         22    1    1    2    0    0 -0.28644472514E+03  0.41752272453E+03  0.17114626271E+03  0.53447810928E+03  0.00000000000E+00 0. -1.
<mgrwt>
<rscale>  0 0.11437697E+04</rscale>
<asrwt>0</asrwt>
<pdfrwt beam="1">  1        4 0.75137852E-01 0.11437697E+04</pdfrwt>
<pdfrwt beam="2">  1       -4 0.10302242E+00 0.11437697E+04</pdfrwt>
<totfact> 0.24248184E+00</totfact>
</mgrwt>
</event>
<event>
 6    1  0.1028026E-006  0.1659259E+04  0.7818608E-02  0.8784948E-01
          1   -1    0    0  501    0  0.00000000000E+00  0.00000000000E+00  0.11273042266E+04  0.11273042266E+04  0.00000000000E+00 0. -1.
         -1   -1    0    0    0  501 -0.00000000000E+00 -0.00000000000E+00 -0.61055825468E+03  0.61055825468E+03  0.00000000000E+00 0.  1.
         23    2    1    2    0    0 -0.54671155647E+03 -0.10521284193E+03 -0.38135880679E+03  0.68119060146E+03  0.92859183258E+02 0.  0.
         11    1    3    3    0    0 -0.22202890651E+03 -0.34094929287E+01 -0.17966754644E+03  0.28563768521E+03  0.00000000000E+00 0. -1.
        -11    1    3    3    0    0 -0.32468264995E+03 -0.10180334900E+03 -0.20169126035E+03  0.39555291625E+03  0.00000000000E+00 0.  1.
         22    1    1    2    0    0  0.54671155647E+03  0.10521284193E+03  0.89810477873E+03  0.10566718798E+04  0.00000000000E+00 0. -1.
<mgrwt>
<rscale>  0 0.16592588E+04</rscale>
<asrwt>0</asrwt>
<pdfrwt beam="1">  1        1 0.17343142E+00 0.16592588E+04</pdfrwt>
<pdfrwt beam="2">  1       -1 0.93932039E-01 0.16592588E+04</pdfrwt>
<totfact> 0.12685069E+01</totfact>
</mgrwt>
</event>
<event>
 6    1  0.1028026E-006  0.3932847E+03  0.7818608E-02  0.1046130E+00
          3   -1    0    0  501    0  0.00000000000E+00  0.00000000000E+00  0.17948200321E+03  0.17948200321E+03  0.00000000000E+00 0. -1.
         -3   -1    0    0    0  501 -0.00000000000E+00 -0.00000000000E+00 -0.21544342784E+03  0.21544342784E+03  0.00000000000E+00 0.  1.
         23    2    1    2    0    0  0.12017397420E+03  0.12528444413E+03  0.43642072117E+02  0.20394194299E+03  0.97722615799E+02 0.  0.
         13    1    3    3    0    0  0.58636997726E+01  0.71467428503E+02  0.26460421557E+02  0.76433829034E+02  0.00000000000E+00 0.  1.
        -13    1    3    3    0    0  0.11431027442E+03  0.53817015627E+02  0.17181650560E+02  0.12750811396E+03  0.00000000000E+00 0. -1.
         22    1    1    2    0    0 -0.12017397420E+03 -0.12528444413E+03 -0.79603496755E+02  0.19098348806E+03  0.00000000000E+00 0.  1.
<mgrwt>
<rscale>  0 0.39328472E+03</rscale>
<asrwt>0</asrwt>
<pdfrwt beam="1">  1        3 0.27612616E-01 0.39328472E+03</pdfrwt>
<pdfrwt beam="2">  1       -3 0.33145143E-01 0.39328472E+03</pdfrwt>
<totfact> 0.29041182E+02</totfact>
</mgrwt>
</event>
<event>
 6    1  0.1028026E-006  0.1259159E+04  0.7818608E-02  0.9062595E-01
         -2   -1    0    0    0  501 -0.00000000000E+00  0.00000000000E+00  0.56764434496E+03  0.56764434496E+03  0.00000000000E+00 0.  1.
          2   -1    0    0  501    0  0.00000000000E+00 -0.00000000000E+00 -0.69827207156E+03  0.69827207156E+03  0.00000000000E+00 0. -1.
         23    2    1    2    0    0  0.60679417812E+03  0.11500958145E+03  0.41631144907E+02  0.62474600451E+03  0.84546079118E+02 0.  0.
         13    1    3    3    0    0  0.38307814798E+03  0.35310987063E+02  0.44285961444E+02  0.38724279160E+03  0.00000000000E+00 0. -1.
        -13    1    3    3    0    0  0.22371603014E+03  0.79698594383E+02 -0.26548165365E+01  0.23750321290E+03  0.00000000000E+00 0.  1.
         22    1    1    2    0    0 -0.60679417812E+03 -0.11500958145E+03 -0.17225887151E+03  0.64117041201E+03  0.00000000000E+00 0. -1.
<mgrwt>
<rscale>  0 0.12591588E+04</rscale>
<asrwt>0</asrwt>
<pdfrwt beam="1">  1        2 0.10742647E+00 0.12591588E+04</pdfrwt>
<pdfrwt beam="2">  1       -2 0.87329900E-01 0.12591588E+04</pdfrwt>
<totfact> 0.45777828E+01</totfact>
</mgrwt>
</event>
<event>
 6    1  0.1028026E-006  0.4127522E+04  0.7818608E-02  0.7979304E-01
         -2   -1    0    0    0  501 -0.00000000000E+00  0.00000000000E+00  0.29680521997E+04  0.29680521997E+04  0.00000000000E+00 0.  1.
          2   -1    0    0  501    0  0.00000000000E+00 -0.00000000000E+00 -0.14349847609E+04  0.14349847609E+04  0.00000000000E+00 0. -1.
         23    2    1    2    0    0 -0.78748472686E+03  0.16076922473E+03 -0.12596850547E+04  0.14969321056E+04  0.89556424878E+02 0.  0.
         11    1    3    3    0    0 -0.61608756351E+03  0.14365231961E+03 -0.92679852613E+03  0.11221209306E+04  0.00000000000E+00 0.  1.
        -11    1    3    3    0    0 -0.17139716335E+03  0.17116905116E+02 -0.33288652854E+03  0.37481117503E+03  0.00000000000E+00 0. -1.
         22    1    1    2    0    0  0.78748472686E+03 -0.16076922473E+03  0.27927524934E+04  0.29061048550E+04  0.00000000000E+00 0.  1.
<mgrwt>
<rscale>  0 0.41275221E+04</rscale>
<asrwt>0</asrwt>
<pdfrwt beam="1">  1        2 0.22076689E+00 0.41275221E+04</pdfrwt>
<pdfrwt beam="2">  1       -2 0.45662342E+00 0.41275221E+04</pdfrwt>
<totfact> 0.33879889E-02</totfact>
</mgrwt>
</event>
<event>
 6    1  0.1112129E-006  0.2552888E+04  0.7818608E-02  0.8384383E-01
         -2   -1    0    0    0  501 -0.00000000000E+00  0.00000000000E+00  0.13545231883E+04  0.13545231883E+04  0.00000000000E+00 0.  1.
          2   -1    0    0  501    0  0.00000000000E+00 -0.00000000000E+00 -0.12028653202E+04  0.12028653202E+04  0.00000000000E+00 0. -1.
         23    2    1    2    0    0 -0.97797968649E+03  0.44278209112E+03 -0.61426390442E+03  0.12386252966E+04  0.66122868805E+02 0.  0.
         13    1    3    3    0    0 -0.24407218141E+03  0.97074936634E+02 -0.12116557473E+03  0.28926781633E+03  0.00000000000E+00 0. -1.
        -13    1    3    3    0    0 -0.73390750508E+03  0.34570715449E+03 -0.49309832969E+03  0.94935748031E+03  0.00000000000E+00 0.  1.
         22    1    1    2    0    0  0.97797968649E+03 -0.44278209112E+03  0.76592177257E+03  0.13187632119E+04  0.00000000000E+00 0.  1.
<mgrwt>
<rscale>  0 0.25528878E+04</rscale>
<asrwt>0</asrwt>
<pdfrwt beam="1">  1        2 0.18505620E+00 0.25528878E+04</pdfrwt>
<pdfrwt beam="2">  1       -2 0.20838818E+00 0.25528878E+04</pdfrwt>
<totfact> 0.19647876E+00</totfact>
</mgrwt>
</event>
<event>
 6    1  0.1028026E-006  0.2928986E+04  0.7818608E-02  0.8264305E-01
          2   -1    0    0  501    0  0.00000000000E+00  0.00000000000E+00  0.34157417323E+04  0.34157417323E+04  0.00000000000E+00 0. -1.
         -2   -1    0    0    0  501 -0.00000000000E+00 -0.00000000000E+00 -0.62789863018E+03  0.62789863018E+03  0.00000000000E+00 0.  1.
         23    2    1    2    0    0 -0.13125925697E+04  0.59161210120E+03  0.17546089732E+04  0.22715012886E+04  0.90340040567E+02 0.  0.
         11    1    3    3    0    0 -0.23439395407E+03  0.84932352628E+02  0.26031856641E+03  0.36044387392E+03  0.00000000000E+00 0. -1.
        -11    1    3    3    0    0 -0.10781986156E+04  0.50667974857E+03  0.14942904068E+04  0.19110574146E+04  0.00000000000E+00 0.  1.
         22    1    1    2    0    0  0.13125925697E+04 -0.59161210120E+03  0.10332341289E+04  0.17721390739E+04  0.00000000000E+00 0.  1.
<mgrwt>
<rscale>  0 0.29289859E+04</rscale>
<asrwt>0</asrwt>
<pdfrwt beam="1">  1        2 0.52549872E+00 0.29289859E+04</pdfrwt>
<pdfrwt beam="2">  1       -2 0.96599791E-01 0.29289859E+04</pdfrwt>
<totfact> 0.71723663E-01</totfact>
</mgrwt>
</event>
<event>
 6    1  0.1028026E-006  0.1790131E+04  0.7818608E-02  0.8711565E-01
          2   -1    0    0  501    0  0.00000000000E+00  0.00000000000E+00  0.74945773184E+03  0.74945773184E+03  0.00000000000E+00 0. -1.
         -2   -1    0    0    0  501 -0.00000000000E+00 -0.00000000000E+00 -0.10689629404E+04  0.10689629404E+04  0.00000000000E+00 0.  1.
         23    2    1    2    0    0  0.32640367216E+03  0.58632226158E+03 -0.75848531042E+03  0.10165374629E+04  0.87950530081E+02 0.  0.
         13    1    3    3    0    0  0.94673065638E+02  0.25886034766E+03 -0.30772020803E+03  0.41311426431E+03  0.00000000000E+00 0. -1.
        -13    1    3    3    0    0  0.23173060652E+03  0.32746191392E+03 -0.45076510239E+03  0.60342319860E+03  0.00000000000E+00 0.  1.
         22    1    1    2    0    0 -0.32640367216E+03 -0.58632226158E+03  0.43898010184E+03  0.80188320935E+03  0.00000000000E+00 0. -1.
<mgrwt>
<rscale>  0 0.17901313E+04</rscale>
<asrwt>0</asrwt>
<pdfrwt beam="1">  1        2 0.11530119E+00 0.17901313E+04</pdfrwt>
<pdfrwt beam="2">  1       -2 0.16445584E+00 0.17901313E+04</pdfrwt>
<totfact> 0.82807901E+00</totfact>
</mgrwt>
</event>
<event>
 6    1  0.1028026E-006  0.3750429E+04  0.7818608E-02  0.8056877E-01
          2   -1    0    0  501    0  0.00000000000E+00  0.00000000000E+00  0.29951047212E+04  0.29951047212E+04  0.00000000000E+00 0. -1.
         -2   -1    0    0    0  501 -0.00000000000E+00 -0.00000000000E+00 -0.11740588686E+04  0.11740588686E+04  0.00000000000E+00 0.  1.
         23    2    1    2    0    0  0.13296091219E+03  0.79419926814E+03 -0.97010268834E+03  0.12641780031E+04  0.92820881019E+02 0.  0.
         11    1    3    3    0    0  0.18041935738E+02  0.12530077870E+03 -0.20963076558E+03  0.24488947397E+03  0.00000000000E+00 0. -1.
        -11    1    3    3    0    0  0.11491897645E+03  0.66889848945E+03 -0.76047192277E+03  0.10192885291E+04  0.00000000000E+00 0.  1.
         22    1    1    2    0    0 -0.13296091219E+03 -0.79419926814E+03  0.27911485409E+04  0.29049855867E+04  0.00000000000E+00 0. -1.
<mgrwt>
<rscale>  0 0.37504289E+04</rscale>
<asrwt>0</asrwt>
<pdfrwt beam="1">  1        2 0.46078534E+00 0.37504289E+04</pdfrwt>
<pdfrwt beam="2">  1       -2 0.18062444E+00 0.37504289E+04</pdfrwt>
<totfact> 0.25328458E-01</totfact>
</mgrwt>
</event>
<event>
 6    1  0.1028026E-006  0.1897739E+04  0.7818608E-02  0.8655983E-01
         -1   -1    0    0    0  501 -0.00000000000E+00  0.00000000000E+00  0.10512897344E+04  0.10512897344E+04  0.00000000000E+00 0.  1.
          1   -1    0    0  501    0  0.00000000000E+00 -0.00000000000E+00 -0.85642711858E+03  0.85642711858E+03  0.00000000000E+00 0. -1.
         23    2    1    2    0    0  0.72001782815E+03 -0.35179351430E+03  0.60488578463E+03  0.10075483418E+04  0.84157584037E+02 0.  0.
         13    1    3    3    0    0  0.46563008958E+03 -0.27125872619E+03  0.41026983606E+03  0.67728429425E+03  0.00000000000E+00 0. -1.
        -13    1    3    3    0    0  0.25438773858E+03 -0.80534788109E+02  0.19461594857E+03  0.33026404750E+03  0.00000000000E+00 0.  1.
         22    1    1    2    0    0 -0.72001782815E+03  0.35179351430E+03 -0.41002316884E+03  0.90016851120E+03  0.00000000000E+00 0. -1.
<mgrwt>
<rscale>  0 0.18977387E+04</rscale>
<asrwt>0</asrwt>
<pdfrwt beam="1">  1        1 0.13175802E+00 0.18977387E+04</pdfrwt>
<pdfrwt beam="2">  1       -1 0.16173688E+00 0.18977387E+04</pdfrwt>
<totfact> 0.52481794E+00</totfact>
</mgrwt>
</event>
<event>
 6    1  0.1028026E-006  0.4271349E+04  0.7818608E-02  0.7951937E-01
         -2   -1    0    0    0  501 -0.00000000000E+00  0.00000000000E+00  0.18173179832E+04  0.18173179832E+04  0.00000000000E+00 0.  1.
          2   -1    0    0  501    0  0.00000000000E+00 -0.00000000000E+00 -0.25098003721E+04  0.25098003721E+04  0.00000000000E+00 0. -1.
         23    2    1    2    0    0  0.16521420284E+04  0.21468500997E+03 -0.16984665025E+04  0.23809254120E+04  0.91402526082E+02 0.  0.
         13    1    3    3    0    0  0.13111864958E+04  0.13327575849E+03 -0.13337051320E+04  0.18750311554E+04  0.00000000000E+00 0.  1.
        -13    1    3    3    0    0  0.34095553261E+03  0.81409251478E+02 -0.36476137047E+03  0.50589425657E+03  0.00000000000E+00 0. -1.
         22    1    1    2    0    0 -0.16521420284E+04 -0.21468500997E+03  0.10059841136E+04  0.19461929433E+04  0.00000000000E+00 0.  1.
<mgrwt>
<rscale>  0 0.42713489E+04</rscale>
<asrwt>0</asrwt>
<pdfrwt beam="1">  1        2 0.38612313E+00 0.42713489E+04</pdfrwt>
<pdfrwt beam="2">  1       -2 0.27958738E+00 0.42713489E+04</pdfrwt>
<totfact> 0.11232412E-01</totfact>
</mgrwt>
</event>
<event>
 6    1  0.1028026E-006  0.2149990E+04  0.7818608E-02  0.8539536E-01
          4   -1    0    0  501    0  0.00000000000E+00  0.00000000000E+00  0.67846951156E+03  0.67846951156E+03  0.00000000000E+00 0. -1.
         -4   -1    0    0    0  501 -0.00000000000E+00 -0.00000000000E+00 -0.17032668047E+04  0.17032668047E+04  0.00000000000E+00 0.  1.
         23    2    1    2    0    0  0.26462075523E+03  0.36736013788E+03  0.56433836552E+03  0.72936536619E+03  0.92295349790E+02 0.  0.
         11    1    3    3    0    0  0.18592908857E+03  0.22206854750E+03  0.41869349032E+03  0.50910539636E+03  0.00000000000E+00 0.  1.
        -11    1    3    3    0    0  0.78691666662E+02  0.14529159038E+03  0.14564487521E+03  0.22025996983E+03  0.00000000000E+00 0. -1.
         22    1    1    2    0    0 -0.26462075523E+03 -0.36736013788E+03 -0.15891356586E+04  0.16523709500E+04  0.00000000000E+00 0.  1.
<mgrwt>
<rscale>  0 0.21499903E+04</rscale>
<asrwt>0</asrwt>
<pdfrwt beam="1">  1        4 0.10437993E+00 0.21499903E+04</pdfrwt>
<pdfrwt beam="2">  1       -4 0.26204104E+00 0.21499903E+04</pdfrwt>
<totfact> 0.72670642E-02</totfact>
</mgrwt>
</event>
<event>
 6    1  0.1028026E-006  0.3640505E+04  0.7818608E-02  0.8081276E-01
         -2   -1    0    0    0  501 -0.00000000000E+00  0.00000000000E+00  0.14050607889E+04  0.14050607889E+04  0.00000000000E+00 0.  1.
          2   -1    0    0  501    0  0.00000000000E+00 -0.00000000000E+00 -0.23581320241E+04  0.23581320241E+04  0.00000000000E+00 0. -1.
         23    2    1    2    0    0 -0.23064592822E+03 -0.14536996166E+03 -0.23359856547E+04  0.23536601736E+04  0.92505479646E+02 0.  0.
         11    1    3    3    0    0 -0.16883210118E+03 -0.14036326132E+03 -0.19984407816E+04  0.20104655384E+04  0.00000000000E+00 0. -1.
        -11    1    3    3    0    0 -0.61813827039E+02 -0.50067003422E+01 -0.33754487314E+03  0.34319463522E+03  0.00000000000E+00 0.  1.
         22    1    1    2    0    0  0.23064592822E+03  0.14536996166E+03  0.13829144195E+04  0.14095326394E+04  0.00000000000E+00 0.  1.
<mgrwt>
<rscale>  0 0.36405048E+04</rscale>
<asrwt>0</asrwt>
<pdfrwt beam="1">  1        2 0.36278954E+00 0.36405048E+04</pdfrwt>
<pdfrwt beam="2">  1       -2 0.21616320E+00 0.36405048E+04</pdfrwt>
<totfact> 0.35677845E-01</totfact>
</mgrwt>
</event>
<event>
 6    1  0.1028026E-006  0.8493580E+03  0.7818608E-02  0.9491199E-01
         -1   -1    0    0    0  501 -0.00000000000E+00  0.00000000000E+00  0.12660238977E+04  0.12660238977E+04  0.00000000000E+00 0.  1.
          1   -1    0    0  501    0  0.00000000000E+00 -0.00000000000E+00 -0.14245564331E+03  0.14245564331E+03  0.00000000000E+00 0. -1.
         23    2    1    2    0    0 -0.19303249339E+03  0.28863319194E+03  0.96092112097E+03  0.10250414717E+04  0.82279735746E+02 0.  0.
         11    1    3    3    0    0 -0.71962383042E+02  0.50689002677E+02  0.19566265804E+03  0.21455030952E+03  0.00000000000E+00 0.  1.
        -11    1    3    3    0    0 -0.12107011035E+03  0.23794418926E+03  0.76525846293E+03  0.81049116215E+03  0.00000000000E+00 0. -1.
         22    1    1    2    0    0  0.19303249339E+03 -0.28863319194E+03  0.16264713337E+03  0.38343806930E+03  0.00000000000E+00 0. -1.
<mgrwt>
<rscale>  0 0.84935799E+03</rscale>
<asrwt>0</asrwt>
<pdfrwt beam="1">  1        1 0.21916254E-01 0.84935799E+03</pdfrwt>
<pdfrwt beam="2">  1       -1 0.19477290E+00 0.84935799E+03</pdfrwt>
<totfact> 0.38587738E+01</totfact>
</mgrwt>
</event>
<event>
 6    1  0.1028026E-006  0.3057106E+04  0.7818608E-02  0.8227609E-01
          1   -1    0    0  501    0  0.00000000000E+00  0.00000000000E+00  0.19881803271E+04  0.19881803271E+04  0.00000000000E+00 0. -1.
         -1   -1    0    0    0  501 -0.00000000000E+00 -0.00000000000E+00 -0.11751823331E+04  0.11751823331E+04  0.00000000000E+00 0.  1.
         23    2    1    2    0    0  0.73111740549E+03 -0.10644899062E+04 -0.43674701464E+03  0.13662722320E+04  0.90996900984E+02 0.  0.
         13    1    3    3    0    0  0.49530446337E+03 -0.74489880710E+03 -0.26008545852E+03  0.93158208977E+03  0.00000000000E+00 0. -1.
        -13    1    3    3    0    0  0.23581294211E+03 -0.31959109911E+03 -0.17666155612E+03  0.43469014218E+03  0.00000000000E+00 0.  1.
         22    1    1    2    0    0 -0.73111740549E+03  0.10644899062E+04  0.12497450086E+04  0.17970904283E+04  0.00000000000E+00 0. -1.
<mgrwt>
<rscale>  0 0.30571061E+04</rscale>
<asrwt>0</asrwt>
<pdfrwt beam="1">  1        1 0.30587390E+00 0.30571061E+04</pdfrwt>
<pdfrwt beam="2">  1       -1 0.18079728E+00 0.30571061E+04</pdfrwt>
<totfact> 0.52801838E-01</totfact>
</mgrwt>
</event>
<event>
 6    1  0.1028026E-006  0.1714256E+04  0.7818608E-02  0.8753275E-01
         -1   -1    0    0    0  501 -0.00000000000E+00  0.00000000000E+00  0.35332574349E+03  0.35332574349E+03  0.00000000000E+00 0.  1.
          1   -1    0    0  501    0  0.00000000000E+00 -0.00000000000E+00 -0.20792953020E+04  0.20792953020E+04  0.00000000000E+00 0. -1.
         23    2    1    2    0    0 -0.53449816494E+03  0.43286543592E+03 -0.15858683878E+04  0.17307028793E+04  0.85399876984E+02 0.  0.
         13    1    3    3    0    0 -0.14326321268E+03  0.16323559353E+03 -0.53525972754E+03  0.57764451268E+03  0.00000000000E+00 0.  1.
        -13    1    3    3    0    0 -0.39123495226E+03  0.26962984239E+03 -0.10506086603E+04  0.11530583666E+04  0.00000000000E+00 0. -1.
         22    1    1    2    0    0  0.53449816494E+03 -0.43286543592E+03 -0.14010117063E+03  0.70191816614E+03  0.00000000000E+00 0.  1.
<mgrwt>
<rscale>  0 0.17142562E+04</rscale>
<asrwt>0</asrwt>
<pdfrwt beam="1">  1        1 0.31989158E+00 0.17142562E+04</pdfrwt>
<pdfrwt beam="2">  1       -1 0.54357808E-01 0.17142562E+04</pdfrwt>
<totfact> 0.85554834E+00</totfact>
</mgrwt>
</event>
<event>
 6    1  0.1028026E-006  0.2530352E+04  0.7818608E-02  0.8392252E-01
         -2   -1    0    0    0  501 -0.00000000000E+00  0.00000000000E+00  0.14865875170E+04  0.14865875170E+04  0.00000000000E+00 0.  1.
          2   -1    0    0  501    0  0.00000000000E+00 -0.00000000000E+00 -0.10767411866E+04  0.10767411866E+04  0.00000000000E+00 0. -1.
         23    2    1    2    0    0 -0.11033988662E+04  0.60352491102E+03  0.32837843338E+03  0.13030238220E+04  0.91144441705E+02 0.  0.
         11    1    3    3    0    0 -0.27494371220E+03  0.19228926883E+03  0.70512813410E+02  0.34284291540E+03  0.00000000000E+00 0.  1.
        -11    1    3    3    0    0 -0.82845515396E+03  0.41123564219E+03  0.25786561997E+03  0.96018090665E+03  0.00000000000E+00 0. -1.
         22    1    1    2    0    0  0.11033988662E+04 -0.60352491102E+03  0.81467896992E+02  0.12603048815E+04  0.00000000000E+00 0. -1.
<mgrwt>
<rscale>  0 0.25303518E+04</rscale>
<asrwt>0</asrwt>
<pdfrwt beam="1">  1        2 0.16565249E+00 0.25303518E+04</pdfrwt>
<pdfrwt beam="2">  1       -2 0.22870577E+00 0.25303518E+04</pdfrwt>
<totfact> 0.17452614E+00</totfact>
</mgrwt>
</event>
<event>
 6    1  0.1028026E-006  0.1836464E+04  0.7818608E-02  0.8687145E-01
          1   -1    0    0  501    0  0.00000000000E+00  0.00000000000E+00  0.17231698025E+04  0.17231698025E+04  0.00000000000E+00 0. -1.
         -1   -1    0    0    0  501 -0.00000000000E+00 -0.00000000000E+00 -0.48930186043E+03  0.48930186043E+03  0.00000000000E+00 0.  1.
         23    2    1    2    0    0  0.38036078729E+03  0.79789793534E+03  0.90786156006E+03  0.12703487385E+04  0.90872775663E+02 0.  0.
         13    1    3    3    0    0  0.20484820293E+03  0.33020262955E+03  0.41740172884E+03  0.57028130431E+03  0.00000000000E+00 0.  1.
        -13    1    3    3    0    0  0.17551258436E+03  0.46769530578E+03  0.49045983121E+03  0.70006743415E+03  0.00000000000E+00 0. -1.
         22    1    1    2    0    0 -0.38036078729E+03 -0.79789793534E+03  0.32600638204E+03  0.94212292449E+03  0.00000000000E+00 0.  1.
<mgrwt>
<rscale>  0 0.18364642E+04</rscale>
<asrwt>0</asrwt>
<pdfrwt beam="1">  1        1 0.26510304E+00 0.18364642E+04</pdfrwt>
<pdfrwt beam="2">  1       -1 0.75277210E-01 0.18364642E+04</pdfrwt>
<totfact> 0.76688909E+00</totfact>
</mgrwt>
</event>
<event>
 6    1  0.1028026E-006  0.1544432E+04  0.7818608E-02  0.8855432E-01
          2   -1    0    0  501    0  0.00000000000E+00  0.00000000000E+00  0.15434375632E+04  0.15434375632E+04  0.00000000000E+00 0. -1.
         -2   -1    0    0    0  501 -0.00000000000E+00 -0.00000000000E+00 -0.38635695869E+03  0.38635695869E+03  0.00000000000E+00 0.  1.
         23    2    1    2    0    0 -0.69255527548E+03  0.31292919241E+03  0.42823761014E+03  0.87681323072E+03  0.88636909781E+02 0.  0.
         13    1    3    3    0    0 -0.31673782090E+03  0.18832758956E+03  0.18782252300E+03  0.41360298394E+03  0.00000000000E+00 0. -1.
        -13    1    3    3    0    0 -0.37581745459E+03  0.12460160285E+03  0.24041508714E+03  0.46321024679E+03  0.00000000000E+00 0.  1.
         22    1    1    2    0    0  0.69255527548E+03 -0.31292919241E+03  0.72884299433E+03  0.10529812911E+04  0.00000000000E+00 0.  1.
<mgrwt>
<rscale>  0 0.15444324E+04</rscale>
<asrwt>0</asrwt>
<pdfrwt beam="1">  1        2 0.23745193E+00 0.15444324E+04</pdfrwt>
<pdfrwt beam="2">  1       -2 0.59439533E-01 0.15444324E+04</pdfrwt>
<totfact> 0.30518494E+01</totfact>
</mgrwt>
</event>
<event>
 6    1  0.1028026E-006  0.2131354E+04  0.7818608E-02  0.8547556E-01
         -2   -1    0    0    0  501 -0.00000000000E+00  0.00000000000E+00  0.33961683461E+03  0.33961683461E+03  0.00000000000E+00 0.  1.
          2   -1    0    0  501    0  0.00000000000E+00 -0.00000000000E+00 -0.33439671614E+04  0.33439671614E+04  0.00000000000E+00 0. -1.
         23    2    1    2    0    0 -0.18344334286E+03  0.45648725665E+03 -0.31349287205E+04  0.31745822352E+04  0.90344950905E+02 0.  0.
         11    1    3    3    0    0 -0.50200684689E+02  0.23718865095E+03 -0.16306068882E+04  0.16485318889E+04  0.00000000000E+00 0. -1.
        -11    1    3    3    0    0 -0.13324265817E+03  0.21929860571E+03 -0.15043218323E+04  0.15260503463E+04  0.00000000000E+00 0.  1.
         22    1    1    2    0    0  0.18344334286E+03 -0.45648725665E+03  0.13057839374E+03  0.50900176074E+03  0.00000000000E+00 0.  1.
<mgrwt>
<rscale>  0 0.21313541E+04</rscale>
<asrwt>0</asrwt>
<pdfrwt beam="1">  1        2 0.51445650E+00 0.21313541E+04</pdfrwt>
<pdfrwt beam="2">  1       -2 0.52248742E-01 0.21313541E+04</pdfrwt>
<totfact> 0.33183206E+00</totfact>
</mgrwt>
</event>
<event>
 6    1  0.1028026E-006  0.1892491E+04  0.7818608E-02  0.8658603E-01
          1   -1    0    0  501    0  0.00000000000E+00  0.00000000000E+00  0.58002075656E+03  0.58002075656E+03  0.00000000000E+00 0. -1.
         -1   -1    0    0    0  501 -0.00000000000E+00 -0.00000000000E+00 -0.15437041026E+04  0.15437041026E+04  0.00000000000E+00 0.  1.
         23    2    1    2    0    0  0.38058617529E+03  0.82518122788E+03 -0.19606023097E+03  0.93418076898E+03  0.92109713406E+02 0.  0.
         13    1    3    3    0    0  0.18622697769E+03  0.47838201394E+03 -0.14450736125E+03  0.53330311825E+03  0.00000000000E+00 0. -1.
        -13    1    3    3    0    0  0.19435919760E+03  0.34679921394E+03 -0.51552869723E+02  0.40087765074E+03  0.00000000000E+00 0.  1.
         22    1    1    2    0    0 -0.38058617529E+03 -0.82518122788E+03 -0.76762311505E+03  0.11895440902E+04  0.00000000000E+00 0.  1.
<mgrwt>
<rscale>  0 0.18924909E+04</rscale>
<asrwt>0</asrwt>
<pdfrwt beam="1">  1        1 0.89233963E-01 0.18924909E+04</pdfrwt>
<pdfrwt beam="2">  1       -1 0.23749294E+00 0.18924909E+04</pdfrwt>
<totfact> 0.28351260E+00</totfact>
</mgrwt>
</event>
<event>
 6    1  0.1028026E-006  0.2069269E+04  0.7818608E-02  0.8574903E-01
          2   -1    0    0  501    0  0.00000000000E+00  0.00000000000E+00  0.13871542540E+04  0.13871542540E+04  0.00000000000E+00 0. -1.
         -2   -1    0    0    0  501 -0.00000000000E+00 -0.00000000000E+00 -0.77170116519E+03  0.77170116519E+03  0.00000000000E+00 0.  1.
         23    2    1    2    0    0  0.42112902837E+03  0.93762762777E+03  0.41169756793E+03  0.11109949613E+04  0.91212332710E+02 0.  0.
         11    1    3    3    0    0  0.24106517714E+03  0.62001718829E+03  0.23637194412E+03  0.70597834908E+03  0.00000000000E+00 0. -1.
        -11    1    3    3    0    0  0.18006385123E+03  0.31761043948E+03  0.17532562381E+03  0.40501661219E+03  0.00000000000E+00 0.  1.
         22    1    1    2    0    0 -0.42112902837E+03 -0.93762762777E+03  0.20375552082E+03  0.10478604579E+04  0.00000000000E+00 0. -1.
<mgrwt>
<rscale>  0 0.20692690E+04</rscale>
<asrwt>0</asrwt>
<pdfrwt beam="1">  1        2 0.21340835E+00 0.20692690E+04</pdfrwt>
<pdfrwt beam="2">  1       -2 0.11872326E+00 0.20692690E+04</pdfrwt>
<totfact> 0.74161380E+00</totfact>
</mgrwt>
</event>
<event>
 6    1  0.1028026E-006  0.9484529E+03  0.7818608E-02  0.9366961E-01
          2   -1    0    0  501    0  0.00000000000E+00  0.00000000000E+00  0.32878946218E+03  0.32878946218E+03  0.00000000000E+00 0. -1.
         -2   -1    0    0    0  501 -0.00000000000E+00 -0.00000000000E+00 -0.68399615719E+03  0.68399615719E+03  0.00000000000E+00 0.  1.
         23    2    1    2    0    0  0.33795536747E+03  0.32492356129E+02  0.16768077289E+03  0.38934284918E+03  0.90561741339E+02 0.  0.
         13    1    3    3    0    0  0.15136231275E+03  0.43579641193E+02  0.11535634589E+03  0.19523529749E+03  0.00000000000E+00 0. -1.
        -13    1    3    3    0    0  0.18659305472E+03 -0.11087285064E+02  0.52324427003E+02  0.19410755169E+03  0.00000000000E+00 0.  1.
         22    1    1    2    0    0 -0.33795536747E+03 -0.32492356129E+02 -0.52288746791E+03  0.62344277019E+03  0.00000000000E+00 0.  1.
<mgrwt>
<rscale>  0 0.94845291E+03</rscale>
<asrwt>0</asrwt>
<pdfrwt beam="1">  1        2 0.50582994E-01 0.94845291E+03</pdfrwt>
<pdfrwt beam="2">  1       -2 0.10523018E+00 0.94845291E+03</pdfrwt>
<totfact> 0.72546252E+01</totfact>
</mgrwt>
</event>
<event>
 6    1  0.1028026E-006  0.8875095E+03  0.7818608E-02  0.9441331E-01
         -2   -1    0    0    0  501 -0.00000000000E+00  0.00000000000E+00  0.14512648169E+03  0.14512648169E+03  0.00000000000E+00 0.  1.
          2   -1    0    0  501    0  0.00000000000E+00 -0.00000000000E+00 -0.13568734682E+04  0.13568734682E+04  0.00000000000E+00 0. -1.
         23    2    1    2    0    0 -0.19699072640E+03 -0.16322716178E+03 -0.12166006637E+04  0.12461249593E+04  0.85216117302E+02 0.  0.
         11    1    3    3    0    0 -0.13870035601E+03 -0.93879476508E+02 -0.60124936400E+03  0.62414096371E+03  0.00000000000E+00 0.  1.
        -11    1    3    3    0    0 -0.58290370382E+02 -0.69347685274E+02 -0.61535129965E+03  0.62198399555E+03  0.00000000000E+00 0. -1.
         22    1    1    2    0    0  0.19699072640E+03  0.16322716178E+03  0.48536771852E+01  0.25587499059E+03  0.00000000000E+00 0.  1.
<mgrwt>
<rscale>  0 0.88750949E+03</rscale>
<asrwt>0</asrwt>
<pdfrwt beam="1">  1        2 0.20874977E+00 0.88750949E+03</pdfrwt>
<pdfrwt beam="2">  1       -2 0.22327150E-01 0.88750949E+03</pdfrwt>
<totfact> 0.27002118E+02</totfact>
</mgrwt>
</event>
<event>
 6    1  0.1028026E-006  0.2391125E+04  0.7818608E-02  0.8442834E-01
          1   -1    0    0  501    0  0.00000000000E+00  0.00000000000E+00  0.43422843814E+04  0.43422843814E+04  0.00000000000E+00 0. -1.
         -1   -1    0    0    0  501 -0.00000000000E+00 -0.00000000000E+00 -0.32917447845E+03  0.32917447845E+03  0.00000000000E+00 0.  1.
         23    2    1    2    0    0 -0.50666023575E+03  0.10427905481E+04  0.25656223486E+04  0.28169139179E+04  0.92028603052E+02 0.  0.
         13    1    3    3    0    0 -0.16297957694E+03  0.30171761614E+03  0.66615586586E+03  0.74923928088E+03  0.00000000000E+00 0.  1.
        -13    1    3    3    0    0 -0.34368065881E+03  0.74107293193E+03  0.18994664827E+04  0.20676746370E+04  0.00000000000E+00 0. -1.
         22    1    1    2    0    0  0.50666023575E+03 -0.10427905481E+04  0.14474875544E+04  0.18545449419E+04  0.00000000000E+00 0. -1.
<mgrwt>
<rscale>  0 0.23911246E+04</rscale>
<asrwt>0</asrwt>
<pdfrwt beam="1">  1        1 0.66804371E+00 0.23911246E+04</pdfrwt>
<pdfrwt beam="2">  1       -1 0.50642231E-01 0.23911246E+04</pdfrwt>
<totfact> 0.16359836E-01</totfact>
</mgrwt>
</event>
<event>
 6    1  0.1028026E-006  0.2159441E+04  0.7818608E-02  0.8535502E-01
          4   -1    0    0  501    0  0.00000000000E+00  0.00000000000E+00  0.72156828858E+03  0.72156828858E+03  0.00000000000E+00 0. -1.
         -4   -1    0    0    0  501 -0.00000000000E+00 -0.00000000000E+00 -0.16156418302E+04  0.16156418302E+04  0.00000000000E+00 0.  1.
         23    2    1    2    0    0  0.91527193980E+03 -0.21215164280E+02  0.16772678647E+03  0.93521413313E+03  0.91216187851E+02 0.  0.
         13    1    3    3    0    0  0.24170752524E+03  0.28686232816E+02  0.65935239126E+02  0.25217629442E+03  0.00000000000E+00 0.  1.
        -13    1    3    3    0    0  0.67356441456E+03 -0.49901397096E+02  0.10179154735E+03  0.68303783871E+03  0.00000000000E+00 0. -1.
         22    1    1    2    0    0 -0.91527193980E+03  0.21215164280E+02 -0.10618003281E+04  0.14019959856E+04  0.00000000000E+00 0.  1.
<mgrwt>
<rscale>  0 0.21594406E+04</rscale>
<asrwt>0</asrwt>
<pdfrwt beam="1">  1        4 0.11101051E+00 0.21594406E+04</pdfrwt>
<pdfrwt beam="2">  1       -4 0.24856028E+00 0.21594406E+04</pdfrwt>
<totfact> 0.75812195E-02</totfact>
</mgrwt>
</event>
<event>
 6    1  0.1028026E-006  0.1087705E+04  0.7818608E-02  0.9217259E-01
         -1   -1    0    0    0  501 -0.00000000000E+00  0.00000000000E+00  0.63120983763E+03  0.63120983763E+03  0.00000000000E+00 0.  1.
          1   -1    0    0  501    0  0.00000000000E+00 -0.00000000000E+00 -0.46858479873E+03  0.46858479873E+03  0.00000000000E+00 0. -1.
         23    2    1    2    0    0  0.73740002605E+02  0.18985175299E+03 -0.42387525923E+03  0.47893726482E+03  0.90715997222E+02 0.  0.
         11    1    3    3    0    0  0.82301324761E+02  0.97661923059E+02 -0.20853729669E+03  0.24453867462E+03  0.00000000000E+00 0. -1.
        -11    1    3    3    0    0 -0.85613221554E+01  0.92189829928E+02 -0.21533796254E+03  0.23439859020E+03  0.00000000000E+00 0.  1.
         22    1    1    2    0    0 -0.73740002605E+02 -0.18985175299E+03  0.58650029813E+03  0.62085737155E+03  0.00000000000E+00 0.  1.
<mgrwt>
<rscale>  0 0.10877046E+04</rscale>
<asrwt>0</asrwt>
<pdfrwt beam="1">  1        1 0.72089969E-01 0.10877046E+04</pdfrwt>
<pdfrwt beam="2">  1       -1 0.97109206E-01 0.10877046E+04</pdfrwt>
<totfact> 0.49272258E+01</totfact>
</mgrwt>
</event>
<event>
 6    1  0.1028026E-006  0.3058201E+04  0.7818608E-02  0.8227304E-01
         -2   -1    0    0    0  501 -0.00000000000E+00  0.00000000000E+00  0.17488698055E+04  0.17488698055E+04  0.00000000000E+00 0.  1.
          2   -1    0    0  501    0  0.00000000000E+00 -0.00000000000E+00 -0.13369485933E+04  0.13369485933E+04  0.00000000000E+00 0. -1.
         23    2    1    2    0    0 -0.15408603909E+03 -0.12773766680E+04 -0.62496530761E+03  0.14333755664E+04  0.92467394896E+02 0.  0.
         11    1    3    3    0    0 -0.91147704796E+02 -0.86692702352E+03 -0.37709088593E+03  0.94977255406E+03  0.00000000000E+00 0.  1.
        -11    1    3    3    0    0 -0.62938334294E+02 -0.41044964448E+03 -0.24787442167E+03  0.48360301229E+03  0.00000000000E+00 0. -1.
         22    1    1    2    0    0  0.15408603909E+03  0.12773766680E+04  0.10368865198E+04  0.16524428324E+04  0.00000000000E+00 0.  1.
<mgrwt>
<rscale>  0 0.30582014E+04</rscale>
<asrwt>0</asrwt>
<pdfrwt beam="1">  1        2 0.20568440E+00 0.30582014E+04</pdfrwt>
<pdfrwt beam="2">  1       -2 0.26905689E+00 0.30582014E+04</pdfrwt>
<totfact> 0.65830106E-01</totfact>
</mgrwt>
</event>
<event>
 6    1  0.1028026E-006  0.3308797E+04  0.7818608E-02  0.8160661E-01
         -2   -1    0    0    0  501 -0.00000000000E+00  0.00000000000E+00  0.61744860280E+03  0.61744860280E+03  0.00000000000E+00 0.  1.
          2   -1    0    0  501    0  0.00000000000E+00 -0.00000000000E+00 -0.44328131855E+04  0.44328131855E+04  0.00000000000E+00 0. -1.
         23    2    1    2    0    0  0.45568293485E+03  0.12653085425E+04 -0.33764635086E+04  0.36355933474E+04  0.91545168683E+02 0.  0.
         13    1    3    3    0    0  0.38235639207E+03  0.11176838639E+04 -0.28967071480E+04  0.31283103957E+04  0.00000000000E+00 0.  1.
        -13    1    3    3    0    0  0.73326542780E+02  0.14762467853E+03 -0.47975636059E+03  0.50728295173E+03  0.00000000000E+00 0. -1.
         22    1    1    2    0    0 -0.45568293485E+03 -0.12653085425E+04 -0.43890107406E+03  0.14146684409E+04  0.00000000000E+00 0.  1.
<mgrwt>
<rscale>  0 0.33087969E+04</rscale>
<asrwt>0</asrwt>
<pdfrwt beam="1">  1        2 0.68197124E+00 0.33087969E+04</pdfrwt>
<pdfrwt beam="2">  1       -2 0.94992096E-01 0.33087969E+04</pdfrwt>
<totfact> 0.11080842E-01</totfact>
</mgrwt>
</event>
<event>
 6    1  0.1028026E-006  0.2127438E+04  0.7818608E-02  0.8549252E-01
          2   -1    0    0  501    0  0.00000000000E+00  0.00000000000E+00  0.19146826037E+04  0.19146826037E+04  0.00000000000E+00 0. -1.
         -2   -1    0    0    0  501 -0.00000000000E+00 -0.00000000000E+00 -0.59095842128E+03  0.59095842128E+03  0.00000000000E+00 0.  1.
         23    2    1    2    0    0  0.85765526883E+03 -0.45916157297E+03  0.16216457580E+03  0.99050979965E+03  0.91708250973E+02 0.  0.
         13    1    3    3    0    0  0.55359196357E+03 -0.25400941153E+03  0.76801691862E+02  0.61390825304E+03  0.00000000000E+00 0. -1.
        -13    1    3    3    0    0  0.30406330526E+03 -0.20515216145E+03  0.85362883939E+02  0.37660154661E+03  0.00000000000E+00 0.  1.
         22    1    1    2    0    0 -0.85765526883E+03  0.45916157297E+03  0.11615596066E+04  0.15151312253E+04  0.00000000000E+00 0. -1.
<mgrwt>
<rscale>  0 0.21274377E+04</rscale>
<asrwt>0</asrwt>
<pdfrwt beam="1">  1        2 0.29456655E+00 0.21274377E+04</pdfrwt>
<pdfrwt beam="2">  1       -2 0.90916681E-01 0.21274377E+04</pdfrwt>
<totfact> 0.70733383E+00</totfact>
</mgrwt>
</event>
<event>
 6    1  0.1028026E-006  0.4098065E+04  0.7818608E-02  0.7985051E-01
         -1   -1    0    0    0  501 -0.00000000000E+00  0.00000000000E+00  0.24841463462E+04  0.24841463462E+04  0.00000000000E+00 0.  1.
          1   -1    0    0  501    0  0.00000000000E+00 -0.00000000000E+00 -0.16901311761E+04  0.16901311761E+04  0.00000000000E+00 0. -1.
         23    2    1    2    0    0 -0.54573628114E+03 -0.11250521388E+04 -0.12548321799E+04  0.17739971496E+04  0.94295723694E+02 0.  0.
         11    1    3    3    0    0 -0.18485408023E+03 -0.29858295274E+03 -0.38362794749E+03  0.52008961991E+03  0.00000000000E+00 0. -1.
        -11    1    3    3    0    0 -0.36088220091E+03 -0.82646918609E+03 -0.87120423242E+03  0.12539075297E+04  0.00000000000E+00 0.  1.
         22    1    1    2    0    0  0.54573628114E+03  0.11250521388E+04  0.20488473500E+04  0.24002803726E+04  0.00000000000E+00 0.  1.
<mgrwt>
<rscale>  0 0.40980645E+04</rscale>
<asrwt>0</asrwt>
<pdfrwt beam="1">  1        1 0.26002018E+00 0.40980645E+04</pdfrwt>
<pdfrwt beam="2">  1       -1 0.38217636E+00 0.40980645E+04</pdfrwt>
<totfact> 0.35525920E-02</totfact>
</mgrwt>
</event>
<event>
 6    1  0.1028026E-006  0.3885938E+04  0.7818608E-02  0.8027960E-01
         -2   -1    0    0    0  501 -0.00000000000E+00  0.00000000000E+00  0.13488396953E+04  0.13488396953E+04  0.00000000000E+00 0.  1.
          2   -1    0    0  501    0  0.00000000000E+00 -0.00000000000E+00 -0.27987974933E+04  0.27987974933E+04  0.00000000000E+00 0. -1.
         23    2    1    2    0    0 -0.16189518231E+04 -0.66859553262E+03  0.16959368613E+03  0.17620613668E+04  0.89851267096E+02 0.  0.
         11    1    3    3    0    0 -0.65422117864E+03 -0.31218296001E+03  0.48798341661E+02  0.72652930378E+03  0.00000000000E+00 0. -1.
        -11    1    3    3    0    0 -0.96473064450E+03 -0.35641257261E+03  0.12079534447E+03  0.10355320630E+04  0.00000000000E+00 0.  1.
         22    1    1    2    0    0  0.16189518231E+04  0.66859553262E+03 -0.16195514842E+04  0.23855758218E+04  0.00000000000E+00 0. -1.
<mgrwt>
<rscale>  0 0.38859383E+04</rscale>
<asrwt>0</asrwt>
<pdfrwt beam="1">  1        2 0.43058422E+00 0.38859383E+04</pdfrwt>
<pdfrwt beam="2">  1       -2 0.20751380E+00 0.38859383E+04</pdfrwt>
<totfact> 0.21905611E-01</totfact>
</mgrwt>
</event>
<event>
 6    1  0.1028026E-006  0.1862545E+04  0.7818608E-02  0.8673728E-01
          1   -1    0    0  501    0  0.00000000000E+00  0.00000000000E+00  0.22798964265E+04  0.22798964265E+04  0.00000000000E+00 0. -1.
         -1   -1    0    0    0  501 -0.00000000000E+00 -0.00000000000E+00 -0.38039806535E+03  0.38039806535E+03  0.00000000000E+00 0.  1.
         23    2    1    2    0    0  0.84330546642E+03 -0.36395399348E+03  0.75391558220E+03  0.11919666938E+04  0.93644407337E+02 0.  0.
         11    1    3    3    0    0  0.35840102042E+03 -0.10542470902E+03  0.31569381938E+03  0.48910964855E+03  0.00000000000E+00 0.  1.
        -11    1    3    3    0    0  0.48490444599E+03 -0.25852928447E+03  0.43822176281E+03  0.70285704526E+03  0.00000000000E+00 0. -1.
         22    1    1    2    0    0 -0.84330546642E+03  0.36395399348E+03  0.11455827790E+04  0.14683277980E+04  0.00000000000E+00 0. -1.
<mgrwt>
<rscale>  0 0.18625447E+04</rscale>
<asrwt>0</asrwt>
<pdfrwt beam="1">  1        1 0.35075329E+00 0.18625447E+04</pdfrwt>
<pdfrwt beam="2">  1       -1 0.58522781E-01 0.18625447E+04</pdfrwt>
<totfact> 0.53373368E+00</totfact>
</mgrwt>
</event>
<event>
 6    1  0.1028026E-006  0.2937154E+03  0.7818608E-02  0.1088425E+00
         -4   -1    0    0    0  501 -0.00000000000E+00  0.00000000000E+00  0.11017349859E+03  0.11017349859E+03  0.00000000000E+00 0.  1.
          4   -1    0    0  501    0  0.00000000000E+00 -0.00000000000E+00 -0.19575661430E+03  0.19575661430E+03  0.00000000000E+00 0. -1.
         23    2    1    2    0    0  0.10803189582E+03  0.74078891034E+02 -0.59708723800E+02  0.17240836647E+03  0.94873286658E+02 0.  0.
         11    1    3    3    0    0  0.71723373028E+02 -0.35078739263E+01 -0.46964527939E+02  0.85803346686E+02  0.00000000000E+00 0. -1.
        -11    1    3    3    0    0  0.36308522789E+02  0.77586764960E+02 -0.12744195861E+02  0.86605019786E+02  0.00000000000E+00 0.  1.
         22    1    1    2    0    0 -0.10803189582E+03 -0.74078891034E+02 -0.25874391911E+02  0.13352174642E+03  0.00000000000E+00 0. -1.
<mgrwt>
<rscale>  0 0.29371545E+03</rscale>
<asrwt>0</asrwt>
<pdfrwt beam="1">  1        4 0.30116402E-01 0.29371545E+03</pdfrwt>
<pdfrwt beam="2">  1       -4 0.16949769E-01 0.29371545E+03</pdfrwt>
<totfact> 0.60590339E+02</totfact>
</mgrwt>
</event>
<event>
 6    1  0.1028026E-006  0.1417608E+04  0.7818608E-02  0.8941171E-01
          1   -1    0    0  501    0  0.00000000000E+00  0.00000000000E+00  0.67909399680E+03  0.67909399680E+03  0.00000000000E+00 0. -1.
         -1   -1    0    0    0  501 -0.00000000000E+00 -0.00000000000E+00 -0.73981395828E+03  0.73981395828E+03  0.00000000000E+00 0.  1.
         23    2    1    2    0    0 -0.57140457443E+03  0.41237984764E+03 -0.72003217565E+02  0.71414725932E+03  0.90892894347E+02 0.  0.
         13    1    3    3    0    0 -0.12468865726E+03  0.48621987721E+02 -0.24988206528E+02  0.13614613253E+03  0.00000000000E+00 0.  1.
        -13    1    3    3    0    0 -0.44671591717E+03  0.36375785992E+03 -0.47015011037E+02  0.57800112679E+03  0.00000000000E+00 0. -1.
         22    1    1    2    0    0  0.57140457443E+03 -0.41237984764E+03  0.11283256084E+02  0.70476069576E+03  0.00000000000E+00 0.  1.
<mgrwt>
<rscale>  0 0.14176082E+04</rscale>
<asrwt>0</asrwt>
<pdfrwt beam="1">  1        1 0.10447600E+00 0.14176082E+04</pdfrwt>
<pdfrwt beam="2">  1       -1 0.11381753E+00 0.14176082E+04</pdfrwt>
<totfact> 0.19551364E+01</totfact>
</mgrwt>
</event>
<event>
 6    1  0.1028026E-006  0.3916508E+04  0.7818608E-02  0.8021605E-01
         -2   -1    0    0    0  501 -0.00000000000E+00  0.00000000000E+00  0.25458343553E+04  0.25458343553E+04  0.00000000000E+00 0.  1.
          2   -1    0    0  501    0  0.00000000000E+00 -0.00000000000E+00 -0.15062876030E+04  0.15062876030E+04  0.00000000000E+00 0. -1.
         23    2    1    2    0    0 -0.17231035202E+04 -0.68967557082E+03 -0.12295976946E+03  0.18621083631E+04  0.87122424317E+02 0.  0.
         11    1    3    3    0    0 -0.40822801170E+03 -0.16724398682E+03 -0.66305299919E+02  0.44611327425E+03  0.00000000000E+00 0. -1.
        -11    1    3    3    0    0 -0.13148755085E+04 -0.52243158400E+03 -0.56654469540E+02  0.14159950889E+04  0.00000000000E+00 0.  1.
         22    1    1    2    0    0  0.17231035202E+04  0.68967557082E+03  0.11625065217E+04  0.21900135952E+04  0.00000000000E+00 0.  1.
<mgrwt>
<rscale>  0 0.39165080E+04</rscale>
<asrwt>0</asrwt>
<pdfrwt beam="1">  1        2 0.23173655E+00 0.39165080E+04</pdfrwt>
<pdfrwt beam="2">  1       -2 0.39166682E+00 0.39165080E+04</pdfrwt>
<totfact> 0.84073157E-02</totfact>
</mgrwt>
</event>
<event>
 6    1  0.1028026E-006  0.1411102E+04  0.7818608E-02  0.8945821E-01
         -2   -1    0    0    0  501 -0.00000000000E+00  0.00000000000E+00  0.23406969281E+03  0.23406969281E+03  0.00000000000E+00 0.  1.
          2   -1    0    0  501    0  0.00000000000E+00 -0.00000000000E+00 -0.21267264776E+04  0.21267264776E+04  0.00000000000E+00 0. -1.
         23    2    1    2    0    0  0.50719202164E+03 -0.36516608238E+03 -0.41177635382E+03  0.75343906466E+03  0.86721646985E+02 0.  0.
         11    1    3    3    0    0  0.99705009844E+02 -0.65365383389E+02 -0.40449101791E+02  0.12589619601E+03  0.00000000000E+00 0. -1.
        -11    1    3    3    0    0  0.40748701180E+03 -0.29980069899E+03 -0.37132725203E+03  0.62754286865E+03  0.00000000000E+00 0.  1.
         22    1    1    2    0    0 -0.50719202164E+03  0.36516608238E+03 -0.14808804310E+04  0.16073571058E+04  0.00000000000E+00 0. -1.
<mgrwt>
<rscale>  0 0.14111020E+04</rscale>
<asrwt>0</asrwt>
<pdfrwt beam="1">  1        2 0.32718868E+00 0.14111020E+04</pdfrwt>
<pdfrwt beam="2">  1       -2 0.36010723E-01 0.14111020E+04</pdfrwt>
<totfact> 0.40089662E+01</totfact>
</mgrwt>
</event>
<event>
 6    1  0.1028026E-006  0.1683206E+04  0.7818608E-02  0.8771001E-01
         -2   -1    0    0    0  501 -0.00000000000E+00  0.00000000000E+00  0.31024495302E+03  0.31024495302E+03  0.00000000000E+00 0.  1.
          2   -1    0    0  501    0  0.00000000000E+00 -0.00000000000E+00 -0.22830203819E+04  0.22830203819E+04  0.00000000000E+00 0. -1.
         23    2    1    2    0    0 -0.65017200510E+03 -0.33364031984E+03 -0.16246333285E+04  0.17837948776E+04  0.91930484744E+02 0.  0.
         11    1    3    3    0    0 -0.35614311701E+03 -0.21118710755E+03 -0.10089356137E+04  0.10905911181E+04  0.00000000000E+00 0.  1.
        -11    1    3    3    0    0 -0.29402888809E+03 -0.12245321229E+03 -0.61569771482E+03  0.69320375956E+03  0.00000000000E+00 0. -1.
         22    1    1    2    0    0  0.65017200510E+03  0.33364031984E+03 -0.34814210038E+03  0.80947045733E+03  0.00000000000E+00 0.  1.
<mgrwt>
<rscale>  0 0.16832059E+04</rscale>
<asrwt>0</asrwt>
<pdfrwt beam="1">  1        2 0.35123390E+00 0.16832059E+04</pdfrwt>
<pdfrwt beam="2">  1       -2 0.47729993E-01 0.16832059E+04</pdfrwt>
<totfact> 0.18384733E+01</totfact>
</mgrwt>
</event>
<event>
 6    1  0.1028026E-006  0.4922623E+04  0.7818608E-02  0.7840555E-01
          1   -1    0    0  501    0  0.00000000000E+00  0.00000000000E+00  0.40617971759E+04  0.40617971759E+04  0.00000000000E+00 0. -1.
         -1   -1    0    0    0  501 -0.00000000000E+00 -0.00000000000E+00 -0.14914715063E+04  0.14914715063E+04  0.00000000000E+00 0.  1.
         23    2    1    2    0    0  0.23098608854E+03 -0.45241328836E+03  0.40014809280E+04  0.40346384671E+04  0.91790994099E+02 0.  0.
         11    1    3    3    0    0  0.18416711510E+03 -0.41957984747E+03  0.36230786886E+04  0.36519397529E+04  0.00000000000E+00 0. -1.
        -11    1    3    3    0    0  0.46818973439E+02 -0.32833440892E+02  0.37840223936E+03  0.38269871422E+03  0.00000000000E+00 0.  1.
         22    1    1    2    0    0 -0.23098608854E+03  0.45241328836E+03 -0.14311552584E+04  0.15186302151E+04  0.00000000000E+00 0.  1.
<mgrwt>
<rscale>  0 0.49226232E+04</rscale>
<asrwt>0</asrwt>
<pdfrwt beam="1">  1        1 0.62489187E+00 0.49226232E+04</pdfrwt>
<pdfrwt beam="2">  1       -1 0.22945716E+00 0.49226232E+04</pdfrwt>
<totfact> 0.58238551E-03</totfact>
</mgrwt>
</event>
<event>
 6    1  0.1028026E-006  0.1766947E+04  0.7818608E-02  0.8724077E-01
         -1   -1    0    0    0  501 -0.00000000000E+00  0.00000000000E+00  0.19934808727E+03  0.19934808727E+03  0.00000000000E+00 0.  1.
          1   -1    0    0  501    0  0.00000000000E+00 -0.00000000000E+00 -0.39153913720E+04  0.39153913720E+04  0.00000000000E+00 0. -1.
         23    2    1    2    0    0 -0.66953080504E+03 -0.83650092146E+02 -0.54308304612E+03  0.87083047279E+03  0.90209093417E+02 0.  0.
         13    1    3    3    0    0 -0.62164761553E+03 -0.55473957960E+02 -0.51136220791E+03  0.80685464960E+03  0.00000000000E+00 0. -1.
        -13    1    3    3    0    0 -0.47883189507E+02 -0.28176134186E+02 -0.31720838216E+02  0.63975823185E+02  0.00000000000E+00 0.  1.
         22    1    1    2    0    0  0.66953080504E+03  0.83650092146E+02 -0.31729602386E+04  0.32439089864E+04  0.00000000000E+00 0. -1.
<mgrwt>
<rscale>  0 0.17669474E+04</rscale>
<asrwt>0</asrwt>
<pdfrwt beam="1">  1        1 0.60236795E+00 0.17669474E+04</pdfrwt>
<pdfrwt beam="2">  1       -1 0.30668934E-01 0.17669474E+04</pdfrwt>
<totfact> 0.10680512E+00</totfact>
</mgrwt>
</event>
<event>
 6    1  0.1028026E-006  0.1859693E+04  0.7818608E-02  0.8675184E-01
          2   -1    0    0  501    0  0.00000000000E+00  0.00000000000E+00  0.49241769770E+03  0.49241769770E+03  0.00000000000E+00 0. -1.
         -2   -1    0    0    0  501 -0.00000000000E+00 -0.00000000000E+00 -0.17558565590E+04  0.17558565590E+04  0.00000000000E+00 0.  1.
         23    2    1    2    0    0 -0.28083545782E+03 -0.41148669056E+03 -0.15791577230E+04  0.16584706873E+04  0.92714915455E+02 0.  0.
         13    1    3    3    0    0 -0.23467831160E+03 -0.31194125810E+03 -0.13326344445E+04  0.13886309161E+04  0.00000000000E+00 0. -1.
        -13    1    3    3    0    0 -0.46157146221E+02 -0.99545432452E+02 -0.24652327848E+03  0.26983977117E+03  0.00000000000E+00 0.  1.
         22    1    1    2    0    0  0.28083545782E+03  0.41148669056E+03  0.31571886170E+03  0.58980356943E+03  0.00000000000E+00 0. -1.
<mgrwt>
<rscale>  0 0.18596934E+04</rscale>
<asrwt>0</asrwt>
<pdfrwt beam="1">  1        2 0.75756571E-01 0.18596934E+04</pdfrwt>
<pdfrwt beam="2">  1       -2 0.27013177E+00 0.18596934E+04</pdfrwt>
<totfact> 0.28505076E+00</totfact>
</mgrwt>
</event>
<event>
 6    1  0.1028026E-006  0.1704141E+04  0.7818608E-02  0.8759006E-01
         -1   -1    0    0    0  501 -0.00000000000E+00  0.00000000000E+00  0.56237835406E+03  0.56237835406E+03  0.00000000000E+00 0.  1.
          1   -1    0    0  501    0  0.00000000000E+00 -0.00000000000E+00 -0.12909881999E+04  0.12909881999E+04  0.00000000000E+00 0. -1.
         23    2    1    2    0    0  0.56178745120E+03 -0.43183927638E+03  0.14466984931E+03  0.72877430477E+03  0.89957329064E+02 0.  0.
         11    1    3    3    0    0  0.13884316093E+03 -0.15776099834E+03  0.48891523995E+02  0.21576917540E+03  0.00000000000E+00 0.  1.
        -11    1    3    3    0    0  0.42294429027E+03 -0.27407827804E+03  0.95778325313E+02  0.51300512937E+03  0.00000000000E+00 0. -1.
         22    1    1    2    0    0 -0.56178745120E+03  0.43183927638E+03 -0.87327969514E+03  0.11245922492E+04  0.00000000000E+00 0. -1.
<mgrwt>
<rscale>  0 0.17041406E+04</rscale>
<asrwt>0</asrwt>
<pdfrwt beam="1">  1        1 0.19861357E+00 0.17041406E+04</pdfrwt>
<pdfrwt beam="2">  1       -1 0.86519748E-01 0.17041406E+04</pdfrwt>
<totfact> 0.11505325E+01</totfact>
</mgrwt>
</event>
<event>
 6    1  0.1028026E-006  0.2283335E+04  0.7818608E-02  0.8484521E-01
          2   -1    0    0  501    0  0.00000000000E+00  0.00000000000E+00  0.15798370009E+04  0.15798370009E+04  0.00000000000E+00 0. -1.
         -2   -1    0    0    0  501 -0.00000000000E+00 -0.00000000000E+00 -0.82502510042E+03  0.82502510042E+03  0.00000000000E+00 0.  1.
         23    2    1    2    0    0  0.22147420147E+03  0.56664335571E+03  0.13932334069E+04  0.15229791532E+04  0.90722987299E+02 0.  0.
         13    1    3    3    0    0  0.12610428632E+03  0.31558915000E+03  0.66510181530E+03  0.74689974383E+03  0.00000000000E+00 0.  1.
        -13    1    3    3    0    0  0.95369915144E+02  0.25105420571E+03  0.72813159157E+03  0.77607940932E+03  0.00000000000E+00 0. -1.
         22    1    1    2    0    0 -0.22147420147E+03 -0.56664335571E+03 -0.63842150638E+03  0.88188294818E+03  0.00000000000E+00 0.  1.
<mgrwt>
<rscale>  0 0.22833354E+04</rscale>
<asrwt>0</asrwt>
<pdfrwt beam="1">  1        2 0.24305185E+00 0.22833354E+04</pdfrwt>
<pdfrwt beam="2">  1       -2 0.12692694E+00 0.22833354E+04</pdfrwt>
<totfact> 0.47949418E+00</totfact>
</mgrwt>
</event>
<event>
 6    1  0.1028026E-006  0.1703543E+04  0.7818608E-02  0.8759346E-01
         -2   -1    0    0    0  501 -0.00000000000E+00  0.00000000000E+00  0.63894759149E+03  0.63894759149E+03  0.00000000000E+00 0.  1.
          2   -1    0    0  501    0  0.00000000000E+00 -0.00000000000E+00 -0.11354833672E+04  0.11354833672E+04  0.00000000000E+00 0. -1.
         23    2    1    2    0    0  0.84477996182E+03 -0.88230286885E+02 -0.23892993989E+03  0.88685080225E+03  0.89325594651E+02 0.  0.
         11    1    3    3    0    0  0.48901752247E+03 -0.33088527827E+02 -0.17948611288E+03  0.52196575814E+03  0.00000000000E+00 0.  1.
        -11    1    3    3    0    0  0.35576243935E+03 -0.55141759058E+02 -0.59443827013E+02  0.36488504411E+03  0.00000000000E+00 0. -1.
         22    1    1    2    0    0 -0.84477996182E+03  0.88230286885E+02 -0.25760583578E+03  0.88758015641E+03  0.00000000000E+00 0. -1.
<mgrwt>
<rscale>  0 0.17035426E+04</rscale>
<asrwt>0</asrwt>
<pdfrwt beam="1">  1        2 0.17468975E+00 0.17035426E+04</pdfrwt>
<pdfrwt beam="2">  1       -2 0.98299630E-01 0.17035426E+04</pdfrwt>
<totfact> 0.16957815E+01</totfact>
</mgrwt>
</event>
<event>
 6    1  0.1028026E-006  0.5623965E+03  0.7818608E-02  0.9986647E-01
          1   -1    0    0  501    0  0.00000000000E+00  0.00000000000E+00  0.63406403463E+03  0.63406403463E+03  0.00000000000E+00 0. -1.
         -1   -1    0    0    0  501 -0.00000000000E+00 -0.00000000000E+00 -0.12470735806E+03  0.12470735806E+03  0.00000000000E+00 0.  1.
         23    2    1    2    0    0  0.79897169428E+02 -0.31378764548E+01  0.61459709895E+03  0.62660123548E+03  0.92228576469E+02 0.  0.
         13    1    3    3    0    0  0.52553117364E+02  0.37819836256E+02  0.45486044591E+03  0.45944553041E+03  0.00000000000E+00 0.  1.
        -13    1    3    3    0    0  0.27344052063E+02 -0.40957712711E+02  0.15973665304E+03  0.16715570507E+03  0.00000000000E+00 0. -1.
         22    1    1    2    0    0 -0.79897169428E+02  0.31378764548E+01 -0.10524042238E+03  0.13217015720E+03  0.00000000000E+00 0.  1.
<mgrwt>
<rscale>  0 0.56239648E+03</rscale>
<asrwt>0</asrwt>
<pdfrwt beam="1">  1        1 0.97548312E-01 0.56239648E+03</pdfrwt>
<pdfrwt beam="2">  1       -1 0.19185748E-01 0.56239648E+03</pdfrwt>
<totfact> 0.69863271E+02</totfact>
</mgrwt>
</event>
<event>
 6    1  0.1028026E-006  0.1441753E+04  0.7818608E-02  0.8924138E-01
          2   -1    0    0  501    0  0.00000000000E+00  0.00000000000E+00  0.17942135987E+04  0.17942135987E+04  0.00000000000E+00 0. -1.
         -2   -1    0    0    0  501 -0.00000000000E+00 -0.00000000000E+00 -0.28963274258E+03  0.28963274258E+03  0.00000000000E+00 0.  1.
         23    2    1    2    0    0 -0.11657588208E+03 -0.70128338489E+03  0.90001842946E+03  0.11506346558E+04  0.92404629160E+02 0.  0.
         11    1    3    3    0    0 -0.10036374480E+03 -0.41283264758E+03  0.48230206155E+03  0.64274330394E+03  0.00000000000E+00 0.  1.
        -11    1    3    3    0    0 -0.16212137280E+02 -0.28845073730E+03  0.41771636791E+03  0.50789135183E+03  0.00000000000E+00 0. -1.
         22    1    1    2    0    0  0.11657588208E+03  0.70128338489E+03  0.60456242661E+03  0.93321168546E+03  0.00000000000E+00 0.  1.
<mgrwt>
<rscale>  0 0.14417531E+04</rscale>
<asrwt>0</asrwt>
<pdfrwt beam="1">  1        2 0.27603286E+00 0.14417531E+04</pdfrwt>
<pdfrwt beam="2">  1       -2 0.44558884E-01 0.14417531E+04</pdfrwt>
<totfact> 0.40290260E+01</totfact>
</mgrwt>
</event>
<event>
 6    1  0.1028026E-006  0.2513751E+04  0.7818608E-02  0.8398103E-01
          1   -1    0    0  501    0  0.00000000000E+00  0.00000000000E+00  0.19596423855E+04  0.19596423855E+04  0.00000000000E+00 0. -1.
         -1   -1    0    0    0  501 -0.00000000000E+00 -0.00000000000E+00 -0.80613484680E+03  0.80613484680E+03  0.00000000000E+00 0.  1.
         23    2    1    2    0    0 -0.84910164226E+03 -0.56690565640E+03 -0.22607410833E+03  0.10495018631E+04  0.89381407668E+02 0.  0.
         13    1    3    3    0    0 -0.56697131788E+03 -0.40949704222E+03 -0.18785403861E+03  0.72417777010E+03  0.00000000000E+00 0.  1.
        -13    1    3    3    0    0 -0.28213032439E+03 -0.15740861417E+03 -0.38220069716E+02  0.32532409300E+03  0.00000000000E+00 0. -1.
         22    1    1    2    0    0  0.84910164226E+03  0.56690565640E+03  0.13795816470E+04  0.17162753692E+04  0.00000000000E+00 0. -1.
<mgrwt>
<rscale>  0 0.25137510E+04</rscale>
<asrwt>0</asrwt>
<pdfrwt beam="1">  1        1 0.30148344E+00 0.25137510E+04</pdfrwt>
<pdfrwt beam="2">  1       -1 0.12402075E+00 0.25137510E+04</pdfrwt>
<totfact> 0.16070800E+00</totfact>
</mgrwt>
</event>
<event>
 6    1  0.1028026E-006  0.2811188E+04  0.7818608E-02  0.8299803E-01
         -1   -1    0    0    0  501 -0.00000000000E+00  0.00000000000E+00  0.17231160819E+04  0.17231160819E+04  0.00000000000E+00 0.  1.
          1   -1    0    0  501    0  0.00000000000E+00 -0.00000000000E+00 -0.11465821929E+04  0.11465821929E+04  0.00000000000E+00 0. -1.
         23    2    1    2    0    0 -0.90044905665E+03  0.91140607640E+02 -0.80734069192E+03  0.12161493734E+04  0.90028837073E+02 0.  0.
         11    1    3    3    0    0 -0.53592531822E+03  0.83913387500E+02 -0.52628068737E+03  0.75579677507E+03  0.00000000000E+00 0. -1.
        -11    1    3    3    0    0 -0.36452373843E+03  0.72272201393E+01 -0.28106000455E+03  0.46035259828E+03  0.00000000000E+00 0.  1.
         22    1    1    2    0    0  0.90044905665E+03 -0.91140607640E+02  0.13838745809E+04  0.16535489015E+04  0.00000000000E+00 0.  1.
<mgrwt>
<rscale>  0 0.28111878E+04</rscale>
<asrwt>0</asrwt>
<pdfrwt beam="1">  1        1 0.17639726E+00 0.28111878E+04</pdfrwt>
<pdfrwt beam="2">  1       -1 0.26509478E+00 0.28111878E+04</pdfrwt>
<totfact> 0.56262362E-01</totfact>
</mgrwt>
</event>
<event>
 6    1  0.1028026E-006  0.8749188E+03  0.7818608E-02  0.9457489E-01
          2   -1    0    0  501    0  0.00000000000E+00  0.00000000000E+00  0.61423627478E+03  0.61423627478E+03  0.00000000000E+00 0. -1.
         -2   -1    0    0    0  501 -0.00000000000E+00 -0.00000000000E+00 -0.31155880594E+03  0.31155880594E+03  0.00000000000E+00 0.  1.
         23    2    1    2    0    0  0.27900562954E+03  0.62982303161E+02  0.49656057928E+03  0.58024975470E+03  0.91139766872E+02 0.  0.
         11    1    3    3    0    0  0.17177664874E+03 -0.39524627423E+01  0.31838162081E+03  0.36178680944E+03  0.00000000000E+00 0. -1.
        -11    1    3    3    0    0  0.10722898080E+03  0.66934765903E+02  0.17817895847E+03  0.21846294526E+03  0.00000000000E+00 0.  1.
         22    1    1    2    0    0 -0.27900562954E+03 -0.62982303161E+02 -0.19388311043E+03  0.34554532603E+03  0.00000000000E+00 0.  1.
<mgrwt>
<rscale>  0 0.87491879E+03</rscale>
<asrwt>0</asrwt>
<pdfrwt beam="1">  1        2 0.94497888E-01 0.87491879E+03</pdfrwt>
<pdfrwt beam="2">  1       -2 0.47932124E-01 0.87491879E+03</pdfrwt>
<totfact> 0.19961808E+02</totfact>
</mgrwt>
</event>
<event>
 6    1  0.1028026E-006  0.1274157E+04  0.7818608E-02  0.9050314E-01
         -2   -1    0    0    0  501 -0.00000000000E+00  0.00000000000E+00  0.94847999647E+02  0.94847999647E+02  0.00000000000E+00 0.  1.
          2   -1    0    0  501    0  0.00000000000E+00 -0.00000000000E+00 -0.42791518735E+04  0.42791518735E+04  0.00000000000E+00 0. -1.
         23    2    1    2    0    0 -0.33020646825E+03  0.25206795370E+03 -0.37468232916E+04  0.37707057287E+04  0.83440688882E+02 0.  0.
         13    1    3    3    0    0 -0.24444325047E+03  0.20948267414E+03 -0.25909248581E+04  0.26108479684E+04  0.00000000000E+00 0. -1.
        -13    1    3    3    0    0 -0.85763217783E+02  0.42585279560E+02 -0.11558984335E+04  0.11598577603E+04  0.00000000000E+00 0.  1.
         22    1    1    2    0    0  0.33020646825E+03 -0.25206795370E+03 -0.43748058227E+03  0.60329414452E+03  0.00000000000E+00 0.  1.
<mgrwt>
<rscale>  0 0.12741570E+04</rscale>
<asrwt>0</asrwt>
<pdfrwt beam="1">  1        2 0.65833119E+00 0.12741570E+04</pdfrwt>
<pdfrwt beam="2">  1       -2 0.14591997E-01 0.12741570E+04</pdfrwt>
<totfact> 0.74728386E+00</totfact>
</mgrwt>
</event>
<event>
 6    1  0.1028026E-006  0.1817922E+04  0.7818608E-02  0.8696826E-01
         -2   -1    0    0    0  501 -0.00000000000E+00  0.00000000000E+00  0.98037820751E+03  0.98037820751E+03  0.00000000000E+00 0.  1.
          2   -1    0    0  501    0  0.00000000000E+00 -0.00000000000E+00 -0.84274624841E+03  0.84274624841E+03  0.00000000000E+00 0. -1.
         23    2    1    2    0    0  0.63595521500E+03 -0.21684674928E+03 -0.54114045281E+03  0.86803622162E+03  0.95876713663E+02 0.  0.
         11    1    3    3    0    0  0.23932669656E+03 -0.43663127149E+02 -0.23209585352E+03  0.33623239222E+03  0.00000000000E+00 0. -1.
        -11    1    3    3    0    0  0.39662851844E+03 -0.17318362213E+03 -0.30904459929E+03  0.53180382940E+03  0.00000000000E+00 0.  1.
         22    1    1    2    0    0 -0.63595521500E+03  0.21684674928E+03  0.67877241190E+03  0.95508823430E+03  0.00000000000E+00 0.  1.
<mgrwt>
<rscale>  0 0.18179220E+04</rscale>
<asrwt>0</asrwt>
<pdfrwt beam="1">  1        2 0.12965327E+00 0.18179220E+04</pdfrwt>
<pdfrwt beam="2">  1       -2 0.15082742E+00 0.18179220E+04</pdfrwt>
<totfact> 0.89358410E+00</totfact>
</mgrwt>
</event>
<event>
 6    1  0.1028026E-006  0.1828589E+04  0.7818608E-02  0.8691242E-01
          1   -1    0    0  501    0  0.00000000000E+00  0.00000000000E+00  0.12035867602E+04  0.12035867602E+04  0.00000000000E+00 0. -1.
         -1   -1    0    0    0  501 -0.00000000000E+00 -0.00000000000E+00 -0.69453580005E+03  0.69453580005E+03  0.00000000000E+00 0.  1.
         23    2    1    2    0    0  0.51947399746E+03 -0.74971917245E+03  0.24485280562E+03  0.94852646901E+03  0.88416595743E+02 0.  0.
         13    1    3    3    0    0  0.40523336957E+03 -0.53193998007E+03  0.20474561201E+03  0.69935326685E+03  0.00000000000E+00 0. -1.
        -13    1    3    3    0    0  0.11424062790E+03 -0.21777919238E+03  0.40107193609E+02  0.24917320216E+03  0.00000000000E+00 0.  1.
         22    1    1    2    0    0 -0.51947399746E+03  0.74971917245E+03  0.26419815449E+03  0.94959609120E+03  0.00000000000E+00 0. -1.
<mgrwt>
<rscale>  0 0.18285886E+04</rscale>
<asrwt>0</asrwt>
<pdfrwt beam="1">  1        1 0.18516719E+00 0.18285886E+04</pdfrwt>
<pdfrwt beam="2">  1       -1 0.10685166E+00 0.18285886E+04</pdfrwt>
<totfact> 0.81715887E+00</totfact>
</mgrwt>
</event>
<event>
 6    1  0.1028026E-006  0.3593000E+04  0.7818608E-02  0.8092097E-01
         -2   -1    0    0    0  501 -0.00000000000E+00  0.00000000000E+00  0.14853633585E+04  0.14853633585E+04  0.00000000000E+00 0.  1.
          2   -1    0    0  501    0  0.00000000000E+00 -0.00000000000E+00 -0.21728101131E+04  0.21728101131E+04  0.00000000000E+00 0. -1.
         23    2    1    2    0    0  0.93156878603E+03  0.41049409681E+03 -0.18495815960E+04  0.21132193635E+04  0.91750703318E+02 0.  0.
         13    1    3    3    0    0  0.64073740853E+03  0.23617860362E+03 -0.12543210887E+04  0.14281618091E+04  0.00000000000E+00 0.  1.
        -13    1    3    3    0    0  0.29083137750E+03  0.17431549319E+03 -0.59526050731E+03  0.68505755442E+03  0.00000000000E+00 0. -1.
         22    1    1    2    0    0 -0.93156878603E+03 -0.41049409681E+03  0.11621348414E+04  0.15449541081E+04  0.00000000000E+00 0.  1.
<mgrwt>
<rscale>  0 0.35930002E+04</rscale>
<asrwt>0</asrwt>
<pdfrwt beam="1">  1        2 0.33427848E+00 0.35930002E+04</pdfrwt>
<pdfrwt beam="2">  1       -2 0.22851744E+00 0.35930002E+04</pdfrwt>
<totfact> 0.38103242E-01</totfact>
</mgrwt>
</event>
<event>
 6    1  0.1028026E-006  0.2171623E+04  0.7818608E-02  0.8530333E-01
         -1   -1    0    0    0  501 -0.00000000000E+00  0.00000000000E+00  0.83533908661E+03  0.83533908661E+03  0.00000000000E+00 0.  1.
          1   -1    0    0  501    0  0.00000000000E+00 -0.00000000000E+00 -0.14113865046E+04  0.14113865046E+04  0.00000000000E+00 0. -1.
         23    2    1    2    0    0 -0.10087964375E+04 -0.22463167545E+03  0.48590339971E+02  0.10391238479E+04  0.96372756068E+02 0.  0.
         13    1    3    3    0    0 -0.13522398362E+03 -0.11604177153E+01  0.22167499572E+02  0.13703382923E+03  0.00000000000E+00 0. -1.
        -13    1    3    3    0    0 -0.87357245388E+03 -0.22347125774E+03  0.26422840399E+02  0.90209001863E+03  0.00000000000E+00 0.  1.
         22    1    1    2    0    0  0.10087964375E+04  0.22463167545E+03 -0.62463775800E+03  0.12076017434E+04  0.00000000000E+00 0. -1.
<mgrwt>
<rscale>  0 0.21716227E+04</rscale>
<asrwt>0</asrwt>
<pdfrwt beam="1">  1        1 0.21713638E+00 0.21716227E+04</pdfrwt>
<pdfrwt beam="2">  1       -1 0.12851371E+00 0.21716227E+04</pdfrwt>
<totfact> 0.35992335E+00</totfact>
</mgrwt>
</event>
<event>
 6    1  0.1028026E-006  0.2313022E+04  0.7818608E-02  0.8472804E-01
         -2   -1    0    0    0  501 -0.00000000000E+00  0.00000000000E+00  0.16767423235E+04  0.16767423235E+04  0.00000000000E+00 0.  1.
          2   -1    0    0  501    0  0.00000000000E+00 -0.00000000000E+00 -0.79768817047E+03  0.79768817047E+03  0.00000000000E+00 0. -1.
         23    2    1    2    0    0 -0.53205989961E+02  0.92541306648E+03  0.11767462897E+04  0.15008593208E+04  0.92879758280E+02 0.  0.
         11    1    3    3    0    0  0.21955068978E+02  0.42242129425E+03  0.53858558271E+03  0.68483297584E+03  0.00000000000E+00 0. -1.
        -11    1    3    3    0    0 -0.75161058938E+02  0.50299177222E+03  0.63816070703E+03  0.81602634498E+03  0.00000000000E+00 0.  1.
         22    1    1    2    0    0  0.53205989961E+02 -0.92541306648E+03 -0.29769213670E+03  0.97357117317E+03  0.00000000000E+00 0. -1.
<mgrwt>
<rscale>  0 0.23130218E+04</rscale>
<asrwt>0</asrwt>
<pdfrwt beam="1">  1        2 0.12272126E+00 0.23130218E+04</pdfrwt>
<pdfrwt beam="2">  1       -2 0.25796036E+00 0.23130218E+04</pdfrwt>
<totfact> 0.17980214E+00</totfact>
</mgrwt>
</event>
<event>
 6    1  0.1028026E-006  0.1551900E+04  0.7818608E-02  0.8850655E-01
          1   -1    0    0  501    0  0.00000000000E+00  0.00000000000E+00  0.24693329184E+04  0.24693329184E+04  0.00000000000E+00 0. -1.
         -1   -1    0    0    0  501 -0.00000000000E+00 -0.00000000000E+00 -0.24383028184E+03  0.24383028184E+03  0.00000000000E+00 0.  1.
         23    2    1    2    0    0  0.17485922822E+03  0.70190828357E+03  0.15945104184E+04  0.17532662434E+04  0.90708642711E+02 0.  0.
         11    1    3    3    0    0  0.50591733953E+00  0.14612374342E+03  0.34388666369E+03  0.37364480701E+03  0.00000000000E+00 0. -1.
        -11    1    3    3    0    0  0.17435331088E+03  0.55578454015E+03  0.12506237547E+04  0.13796214364E+04  0.00000000000E+00 0.  1.
         22    1    1    2    0    0 -0.17485922822E+03 -0.70190828357E+03  0.63099221817E+03  0.95989695678E+03  0.00000000000E+00 0.  1.
<mgrwt>
<rscale>  0 0.15518997E+04</rscale>
<asrwt>0</asrwt>
<pdfrwt beam="1">  1        1 0.37989736E+00 0.15518997E+04</pdfrwt>
<pdfrwt beam="2">  1       -1 0.37512353E-01 0.15518997E+04</pdfrwt>
<totfact> 0.94046300E+00</totfact>
</mgrwt>
</event>
<event>
 6    1  0.1028026E-006  0.2483747E+04  0.7818608E-02  0.8408799E-01
         -1   -1    0    0    0  501 -0.00000000000E+00  0.00000000000E+00  0.13267161824E+04  0.13267161824E+04  0.00000000000E+00 0.  1.
          1   -1    0    0  501    0  0.00000000000E+00 -0.00000000000E+00 -0.11624560048E+04  0.11624560048E+04  0.00000000000E+00 0. -1.
         23    2    1    2    0    0 -0.16777189842E+03 -0.93717914933E+03 -0.71423469187E+03  0.11937165132E+04  0.91519129035E+02 0.  0.
         13    1    3    3    0    0 -0.25188205420E+02 -0.99185385505E+02 -0.11354763701E+03  0.15285696668E+03  0.00000000000E+00 0. -1.
        -13    1    3    3    0    0 -0.14258369300E+03 -0.83799376383E+03 -0.60068705485E+03  0.10408595465E+04  0.00000000000E+00 0.  1.
         22    1    1    2    0    0  0.16777189842E+03  0.93717914933E+03  0.87849486947E+03  0.12954556741E+04  0.00000000000E+00 0.  1.
<mgrwt>
<rscale>  0 0.24837465E+04</rscale>
<asrwt>0</asrwt>
<pdfrwt beam="1">  1        1 0.17883939E+00 0.24837465E+04</pdfrwt>
<pdfrwt beam="2">  1       -1 0.20411018E+00 0.24837465E+04</pdfrwt>
<totfact> 0.14286803E+00</totfact>
</mgrwt>
</event>
<event>
 6    1  0.1028026E-006  0.6366672E+04  0.7818608E-02  0.7646530E-01
          2   -1    0    0  501    0  0.00000000000E+00  0.00000000000E+00  0.25024551442E+04  0.25024551442E+04  0.00000000000E+00 0. -1.
         -2   -1    0    0    0  501 -0.00000000000E+00 -0.00000000000E+00 -0.40494743778E+04  0.40494743778E+04  0.00000000000E+00 0.  1.
         23    2    1    2    0    0 -0.53567094026E+03 -0.73839497154E+03  0.23642192928E+04  0.25357177124E+04  0.90338045869E+02 0.  0.
         11    1    3    3    0    0 -0.20374914068E+02 -0.46375582350E+02  0.18795097423E+03  0.19465713569E+03  0.00000000000E+00 0. -1.
        -11    1    3    3    0    0 -0.51529602619E+03 -0.69201938919E+03  0.21762683185E+04  0.23410605767E+04  0.00000000000E+00 0.  1.
         22    1    1    2    0    0  0.53567094026E+03  0.73839497154E+03 -0.39112385263E+04  0.40162118096E+04  0.00000000000E+00 0.  1.
<mgrwt>
<rscale>  0 0.63666720E+04</rscale>
<asrwt>0</asrwt>
<pdfrwt beam="1">  1        2 0.38499310E+00 0.63666720E+04</pdfrwt>
<pdfrwt beam="2">  1       -2 0.62299605E+00 0.63666720E+04</pdfrwt>
<totfact> 0.96888646E-04</totfact>
</mgrwt>
</event>
<event>
 6    1  0.1028026E-006  0.2247987E+04  0.7818608E-02  0.8498716E-01
         -2   -1    0    0    0  501 -0.00000000000E+00  0.00000000000E+00  0.64507764582E+03  0.64507764582E+03  0.00000000000E+00 0.  1.
          2   -1    0    0  501    0  0.00000000000E+00 -0.00000000000E+00 -0.19584643422E+04  0.19584643422E+04  0.00000000000E+00 0. -1.
         23    2    1    2    0    0 -0.64229480243E+03 -0.83964160841E+03 -0.10936822496E+04  0.15238148522E+04  0.91269913076E+02 0.  0.
         13    1    3    3    0    0 -0.42286976238E+03 -0.60789863001E+03 -0.72761536160E+03  0.10381636166E+04  0.00000000000E+00 0.  1.
        -13    1    3    3    0    0 -0.21942504005E+03 -0.23174297840E+03 -0.36606688798E+03  0.48565123568E+03  0.00000000000E+00 0. -1.
         22    1    1    2    0    0  0.64229480243E+03  0.83964160841E+03 -0.21970444680E+03  0.10797271358E+04  0.00000000000E+00 0.  1.
<mgrwt>
<rscale>  0 0.22479872E+04</rscale>
<asrwt>0</asrwt>
<pdfrwt beam="1">  1        2 0.30130221E+00 0.22479872E+04</pdfrwt>
<pdfrwt beam="2">  1       -2 0.99242713E-01 0.22479872E+04</pdfrwt>
<totfact> 0.53950952E+00</totfact>
</mgrwt>
</event>
<event>
 6    1  0.1028026E-006  0.2606138E+04  0.7818608E-02  0.8366119E-01
         -1   -1    0    0    0  501 -0.00000000000E+00  0.00000000000E+00  0.18862286874E+04  0.18862286874E+04  0.00000000000E+00 0.  1.
          1   -1    0    0  501    0  0.00000000000E+00 -0.00000000000E+00 -0.90020274166E+03  0.90020274166E+03  0.00000000000E+00 0. -1.
         23    2    1    2    0    0 -0.65769283758E+03 -0.95991731881E+03  0.11170323552E+04  0.16154643899E+04  0.89234438493E+02 0.  0.
         11    1    3    3    0    0 -0.23807888563E+03 -0.36741167397E+03  0.36316776001E+03  0.56882661318E+03  0.00000000000E+00 0. -1.
        -11    1    3    3    0    0 -0.41961395195E+03 -0.59250564484E+03  0.75386459517E+03  0.10466377767E+04  0.00000000000E+00 0.  1.
         22    1    1    2    0    0  0.65769283758E+03  0.95991731881E+03 -0.13100640940E+03  0.11709670392E+04  0.00000000000E+00 0. -1.
<mgrwt>
<rscale>  0 0.26061376E+04</rscale>
<asrwt>0</asrwt>
<pdfrwt beam="1">  1        1 0.13849273E+00 0.26061376E+04</pdfrwt>
<pdfrwt beam="2">  1       -1 0.29018903E+00 0.26061376E+04</pdfrwt>
<totfact> 0.61217019E-01</totfact>
</mgrwt>
</event>
<event>
 6    1  0.1028026E-006  0.2520133E+04  0.7818608E-02  0.8395848E-01
         -2   -1    0    0    0  501 -0.00000000000E+00  0.00000000000E+00  0.14260309021E+04  0.14260309021E+04  0.00000000000E+00 0.  1.
          2   -1    0    0  501    0  0.00000000000E+00 -0.00000000000E+00 -0.11134174181E+04  0.11134174181E+04  0.00000000000E+00 0. -1.
         23    2    1    2    0    0  0.77778724661E+03  0.98716684100E+03  0.92298420586E+02  0.12635211670E+04  0.92278752549E+02 0.  0.
         13    1    3    3    0    0  0.42733409434E+03  0.49574817324E+03  0.84062608483E+02  0.65988423349E+03  0.00000000000E+00 0.  1.
        -13    1    3    3    0    0  0.35045315227E+03  0.49141866776E+03  0.82358121027E+01  0.60363693356E+03  0.00000000000E+00 0. -1.
         22    1    1    2    0    0 -0.77778724661E+03 -0.98716684100E+03  0.22031506344E+03  0.12759271531E+04  0.00000000000E+00 0.  1.
<mgrwt>
<rscale>  0 0.25201330E+04</rscale>
<asrwt>0</asrwt>
<pdfrwt beam="1">  1        2 0.17129499E+00 0.25201330E+04</pdfrwt>
<pdfrwt beam="2">  1       -2 0.21938937E+00 0.25201330E+04</pdfrwt>
<totfact> 0.18977433E+00</totfact>
</mgrwt>
</event>
<event>
 6    1  0.1028026E-006  0.2132462E+04  0.7818608E-02  0.8547077E-01
         -2   -1    0    0    0  501 -0.00000000000E+00  0.00000000000E+00  0.96505326677E+03  0.96505326677E+03  0.00000000000E+00 0.  1.
          2   -1    0    0  501    0  0.00000000000E+00 -0.00000000000E+00 -0.11780165282E+04  0.11780165282E+04  0.00000000000E+00 0. -1.
         23    2    1    2    0    0 -0.26569708211E+03 -0.10025706658E+04 -0.34642292243E+03  0.10973382995E+04  0.91649457291E+02 0.  0.
         13    1    3    3    0    0 -0.20183156813E+03 -0.61480307619E+03 -0.24038114115E+03  0.69029116857E+03  0.00000000000E+00 0.  1.
        -13    1    3    3    0    0 -0.63865513979E+02 -0.38776758962E+03 -0.10604178128E+03  0.40704713094E+03  0.00000000000E+00 0. -1.
         22    1    1    2    0    0  0.26569708211E+03  0.10025706658E+04  0.13345966103E+03  0.10457314954E+04  0.00000000000E+00 0.  1.
<mgrwt>
<rscale>  0 0.21324621E+04</rscale>
<asrwt>0</asrwt>
<pdfrwt beam="1">  1        2 0.18123331E+00 0.21324621E+04</pdfrwt>
<pdfrwt beam="2">  1       -2 0.14846973E+00 0.21324621E+04</pdfrwt>
<totfact> 0.55254352E+00</totfact>
</mgrwt>
</event>
<event>
 6    1  0.1028026E-006  0.2688508E+04  0.7818608E-02  0.8338743E-01
          2   -1    0    0  501    0  0.00000000000E+00  0.00000000000E+00  0.46039473189E+04  0.46039473189E+04  0.00000000000E+00 0. -1.
         -2   -1    0    0    0  501 -0.00000000000E+00 -0.00000000000E+00 -0.39249330375E+03  0.39249330375E+03  0.00000000000E+00 0.  1.
         23    2    1    2    0    0  0.82033611496E+03  0.10509045659E+04  0.24051181717E+04  0.27514014409E+04  0.90910511611E+02 0.  0.
         11    1    3    3    0    0  0.34801659392E+03  0.51849204860E+03  0.11082993929E+04  0.12721152064E+04  0.00000000000E+00 0. -1.
        -11    1    3    3    0    0  0.47231952103E+03  0.53241251730E+03  0.12968187788E+04  0.14792862345E+04  0.00000000000E+00 0.  1.
         22    1    1    2    0    0 -0.82033611496E+03 -0.10509045659E+04  0.18063358434E+04  0.22450391817E+04  0.00000000000E+00 0. -1.
<mgrwt>
<rscale>  0 0.26885078E+04</rscale>
<asrwt>0</asrwt>
<pdfrwt beam="1">  1        2 0.70829955E+00 0.26885078E+04</pdfrwt>
<pdfrwt beam="2">  1       -2 0.60383588E-01 0.26885078E+04</pdfrwt>
<totfact> 0.21794838E-01</totfact>
</mgrwt>
</event>
<event>
 6    1  0.1028026E-006  0.3076074E+04  0.7818608E-02  0.8222335E-01
          1   -1    0    0  501    0  0.00000000000E+00  0.00000000000E+00  0.19059684878E+04  0.19059684878E+04  0.00000000000E+00 0. -1.
         -1   -1    0    0    0  501 -0.00000000000E+00 -0.00000000000E+00 -0.12411319083E+04  0.12411319083E+04  0.00000000000E+00 0.  1.
         23    2    1    2    0    0  0.45452022239E+03  0.11677136426E+03  0.18298527622E+04  0.18911199463E+04  0.88030311991E+02 0.  0.
         13    1    3    3    0    0  0.20417208015E+03  0.65026058326E+02  0.67007422163E+03  0.70350130708E+03  0.00000000000E+00 0. -1.
        -13    1    3    3    0    0  0.25034814223E+03  0.51745305929E+02  0.11597785406E+04  0.11876186392E+04  0.00000000000E+00 0.  1.
         22    1    1    2    0    0 -0.45452022239E+03 -0.11677136426E+03 -0.11650161828E+04  0.12559804498E+04  0.00000000000E+00 0.  1.
<mgrwt>
<rscale>  0 0.30760743E+04</rscale>
<asrwt>0</asrwt>
<pdfrwt beam="1">  1        1 0.29322592E+00 0.30760743E+04</pdfrwt>
<pdfrwt beam="2">  1       -1 0.19094337E+00 0.30760743E+04</pdfrwt>
<totfact> 0.50793426E-01</totfact>
</mgrwt>
</event>
<event>
 6    1  0.1028026E-006  0.2673224E+04  0.7818608E-02  0.8343746E-01
          1   -1    0    0  501    0  0.00000000000E+00  0.00000000000E+00  0.21384385355E+04  0.21384385355E+04  0.00000000000E+00 0. -1.
         -1   -1    0    0    0  501 -0.00000000000E+00 -0.00000000000E+00 -0.83543731981E+03  0.83543731981E+03  0.00000000000E+00 0.  1.
         23    2    1    2    0    0 -0.44052876656E+03 -0.11452856900E+04  0.67105832092E+02  0.12322724834E+04  0.90815057427E+02 0.  0.
         13    1    3    3    0    0 -0.91882680442E+02 -0.27929737688E+03 -0.19868908466E+02  0.29469344279E+03  0.00000000000E+00 0.  1.
        -13    1    3    3    0    0 -0.34864608612E+03 -0.86598831314E+03  0.86974740558E+02  0.93757904059E+03  0.00000000000E+00 0. -1.
         22    1    1    2    0    0  0.44052876656E+03  0.11452856900E+04  0.12358953836E+04  0.17416033720E+04  0.00000000000E+00 0. -1.
<mgrwt>
<rscale>  0 0.26732238E+04</rscale>
<asrwt>0</asrwt>
<pdfrwt beam="1">  1        1 0.32899054E+00 0.26732238E+04</pdfrwt>
<pdfrwt beam="2">  1       -1 0.12852882E+00 0.26732238E+04</pdfrwt>
<totfact> 0.10957699E+00</totfact>
</mgrwt>
</event>
<event>
 6    1  0.1028026E-006  0.1270061E+04  0.7818608E-02  0.9053649E-01
         -2   -1    0    0    0  501 -0.00000000000E+00  0.00000000000E+00  0.17176017018E+03  0.17176017018E+03  0.00000000000E+00 0.  1.
          2   -1    0    0  501    0  0.00000000000E+00 -0.00000000000E+00 -0.23478321546E+04  0.23478321546E+04  0.00000000000E+00 0. -1.
         23    2    1    2    0    0 -0.30086729039E+03 -0.35697845794E+03 -0.19378884712E+04  0.19954872477E+04  0.92751727688E+02 0.  0.
         13    1    3    3    0    0 -0.86728265625E+02 -0.90780459330E+02 -0.70726027978E+03  0.71831746965E+03  0.00000000000E+00 0.  1.
        -13    1    3    3    0    0 -0.21413902477E+03 -0.26619799861E+03 -0.12306281914E+04  0.12771697781E+04  0.00000000000E+00 0. -1.
         22    1    1    2    0    0  0.30086729039E+03  0.35697845794E+03 -0.23818351320E+03  0.52410507708E+03  0.00000000000E+00 0.  1.
<mgrwt>
<rscale>  0 0.12700615E+04</rscale>
<asrwt>0</asrwt>
<pdfrwt beam="1">  1        2 0.36120492E+00 0.12700615E+04</pdfrwt>
<pdfrwt beam="2">  1       -2 0.26424644E-01 0.12700615E+04</pdfrwt>
<totfact> 0.54428406E+01</totfact>
</mgrwt>
</event>
<event>
 6    1  0.1028026E-006  0.5935375E+04  0.7818608E-02  0.7698467E-01
          2   -1    0    0  501    0  0.00000000000E+00  0.00000000000E+00  0.35809322598E+04  0.35809322598E+04  0.00000000000E+00 0. -1.
         -2   -1    0    0    0  501 -0.00000000000E+00 -0.00000000000E+00 -0.24594622289E+04  0.24594622289E+04  0.00000000000E+00 0.  1.
         23    2    1    2    0    0 -0.98634707375E+03 -0.12623215858E+04  0.31024188936E+04  0.34927495502E+04  0.89219353012E+02 0.  0.
         11    1    3    3    0    0 -0.32964424684E+03 -0.35537034703E+03  0.93888515527E+03  0.10566261154E+04  0.00000000000E+00 0. -1.
        -11    1    3    3    0    0 -0.65670282691E+03 -0.90695123881E+03  0.21635337384E+04  0.24361234348E+04  0.00000000000E+00 0.  1.
         22    1    1    2    0    0  0.98634707375E+03  0.12623215858E+04 -0.19809488627E+04  0.25476449385E+04  0.00000000000E+00 0.  1.
<mgrwt>
<rscale>  0 0.59353745E+04</rscale>
<asrwt>0</asrwt>
<pdfrwt beam="1">  1        2 0.55091266E+00 0.59353745E+04</pdfrwt>
<pdfrwt beam="2">  1       -2 0.37837880E+00 0.59353745E+04</pdfrwt>
<totfact> 0.49336391E-03</totfact>
</mgrwt>
</event>
<event>
 6    1  0.1028026E-006  0.6645936E+03  0.7818608E-02  0.9779774E-01
         -2   -1    0    0    0  501 -0.00000000000E+00  0.00000000000E+00  0.11565615332E+03  0.11565615332E+03  0.00000000000E+00 0.  1.
          2   -1    0    0  501    0  0.00000000000E+00 -0.00000000000E+00 -0.95473665585E+03  0.95473665585E+03  0.00000000000E+00 0. -1.
         23    2    1    2    0    0 -0.11357682448E+03  0.45928855066E+02 -0.91416552629E+03  0.92670246301E+03  0.89831457125E+02 0.  0.
         13    1    3    3    0    0 -0.65794037463E+02  0.63151340512E+02 -0.41188666474E+03  0.42186202930E+03  0.00000000000E+00 0. -1.
        -13    1    3    3    0    0 -0.47782787013E+02 -0.17222485447E+02 -0.50227886155E+03  0.50484043370E+03  0.00000000000E+00 0.  1.
         22    1    1    2    0    0  0.11357682448E+03 -0.45928855066E+02  0.75085023766E+02  0.14369034616E+03  0.00000000000E+00 0.  1.
<mgrwt>
<rscale>  0 0.66459362E+03</rscale>
<asrwt>0</asrwt>
<pdfrwt beam="1">  1        2 0.14688256E+00 0.66459362E+03</pdfrwt>
<pdfrwt beam="2">  1       -2 0.17793254E-01 0.66459362E+03</pdfrwt>
<totfact> 0.71013035E+02</totfact>
</mgrwt>
</event>
<event>
 6    1  0.1028026E-006  0.5248474E+03  0.7818608E-02  0.1007489E+00
          1   -1    0    0  501    0  0.00000000000E+00  0.00000000000E+00  0.11966678620E+04  0.11966678620E+04  0.00000000000E+00 0. -1.
         -1   -1    0    0    0  501 -0.00000000000E+00 -0.00000000000E+00 -0.57548295331E+02  0.57548295331E+02  0.00000000000E+00 0.  1.
         23    2    1    2    0    0 -0.69046402031E+02  0.20458561827E+03  0.26558366869E+03  0.35438970413E+03  0.91840603650E+02 0.  0.
         11    1    3    3    0    0 -0.66340078113E+02  0.67395012705E+02  0.13606115654E+03  0.16569771278E+03  0.00000000000E+00 0. -1.
        -11    1    3    3    0    0 -0.27063239172E+01  0.13719060556E+03  0.12952251216E+03  0.18869199135E+03  0.00000000000E+00 0.  1.
         22    1    1    2    0    0  0.69046402031E+02 -0.20458561827E+03  0.87353589798E+03  0.89982645320E+03  0.00000000000E+00 0. -1.
<mgrwt>
<rscale>  0 0.52484739E+03</rscale>
<asrwt>0</asrwt>
<pdfrwt beam="1">  1        1 0.18410273E+00 0.52484739E+03</pdfrwt>
<pdfrwt beam="2">  1       -1 0.88535848E-02 0.52484739E+03</pdfrwt>
<totfact> 0.83818847E+02</totfact>
</mgrwt>
</event>
<event>
 6    1  0.1028026E-006  0.3050009E+04  0.7818608E-02  0.8229593E-01
          1   -1    0    0  501    0  0.00000000000E+00  0.00000000000E+00  0.10259435119E+04  0.10259435119E+04  0.00000000000E+00 0. -1.
         -1   -1    0    0    0  501 -0.00000000000E+00 -0.00000000000E+00 -0.22668288499E+04  0.22668288499E+04  0.00000000000E+00 0.  1.
         23    2    1    2    0    0 -0.51325021797E+03 -0.62185109365E+03 -0.20166953254E+04  0.21738417538E+04  0.91669875737E+02 0.  0.
         13    1    3    3    0    0 -0.81833261221E+02 -0.12150961669E+03 -0.28596026888E+03  0.32130133048E+03  0.00000000000E+00 0.  1.
        -13    1    3    3    0    0 -0.43141695675E+03 -0.50034147696E+03 -0.17307350565E+04  0.18525404233E+04  0.00000000000E+00 0. -1.
         22    1    1    2    0    0  0.51325021797E+03  0.62185109365E+03  0.77580998742E+03  0.11189306080E+04  0.00000000000E+00 0. -1.
<mgrwt>
<rscale>  0 0.30500088E+04</rscale>
<asrwt>0</asrwt>
<pdfrwt beam="1">  1        1 0.15783746E+00 0.30500088E+04</pdfrwt>
<pdfrwt beam="2">  1       -1 0.34874290E+00 0.30500088E+04</pdfrwt>
<totfact> 0.19379954E-01</totfact>
</mgrwt>
</event>
<event>
 6    1  0.1028026E-006  0.1713832E+04  0.7818608E-02  0.8753515E-01
          2   -1    0    0  501    0  0.00000000000E+00  0.00000000000E+00  0.31464345153E+04  0.31464345153E+04  0.00000000000E+00 0. -1.
         -2   -1    0    0    0  501 -0.00000000000E+00 -0.00000000000E+00 -0.23337685127E+03  0.23337685127E+03  0.00000000000E+00 0.  1.
         23    2    1    2    0    0  0.66863465588E+03  0.51931477660E+03  0.16887405341E+04  0.18912843850E+04  0.91388692874E+02 0.  0.
         11    1    3    3    0    0  0.51164276485E+03  0.34870127913E+03  0.12574375859E+04  0.14016134215E+04  0.00000000000E+00 0. -1.
        -11    1    3    3    0    0  0.15699189104E+03  0.17061349747E+03  0.43130294818E+03  0.48967096348E+03  0.00000000000E+00 0.  1.
         22    1    1    2    0    0 -0.66863465588E+03 -0.51931477660E+03  0.12243171299E+04  0.14885269816E+04  0.00000000000E+00 0. -1.
<mgrwt>
<rscale>  0 0.17138319E+04</rscale>
<asrwt>0</asrwt>
<pdfrwt beam="1">  1        2 0.48406682E+00 0.17138319E+04</pdfrwt>
<pdfrwt beam="2">  1       -2 0.35904133E-01 0.17138319E+04</pdfrwt>
<totfact> 0.97996412E+00</totfact>
</mgrwt>
</event>
<event>
 6    1  0.1028026E-006  0.1855187E+04  0.7818608E-02  0.8677490E-01
         -1   -1    0    0    0  501 -0.00000000000E+00  0.00000000000E+00  0.25398270291E+03  0.25398270291E+03  0.00000000000E+00 0.  1.
          1   -1    0    0  501    0  0.00000000000E+00 -0.00000000000E+00 -0.33877495817E+04  0.33877495817E+04  0.00000000000E+00 0. -1.
         23    2    1    2    0    0  0.50370347039E+02 -0.39461718170E+03 -0.32107234651E+04  0.32365382470E+04  0.90414396708E+02 0.  0.
         11    1    3    3    0    0  0.15291026193E+01 -0.26515645112E+03 -0.23250777088E+04  0.23401488486E+04  0.00000000000E+00 0. -1.
        -11    1    3    3    0    0  0.48841244420E+02 -0.12946073058E+03 -0.88564575633E+03  0.89638939843E+03  0.00000000000E+00 0.  1.
         22    1    1    2    0    0 -0.50370347039E+02  0.39461718170E+03  0.76956586279E+02  0.40519403763E+03  0.00000000000E+00 0.  1.
<mgrwt>
<rscale>  0 0.18551871E+04</rscale>
<asrwt>0</asrwt>
<pdfrwt beam="1">  1        1 0.52119222E+00 0.18551871E+04</pdfrwt>
<pdfrwt beam="2">  1       -1 0.39074264E-01 0.18551871E+04</pdfrwt>
<totfact> 0.18351512E+00</totfact>
</mgrwt>
</event>
<event>
 6    1  0.1028026E-006  0.2459179E+04  0.7818608E-02  0.8417674E-01
          1   -1    0    0  501    0  0.00000000000E+00  0.00000000000E+00  0.15293474368E+04  0.15293474368E+04  0.00000000000E+00 0. -1.
         -1   -1    0    0    0  501 -0.00000000000E+00 -0.00000000000E+00 -0.98858532368E+03  0.98858532368E+03  0.00000000000E+00 0.  1.
         23    2    1    2    0    0  0.28271903028E+03  0.66303260041E+03 -0.74712784322E+03  0.10420591823E+04  0.90249908221E+02 0.  0.
         11    1    3    3    0    0  0.19645441955E+03  0.43425850052E+03 -0.43256798093E+03  0.64365351111E+03  0.00000000000E+00 0.  1.
        -11    1    3    3    0    0  0.86264610731E+02  0.22877409988E+03 -0.31455986229E+03  0.39840567115E+03  0.00000000000E+00 0. -1.
         22    1    1    2    0    0 -0.28271903028E+03 -0.66303260041E+03  0.12878899563E+04  0.14758735782E+04  0.00000000000E+00 0. -1.
<mgrwt>
<rscale>  0 0.24591791E+04</rscale>
<asrwt>0</asrwt>
<pdfrwt beam="1">  1        1 0.23528422E+00 0.24591791E+04</pdfrwt>
<pdfrwt beam="2">  1       -1 0.15209005E+00 0.24591791E+04</pdfrwt>
<totfact> 0.18704265E+00</totfact>
</mgrwt>
</event>
<event>
 6    1  0.1028026E-006  0.2875127E+04  0.7818608E-02  0.8280317E-01
          1   -1    0    0  501    0  0.00000000000E+00  0.00000000000E+00  0.23406584109E+04  0.23406584109E+04  0.00000000000E+00 0. -1.
         -1   -1    0    0    0  501 -0.00000000000E+00 -0.00000000000E+00 -0.88290918768E+03  0.88290918768E+03  0.00000000000E+00 0.  1.
         23    2    1    2    0    0 -0.49588929131E+03 -0.76898921810E+01 -0.78206392066E+03  0.92950390216E+03  0.79926243920E+02 0.  0.
         11    1    3    3    0    0 -0.36814653866E+03  0.28762613904E+02 -0.56237059654E+03  0.67277028007E+03  0.00000000000E+00 0. -1.
        -11    1    3    3    0    0 -0.12774275265E+03 -0.36452506085E+02 -0.21969332412E+03  0.25673362210E+03  0.00000000000E+00 0.  1.
         22    1    1    2    0    0  0.49588929131E+03  0.76898921810E+01  0.22398131439E+04  0.22940636964E+04  0.00000000000E+00 0. -1.
<mgrwt>
<rscale>  0 0.28751270E+04</rscale>
<asrwt>0</asrwt>
<pdfrwt beam="1">  1        1 0.36010129E+00 0.28751270E+04</pdfrwt>
<pdfrwt beam="2">  1       -1 0.13583218E+00 0.28751270E+04</pdfrwt>
<totfact> 0.68052470E-01</totfact>
</mgrwt>
</event>
<event>
 6    1  0.1028026E-006  0.3101826E+04  0.7818608E-02  0.8215237E-01
          1   -1    0    0  501    0  0.00000000000E+00  0.00000000000E+00  0.20747107613E+04  0.20747107613E+04  0.00000000000E+00 0. -1.
         -1   -1    0    0    0  501 -0.00000000000E+00 -0.00000000000E+00 -0.11593570924E+04  0.11593570924E+04  0.00000000000E+00 0.  1.
         23    2    1    2    0    0  0.14227902449E+04  0.53775007079E+03  0.14986148714E+03  0.15312802862E+04  0.94093729525E+02 0.  0.
         11    1    3    3    0    0  0.80303206262E+03  0.32163919346E+03  0.12879278096E+03  0.87458552743E+03  0.00000000000E+00 0. -1.
        -11    1    3    3    0    0  0.61975818229E+03  0.21611087734E+03  0.21068706179E+02  0.65669475877E+03  0.00000000000E+00 0.  1.
         22    1    1    2    0    0 -0.14227902449E+04 -0.53775007079E+03  0.76549218171E+03  0.17027875675E+04  0.00000000000E+00 0.  1.
<mgrwt>
<rscale>  0 0.31018257E+04</rscale>
<asrwt>0</asrwt>
<pdfrwt beam="1">  1        1 0.31918627E+00 0.31018257E+04</pdfrwt>
<pdfrwt beam="2">  1       -1 0.17836263E+00 0.31018257E+04</pdfrwt>
<totfact> 0.47833628E-01</totfact>
</mgrwt>
</event>
<event>
 6    1  0.1028026E-006  0.1766736E+04  0.7818608E-02  0.8724192E-01
         -2   -1    0    0    0  501 -0.00000000000E+00  0.00000000000E+00  0.81282998932E+03  0.81282998932E+03  0.00000000000E+00 0.  1.
          2   -1    0    0  501    0  0.00000000000E+00 -0.00000000000E+00 -0.96002683735E+03  0.96002683735E+03  0.00000000000E+00 0. -1.
         23    2    1    2    0    0  0.69343540083E+03  0.45996291586E+03 -0.36444789274E+03  0.91284720143E+03  0.89717376030E+02 0.  0.
         13    1    3    3    0    0  0.19099369473E+03  0.82233655093E+02 -0.10293427992E+03  0.23202679035E+03  0.00000000000E+00 0.  1.
        -13    1    3    3    0    0  0.50244170610E+03  0.37772926076E+03 -0.26151361282E+03  0.68082041109E+03  0.00000000000E+00 0. -1.
         22    1    1    2    0    0 -0.69343540083E+03 -0.45996291586E+03  0.21725104471E+03  0.86000962524E+03  0.00000000000E+00 0.  1.
<mgrwt>
<rscale>  0 0.17667355E+04</rscale>
<asrwt>0</asrwt>
<pdfrwt beam="1">  1        2 0.14769644E+00 0.17667355E+04</pdfrwt>
<pdfrwt beam="2">  1       -2 0.12505077E+00 0.17667355E+04</pdfrwt>
<totfact> 0.12124262E+01</totfact>
</mgrwt>
</event>
<event>
 6    1  0.1028026E-006  0.1816098E+04  0.7818608E-02  0.8697785E-01
         -2   -1    0    0    0  501 -0.00000000000E+00  0.00000000000E+00  0.26942356202E+03  0.26942356202E+03  0.00000000000E+00 0.  1.
          2   -1    0    0  501    0  0.00000000000E+00 -0.00000000000E+00 -0.30604340736E+04  0.30604340736E+04  0.00000000000E+00 0. -1.
         23    2    1    2    0    0  0.51853580032E+03  0.30216576785E+03 -0.15512443159E+03  0.62651175429E+03  0.90938778940E+02 0.  0.
         13    1    3    3    0    0  0.97127483589E+02  0.31215474814E+02  0.92023796943E-01  0.10202040190E+03  0.00000000000E+00 0. -1.
        -13    1    3    3    0    0  0.42140831673E+03  0.27095029304E+03 -0.15521645539E+03  0.52449135239E+03  0.00000000000E+00 0.  1.
         22    1    1    2    0    0 -0.51853580032E+03 -0.30216576785E+03 -0.26358860800E+04  0.27033458813E+04  0.00000000000E+00 0. -1.
<mgrwt>
<rscale>  0 0.18160981E+04</rscale>
<asrwt>0</asrwt>
<pdfrwt beam="1">  1        2 0.47083601E+00 0.18160981E+04</pdfrwt>
<pdfrwt beam="2">  1       -2 0.41449779E-01 0.18160981E+04</pdfrwt>
<totfact> 0.83259957E+00</totfact>
</mgrwt>
</event>
<event>
 6    1  0.1028026E-006  0.2198562E+04  0.7818608E-02  0.8519027E-01
          2   -1    0    0  501    0  0.00000000000E+00  0.00000000000E+00  0.12538978865E+04  0.12538978865E+04  0.00000000000E+00 0. -1.
         -2   -1    0    0    0  501 -0.00000000000E+00 -0.00000000000E+00 -0.96373010735E+03  0.96373010735E+03  0.00000000000E+00 0.  1.
         23    2    1    2    0    0  0.47429961413E+03 -0.15081064516E+03 -0.84164395314E+03  0.98122119510E+03  0.82015335098E+02 0.  0.
         11    1    3    3    0    0  0.14347524479E+03 -0.85792871176E+02 -0.27036168638E+03  0.31786947647E+03  0.00000000000E+00 0.  1.
        -11    1    3    3    0    0  0.33082436935E+03 -0.65017773986E+02 -0.57128226676E+03  0.66335171863E+03  0.00000000000E+00 0. -1.
         22    1    1    2    0    0 -0.47429961413E+03  0.15081064516E+03  0.11318117323E+04  0.12364067987E+04  0.00000000000E+00 0. -1.
<mgrwt>
<rscale>  0 0.21985624E+04</rscale>
<asrwt>0</asrwt>
<pdfrwt beam="1">  1        2 0.19290737E+00 0.21985624E+04</pdfrwt>
<pdfrwt beam="2">  1       -2 0.14826617E+00 0.21985624E+04</pdfrwt>
<totfact> 0.49703072E+00</totfact>
</mgrwt>
</event>
<event>
 6    1  0.1028026E-006  0.1138213E+04  0.7818608E-02  0.9168726E-01
          2   -1    0    0  501    0  0.00000000000E+00  0.00000000000E+00  0.43558158870E+03  0.43558158870E+03  0.00000000000E+00 0. -1.
         -2   -1    0    0    0  501 -0.00000000000E+00 -0.00000000000E+00 -0.74356326760E+03  0.74356326760E+03  0.00000000000E+00 0.  1.
         23    2    1    2    0    0  0.35786991349E+02  0.56094053381E+03 -0.90651062616E+02  0.57651098072E+03  0.90621766266E+02 0.  0.
         11    1    3    3    0    0  0.37397134485E+02  0.17037889575E+03 -0.61113593409E+02  0.18483069303E+03  0.00000000000E+00 0.  1.
        -11    1    3    3    0    0 -0.16101431357E+01  0.39056163806E+03 -0.29537469207E+02  0.39168028770E+03  0.00000000000E+00 0. -1.
         22    1    1    2    0    0 -0.35786991349E+02 -0.56094053381E+03 -0.21733061628E+03  0.60263387558E+03  0.00000000000E+00 0.  1.
<mgrwt>
<rscale>  0 0.11382135E+04</rscale>
<asrwt>0</asrwt>
<pdfrwt beam="1">  1        2 0.67012553E-01 0.11382135E+04</pdfrwt>
<pdfrwt beam="2">  1       -2 0.11439435E+00 0.11382135E+04</pdfrwt>
<totfact> 0.42703285E+01</totfact>
</mgrwt>
</event>
<event>
 6    1  0.1028026E-006  0.1824651E+04  0.7818608E-02  0.8693299E-01
          2   -1    0    0  501    0  0.00000000000E+00  0.00000000000E+00  0.10102729044E+04  0.10102729044E+04  0.00000000000E+00 0. -1.
         -2   -1    0    0    0  501 -0.00000000000E+00 -0.00000000000E+00 -0.82387400318E+03  0.82387400318E+03  0.00000000000E+00 0.  1.
         23    2    1    2    0    0  0.12888727103E+02  0.52429212862E+03  0.84110127021E+03  0.99528842875E+03  0.89996412387E+02 0.  0.
         11    1    3    3    0    0 -0.16663057269E+02  0.48018894611E+02  0.49290401649E+02  0.70802651165E+02  0.00000000000E+00 0. -1.
        -11    1    3    3    0    0  0.29551784373E+02  0.47627323401E+03  0.79181086856E+03  0.92448577759E+03  0.00000000000E+00 0.  1.
         22    1    1    2    0    0 -0.12888727103E+02 -0.52429212862E+03 -0.65470236903E+03  0.83885847879E+03  0.00000000000E+00 0.  1.
<mgrwt>
<rscale>  0 0.18246507E+04</rscale>
<asrwt>0</asrwt>
<pdfrwt beam="1">  1        2 0.15542660E+00 0.18246507E+04</pdfrwt>
<pdfrwt beam="2">  1       -2 0.12674985E+00 0.18246507E+04</pdfrwt>
<totfact> 0.10823068E+01</totfact>
</mgrwt>
</event>
<event>
 6    1  0.1028026E-006  0.2541695E+04  0.7818608E-02  0.8388280E-01
         -2   -1    0    0    0  501 -0.00000000000E+00  0.00000000000E+00  0.12000390571E+04  0.12000390571E+04  0.00000000000E+00 0.  1.
          2   -1    0    0  501    0  0.00000000000E+00 -0.00000000000E+00 -0.13458343056E+04  0.13458343056E+04  0.00000000000E+00 0. -1.
         23    2    1    2    0    0 -0.67694736359E+03  0.10626079122E+04 -0.22713866662E+03  0.12833322506E+04  0.89198562689E+02 0.  0.
         13    1    3    3    0    0 -0.63174345083E+03  0.94515567402E+03 -0.21381382069E+03  0.11567780192E+04  0.00000000000E+00 0.  1.
        -13    1    3    3    0    0 -0.45203912756E+02  0.11745223814E+03 -0.13324845925E+02  0.12655423143E+03  0.00000000000E+00 0. -1.
         22    1    1    2    0    0  0.67694736359E+03 -0.10626079122E+04  0.81343418109E+02  0.12625411121E+04  0.00000000000E+00 0.  1.
<mgrwt>
<rscale>  0 0.25416953E+04</rscale>
<asrwt>0</asrwt>
<pdfrwt beam="1">  1        2 0.20705143E+00 0.25416953E+04</pdfrwt>
<pdfrwt beam="2">  1       -2 0.18462139E+00 0.25416953E+04</pdfrwt>
<totfact> 0.23294499E+00</totfact>
</mgrwt>
</event>
<event>
 6    1  0.1028026E-006  0.9159268E+03  0.7818608E-02  0.9405888E-01
         -2   -1    0    0    0  501 -0.00000000000E+00  0.00000000000E+00  0.56238489550E+03  0.56238489550E+03  0.00000000000E+00 0.  1.
          2   -1    0    0  501    0  0.00000000000E+00 -0.00000000000E+00 -0.37293046515E+03  0.37293046515E+03  0.00000000000E+00 0. -1.
         23    2    1    2    0    0 -0.90976265109E+02 -0.77041675037E+02  0.54213755048E+03  0.56302853072E+03  0.94212006998E+02 0.  0.
         13    1    3    3    0    0 -0.23195678424E+02 -0.79512685417E+02  0.33409598281E+03  0.34420986675E+03  0.00000000000E+00 0. -1.
        -13    1    3    3    0    0 -0.67780586685E+02  0.24710103799E+01  0.20804156767E+03  0.21881866397E+03  0.00000000000E+00 0.  1.
         22    1    1    2    0    0  0.90976265109E+02  0.77041675037E+02 -0.35268312013E+03  0.37228682992E+03  0.00000000000E+00 0. -1.
<mgrwt>
<rscale>  0 0.91592677E+03</rscale>
<asrwt>0</asrwt>
<pdfrwt beam="1">  1        2 0.57373918E-01 0.91592677E+03</pdfrwt>
<pdfrwt beam="2">  1       -2 0.86520753E-01 0.91592677E+03</pdfrwt>
<totfact> 0.99877940E+01</totfact>
</mgrwt>
</event>
<event>
 6    1  0.1028026E-006  0.1649525E+04  0.7818608E-02  0.8790688E-01
         -2   -1    0    0    0  501 -0.00000000000E+00  0.00000000000E+00  0.38383622176E+03  0.38383622176E+03  0.00000000000E+00 0.  1.
          2   -1    0    0  501    0  0.00000000000E+00 -0.00000000000E+00 -0.17721954010E+04  0.17721954010E+04  0.00000000000E+00 0. -1.
         23    2    1    2    0    0 -0.65127335571E+03 -0.50143948186E+03 -0.67143431277E+03  0.10653530257E+04  0.92490514300E+02 0.  0.
         13    1    3    3    0    0 -0.22401758412E+03 -0.20233773195E+03 -0.29562004748E+03  0.42251112203E+03  0.00000000000E+00 0.  1.
        -13    1    3    3    0    0 -0.42725577158E+03 -0.29910174992E+03 -0.37581426529E+03  0.64284190370E+03  0.00000000000E+00 0. -1.
         22    1    1    2    0    0  0.65127335571E+03  0.50143948186E+03 -0.71692486645E+03  0.10906785970E+04  0.00000000000E+00 0.  1.
<mgrwt>
<rscale>  0 0.16495245E+04</rscale>
<asrwt>0</asrwt>
<pdfrwt beam="1">  1        2 0.27264545E+00 0.16495245E+04</pdfrwt>
<pdfrwt beam="2">  1       -2 0.59051726E-01 0.16495245E+04</pdfrwt>
<totfact> 0.22877163E+01</totfact>
</mgrwt>
</event>
<event>
 6    1  0.1028026E-006  0.1434901E+04  0.7818608E-02  0.8928936E-01
         -1   -1    0    0    0  501 -0.00000000000E+00  0.00000000000E+00  0.38075119481E+03  0.38075119481E+03  0.00000000000E+00 0.  1.
          1   -1    0    0  501    0  0.00000000000E+00 -0.00000000000E+00 -0.13518938001E+04  0.13518938001E+04  0.00000000000E+00 0. -1.
         23    2    1    2    0    0 -0.14675362588E+02  0.48043382349E+03 -0.11259631299E+04  0.12276683421E+04  0.91348582047E+02 0.  0.
         11    1    3    3    0    0  0.21991531400E+02  0.29134447232E+03 -0.59538597524E+03  0.66321164685E+03  0.00000000000E+00 0. -1.
        -11    1    3    3    0    0 -0.36666893988E+02  0.18908935117E+03 -0.53057715462E+03  0.56445669528E+03  0.00000000000E+00 0.  1.
         22    1    1    2    0    0  0.14675362588E+02 -0.48043382349E+03  0.15482052458E+03  0.50497665278E+03  0.00000000000E+00 0.  1.
<mgrwt>
<rscale>  0 0.14349009E+04</rscale>
<asrwt>0</asrwt>
<pdfrwt beam="1">  1        1 0.20798366E+00 0.14349009E+04</pdfrwt>
<pdfrwt beam="2">  1       -1 0.58577106E-01 0.14349009E+04</pdfrwt>
<totfact> 0.23857095E+01</totfact>
</mgrwt>
</event>
<event>
 6    1  0.1028026E-006  0.2921125E+04  0.7818608E-02  0.8266620E-01
          2   -1    0    0  501    0  0.00000000000E+00  0.00000000000E+00  0.21506977968E+04  0.21506977968E+04  0.00000000000E+00 0. -1.
         -2   -1    0    0    0  501 -0.00000000000E+00 -0.00000000000E+00 -0.99188425280E+03  0.99188425280E+03  0.00000000000E+00 0.  1.
         23    2    1    2    0    0  0.34831440042E+02 -0.13152496475E+04  0.12587923308E+04  0.18230781192E+04  0.89223495533E+02 0.  0.
         11    1    3    3    0    0  0.27027080723E+02 -0.50165089761E+03  0.53798877976E+03  0.73608152627E+03  0.00000000000E+00 0. -1.
        -11    1    3    3    0    0  0.78043593192E+01 -0.81359874992E+03  0.72080355101E+03  0.10869965929E+04  0.00000000000E+00 0.  1.
         22    1    1    2    0    0 -0.34831440042E+02  0.13152496475E+04 -0.99978786779E+02  0.13195039304E+04  0.00000000000E+00 0.  1.
<mgrwt>
<rscale>  0 0.29211253E+04</rscale>
<asrwt>0</asrwt>
<pdfrwt beam="1">  1        2 0.33087658E+00 0.29211253E+04</pdfrwt>
<pdfrwt beam="2">  1       -2 0.15259758E+00 0.29211253E+04</pdfrwt>
<totfact> 0.13573639E+00</totfact>
</mgrwt>
</event>
<event>
 6    1  0.1028026E-006  0.1275446E+04  0.7818608E-02  0.9049267E-01
          2   -1    0    0  501    0  0.00000000000E+00  0.00000000000E+00  0.13591993783E+04  0.13591993783E+04  0.00000000000E+00 0. -1.
         -2   -1    0    0    0  501 -0.00000000000E+00 -0.00000000000E+00 -0.29921316420E+03  0.29921316420E+03  0.00000000000E+00 0.  1.
         23    2    1    2    0    0  0.25428793694E+03 -0.47364425600E+03  0.94943461228E+02  0.55373668463E+03  0.92783721373E+02 0.  0.
         13    1    3    3    0    0  0.88501576235E+02 -0.17354213699E+03 -0.10353699207E+02  0.19508101239E+03  0.00000000000E+00 0.  1.
        -13    1    3    3    0    0  0.16578636071E+03 -0.30010211901E+03  0.10529716044E+03  0.35865567224E+03  0.00000000000E+00 0. -1.
         22    1    1    2    0    0 -0.25428793694E+03  0.47364425600E+03  0.96504275290E+03  0.11046758579E+04  0.00000000000E+00 0. -1.
<mgrwt>
<rscale>  0 0.12754456E+04</rscale>
<asrwt>0</asrwt>
<pdfrwt beam="1">  1        2 0.20910759E+00 0.12754456E+04</pdfrwt>
<pdfrwt beam="2">  1       -2 0.46032795E-01 0.12754456E+04</pdfrwt>
<totfact> 0.67076697E+01</totfact>
</mgrwt>
</event>
<event>
 6    1  0.1028026E-006  0.1811539E+04  0.7818608E-02  0.8700187E-01
          2   -1    0    0  501    0  0.00000000000E+00  0.00000000000E+00  0.22527298763E+04  0.22527298763E+04  0.00000000000E+00 0. -1.
         -2   -1    0    0    0  501 -0.00000000000E+00 -0.00000000000E+00 -0.36418869936E+03  0.36418869936E+03  0.00000000000E+00 0.  1.
         23    2    1    2    0    0  0.15129804671E+03 -0.45548178967E+03  0.20524329945E+04  0.21097546106E+04  0.90711412450E+02 0.  0.
         11    1    3    3    0    0 -0.34128740061E+00 -0.86172612174E+02  0.46291483911E+03  0.47086726774E+03  0.00000000000E+00 0. -1.
        -11    1    3    3    0    0  0.15163933411E+03 -0.36930917750E+03  0.15895181554E+04  0.16388873428E+04  0.00000000000E+00 0.  1.
         22    1    1    2    0    0 -0.15129804671E+03  0.45548178967E+03 -0.16389181751E+03  0.50716396511E+03  0.00000000000E+00 0.  1.
<mgrwt>
<rscale>  0 0.18115394E+04</rscale>
<asrwt>0</asrwt>
<pdfrwt beam="1">  1        2 0.34657382E+00 0.18115394E+04</pdfrwt>
<pdfrwt beam="2">  1       -2 0.56029032E-01 0.18115394E+04</pdfrwt>
<totfact> 0.13608889E+01</totfact>
</mgrwt>
</event>
<event>
 6    1  0.1028026E-006  0.1956387E+04  0.7818608E-02  0.8627287E-01
         -1   -1    0    0    0  501 -0.00000000000E+00  0.00000000000E+00  0.68429158844E+03  0.68429158844E+03  0.00000000000E+00 0.  1.
          1   -1    0    0  501    0  0.00000000000E+00 -0.00000000000E+00 -0.13983252315E+04  0.13983252315E+04  0.00000000000E+00 0. -1.
         23    2    1    2    0    0 -0.79294520605E+03 -0.55809464363E+03 -0.23775344363E+03  0.10023045691E+04  0.88634181773E+02 0.  0.
         13    1    3    3    0    0 -0.78604239054E+02 -0.84456582089E+02 -0.12154977904E+02  0.11601415493E+03  0.00000000000E+00 0. -1.
        -13    1    3    3    0    0 -0.71434096699E+03 -0.47363806154E+03 -0.22559846572E+03  0.88629041414E+03  0.00000000000E+00 0.  1.
         22    1    1    2    0    0  0.79294520605E+03  0.55809464363E+03 -0.47628019947E+03  0.10803122509E+04  0.00000000000E+00 0. -1.
<mgrwt>
<rscale>  0 0.19563867E+04</rscale>
<asrwt>0</asrwt>
<pdfrwt beam="1">  1        1 0.21512696E+00 0.19563867E+04</pdfrwt>
<pdfrwt beam="2">  1       -1 0.10527563E+00 0.19563867E+04</pdfrwt>
<totfact> 0.60697314E+00</totfact>
</mgrwt>
</event>
<event>
 6    1  0.1028026E-006  0.1602945E+04  0.7818608E-02  0.8818741E-01
          2   -1    0    0  501    0  0.00000000000E+00  0.00000000000E+00  0.16205606202E+04  0.16205606202E+04  0.00000000000E+00 0. -1.
         -2   -1    0    0    0  501 -0.00000000000E+00 -0.00000000000E+00 -0.39638015508E+03  0.39638015508E+03  0.00000000000E+00 0.  1.
         23    2    1    2    0    0  0.20240978193E+03 -0.57158513504E+03 -0.39526927357E+02  0.61528616011E+03  0.96619844870E+02 0.  0.
         11    1    3    3    0    0  0.67772608492E+02 -0.28590123265E+03 -0.55678737015E+02  0.29905311075E+03  0.00000000000E+00 0. -1.
        -11    1    3    3    0    0  0.13463717344E+03 -0.28568390239E+03  0.16151809659E+02  0.31623304937E+03  0.00000000000E+00 0.  1.
         22    1    1    2    0    0 -0.20240978193E+03  0.57158513504E+03  0.12637073925E+04  0.14016546152E+04  0.00000000000E+00 0. -1.
<mgrwt>
<rscale>  0 0.16029449E+04</rscale>
<asrwt>0</asrwt>
<pdfrwt beam="1">  1        2 0.24931701E+00 0.16029449E+04</pdfrwt>
<pdfrwt beam="2">  1       -2 0.60981563E-01 0.16029449E+04</pdfrwt>
<totfact> 0.26051041E+01</totfact>
</mgrwt>
</event>
<event>
 6    1  0.1028026E-006  0.1721665E+04  0.7818608E-02  0.8749104E-01
          2   -1    0    0  501    0  0.00000000000E+00  0.00000000000E+00  0.24133631059E+04  0.24133631059E+04  0.00000000000E+00 0. -1.
         -2   -1    0    0    0  501 -0.00000000000E+00 -0.00000000000E+00 -0.30705390838E+03  0.30705390838E+03  0.00000000000E+00 0.  1.
         23    2    1    2    0    0  0.56942977661E+03 -0.10589776965E+03  0.20573230418E+04  0.21391560991E+04  0.89140956054E+02 0.  0.
         11    1    3    3    0    0  0.43081456881E+03 -0.85483897360E+02  0.14091347943E+04  0.14759978177E+04  0.00000000000E+00 0.  1.
        -11    1    3    3    0    0  0.13861520780E+03 -0.20413872291E+02  0.64818824747E+03  0.66315828139E+03  0.00000000000E+00 0. -1.
         22    1    1    2    0    0 -0.56942977661E+03  0.10589776965E+03  0.48986155795E+02  0.58126091523E+03  0.00000000000E+00 0.  1.
<mgrwt>
<rscale>  0 0.17216650E+04</rscale>
<asrwt>0</asrwt>
<pdfrwt beam="1">  1        2 0.37128662E+00 0.17216650E+04</pdfrwt>
<pdfrwt beam="2">  1       -2 0.47239064E-01 0.17216650E+04</pdfrwt>
<totfact> 0.15777275E+01</totfact>
</mgrwt>
</event>
<event>
 6    1  0.1028026E-006  0.2637160E+04  0.7818608E-02  0.8355687E-01
         -2   -1    0    0    0  501 -0.00000000000E+00  0.00000000000E+00  0.64743756593E+03  0.64743756593E+03  0.00000000000E+00 0.  1.
          2   -1    0    0  501    0  0.00000000000E+00 -0.00000000000E+00 -0.26854379745E+04  0.26854379745E+04  0.00000000000E+00 0. -1.
         23    2    1    2    0    0  0.11634353220E+04 -0.61686699804E+03 -0.99189910767E+03  0.16510804954E+04  0.89979558418E+02 0.  0.
         11    1    3    3    0    0  0.71844710576E+03 -0.37158933420E+03 -0.66251358660E+03  0.10455472871E+04  0.00000000000E+00 0.  1.
        -11    1    3    3    0    0  0.44498821621E+03 -0.24527766384E+03 -0.32938552106E+03  0.60553320836E+03  0.00000000000E+00 0. -1.
         22    1    1    2    0    0 -0.11634353220E+04  0.61686699804E+03 -0.10461013009E+04  0.16817950450E+04  0.00000000000E+00 0.  1.
<mgrwt>
<rscale>  0 0.26371602E+04</rscale>
<asrwt>0</asrwt>
<pdfrwt beam="1">  1        2 0.41314430E+00 0.26371602E+04</pdfrwt>
<pdfrwt beam="2">  1       -2 0.99605780E-01 0.26371602E+04</pdfrwt>
<totfact> 0.19913828E+00</totfact>
</mgrwt>
</event>
<event>
 6    1  0.1028026E-006  0.1145642E+04  0.7818608E-02  0.9161814E-01
          1   -1    0    0  501    0  0.00000000000E+00  0.00000000000E+00  0.13804269370E+04  0.13804269370E+04  0.00000000000E+00 0. -1.
         -1   -1    0    0    0  501 -0.00000000000E+00 -0.00000000000E+00 -0.23769727617E+03  0.23769727617E+03  0.00000000000E+00 0.  1.
         23    2    1    2    0    0  0.14434065974E+03 -0.38611932850E+03  0.11293010444E+04  0.12056891399E+04  0.91886295536E+02 0.  0.
         11    1    3    3    0    0  0.12110532327E+02 -0.34219977440E+01  0.79897747779E+02  0.80882786561E+02  0.00000000000E+00 0. -1.
        -11    1    3    3    0    0  0.13223012742E+03 -0.38269733076E+03  0.10494032966E+04  0.11248063533E+04  0.00000000000E+00 0.  1.
         22    1    1    2    0    0 -0.14434065974E+03  0.38611932850E+03  0.13428616403E+02  0.41243507324E+03  0.00000000000E+00 0.  1.
<mgrwt>
<rscale>  0 0.11456417E+04</rscale>
<asrwt>0</asrwt>
<pdfrwt beam="1">  1        1 0.21237337E+00 0.11456417E+04</pdfrwt>
<pdfrwt beam="2">  1       -1 0.36568813E-01 0.11456417E+04</pdfrwt>
<totfact> 0.56468096E+01</totfact>
</mgrwt>
</event>
<event>
 6    1  0.1028026E-006  0.5074362E+04  0.7818608E-02  0.7817137E-01
          1   -1    0    0  501    0  0.00000000000E+00  0.00000000000E+00  0.35328787629E+04  0.35328787629E+04  0.00000000000E+00 0. -1.
         -1   -1    0    0    0  501 -0.00000000000E+00 -0.00000000000E+00 -0.18221084145E+04  0.18221084145E+04  0.00000000000E+00 0.  1.
         23    2    1    2    0    0  0.18154878961E+04 -0.30112794885E+03  0.26976053731E+04  0.32668019106E+04  0.90805460651E+02 0.  0.
         13    1    3    3    0    0  0.14981471401E+04 -0.27416065032E+03  0.22712088895E+04  0.27345929743E+04  0.00000000000E+00 0.  1.
        -13    1    3    3    0    0  0.31734075606E+03 -0.26967298532E+02  0.42639648361E+03  0.53220893630E+03  0.00000000000E+00 0. -1.
         22    1    1    2    0    0 -0.18154878961E+04  0.30112794885E+03 -0.98683502475E+03  0.20881852668E+04  0.00000000000E+00 0.  1.
<mgrwt>
<rscale>  0 0.50743623E+04</rscale>
<asrwt>0</asrwt>
<pdfrwt beam="1">  1        1 0.54351981E+00 0.50743623E+04</pdfrwt>
<pdfrwt beam="2">  1       -1 0.28032437E+00 0.50743623E+04</pdfrwt>
<totfact> 0.74729199E-03</totfact>
</mgrwt>
</event>
<event>
 6    1  0.1028026E-006  0.1504091E+04  0.7818608E-02  0.8881737E-01
         -2   -1    0    0    0  501 -0.00000000000E+00  0.00000000000E+00  0.75030828313E+03  0.75030828313E+03  0.00000000000E+00 0.  1.
          2   -1    0    0  501    0  0.00000000000E+00 -0.00000000000E+00 -0.75378634419E+03  0.75378634419E+03  0.00000000000E+00 0. -1.
         23    2    1    2    0    0  0.39863625065E+03  0.99169625897E+01  0.63260641110E+03  0.75335321897E+03  0.91329046206E+02 0.  0.
         11    1    3    3    0    0  0.32606843178E+03  0.41052664928E+02  0.53398626282E+03  0.62701457111E+03  0.00000000000E+00 0.  1.
        -11    1    3    3    0    0  0.72567818867E+02 -0.31135702338E+02  0.98620148281E+02  0.12633864786E+03  0.00000000000E+00 0. -1.
         22    1    1    2    0    0 -0.39863625065E+03 -0.99169625897E+01 -0.63608447216E+03  0.75074140835E+03  0.00000000000E+00 0. -1.
<mgrwt>
<rscale>  0 0.15040906E+04</rscale>
<asrwt>0</asrwt>
<pdfrwt beam="1">  1        2 0.11596713E+00 0.15040906E+04</pdfrwt>
<pdfrwt beam="2">  1       -2 0.11543204E+00 0.15040906E+04</pdfrwt>
<totfact> 0.21024382E+01</totfact>
</mgrwt>
</event>
<event>
 6    1  0.1028026E-006  0.7828572E+03  0.7818608E-02  0.9585168E-01
          2   -1    0    0  501    0  0.00000000000E+00  0.00000000000E+00  0.10482212121E+04  0.10482212121E+04  0.00000000000E+00 0. -1.
         -2   -1    0    0    0  501 -0.00000000000E+00 -0.00000000000E+00 -0.14616794092E+03  0.14616794092E+03  0.00000000000E+00 0.  1.
         23    2    1    2    0    0  0.24559375223E+03 -0.11180614925E+03  0.35886781124E+02  0.28716189670E+03  0.91417655367E+02 0.  0.
         13    1    3    3    0    0  0.32510910930E+02 -0.45028273879E+02  0.31431929848E+02  0.63815914880E+02  0.00000000000E+00 0. -1.
        -13    1    3    3    0    0  0.21308284130E+03 -0.66777875367E+02  0.44548512768E+01  0.22334598182E+03  0.00000000000E+00 0.  1.
         22    1    1    2    0    0 -0.24559375223E+03  0.11180614925E+03  0.86616649009E+03  0.90722725636E+03  0.00000000000E+00 0. -1.
<mgrwt>
<rscale>  0 0.78285717E+03</rscale>
<asrwt>0</asrwt>
<pdfrwt beam="1">  1        2 0.16126480E+00 0.78285717E+03</pdfrwt>
<pdfrwt beam="2">  1       -2 0.22487376E-01 0.78285717E+03</pdfrwt>
<totfact> 0.40918171E+02</totfact>
</mgrwt>
</event>
<event>
 6    1  0.1028026E-006  0.1616488E+04  0.7818608E-02  0.8810482E-01
         -2   -1    0    0    0  501 -0.00000000000E+00  0.00000000000E+00  0.62626999708E+03  0.62626999708E+03  0.00000000000E+00 0.  1.
          2   -1    0    0  501    0  0.00000000000E+00 -0.00000000000E+00 -0.10430939009E+04  0.10430939009E+04  0.00000000000E+00 0. -1.
         23    2    1    2    0    0 -0.68710139435E+03  0.42028712949E+03 -0.23063600623E+03  0.84267439728E+03  0.90319295490E+02 0.  0.
         13    1    3    3    0    0 -0.12682074867E+03  0.54890376949E+02 -0.69292303282E+02  0.15458938861E+03  0.00000000000E+00 0. -1.
        -13    1    3    3    0    0 -0.56028064568E+03  0.36539675254E+03 -0.16134370295E+03  0.68808500867E+03  0.00000000000E+00 0.  1.
         22    1    1    2    0    0  0.68710139435E+03 -0.42028712949E+03 -0.18618789757E+03  0.82668950068E+03  0.00000000000E+00 0.  1.
<mgrwt>
<rscale>  0 0.16164881E+04</rscale>
<asrwt>0</asrwt>
<pdfrwt beam="1">  1        2 0.16047598E+00 0.16164881E+04</pdfrwt>
<pdfrwt beam="2">  1       -2 0.96349232E-01 0.16164881E+04</pdfrwt>
<totfact> 0.20423173E+01</totfact>
</mgrwt>
</event>
<event>
 6    1  0.1028026E-006  0.2833854E+04  0.7818608E-02  0.8292835E-01
          2   -1    0    0  501    0  0.00000000000E+00  0.00000000000E+00  0.19460468504E+04  0.19460468504E+04  0.00000000000E+00 0. -1.
         -2   -1    0    0    0  501 -0.00000000000E+00 -0.00000000000E+00 -0.10316718518E+04  0.10316718518E+04  0.00000000000E+00 0.  1.
         23    2    1    2    0    0  0.41522864334E+03  0.13482222735E+04  0.57781783578E+03  0.15274122350E+04  0.94850193717E+02 0.  0.
         11    1    3    3    0    0  0.18255108114E+03  0.74622460042E+03  0.29907373726E+03  0.82439138266E+03  0.00000000000E+00 0. -1.
        -11    1    3    3    0    0  0.23267756220E+03  0.60199767309E+03  0.27874409852E+03  0.70302085234E+03  0.00000000000E+00 0.  1.
         22    1    1    2    0    0 -0.41522864334E+03 -0.13482222735E+04  0.33655716278E+03  0.14503064672E+04  0.00000000000E+00 0.  1.
<mgrwt>
<rscale>  0 0.28338537E+04</rscale>
<asrwt>0</asrwt>
<pdfrwt beam="1">  1        2 0.29939182E+00 0.28338537E+04</pdfrwt>
<pdfrwt beam="2">  1       -2 0.15871875E+00 0.28338537E+04</pdfrwt>
<totfact> 0.15996221E+00</totfact>
</mgrwt>
</event>
<event>
 6    1  0.1028026E-006  0.2994138E+04  0.7818608E-02  0.8245407E-01
          1   -1    0    0  501    0  0.00000000000E+00  0.00000000000E+00  0.14257370632E+04  0.14257370632E+04  0.00000000000E+00 0. -1.
         -1   -1    0    0    0  501 -0.00000000000E+00 -0.00000000000E+00 -0.15719697484E+04  0.15719697484E+04  0.00000000000E+00 0.  1.
         23    2    1    2    0    0 -0.47927543474E+03 -0.29680829044E+03 -0.14602262627E+04  0.15678889123E+04  0.90635530961E+02 0.  0.
         13    1    3    3    0    0 -0.21862698169E+03 -0.88488857027E+02 -0.66041918843E+03  0.70127137357E+03  0.00000000000E+00 0. -1.
        -13    1    3    3    0    0 -0.26064845304E+03 -0.20831943342E+03 -0.79980707425E+03  0.86661753873E+03  0.00000000000E+00 0.  1.
         22    1    1    2    0    0  0.47927543474E+03  0.29680829044E+03  0.13139935775E+04  0.14298178994E+04  0.00000000000E+00 0. -1.
<mgrwt>
<rscale>  0 0.29941380E+04</rscale>
<asrwt>0</asrwt>
<pdfrwt beam="1">  1        1 0.21934416E+00 0.29941380E+04</pdfrwt>
<pdfrwt beam="2">  1       -1 0.24184150E+00 0.29941380E+04</pdfrwt>
<totfact> 0.49478754E-01</totfact>
</mgrwt>
</event>
<event>
 6    1  0.1028026E-006  0.3029813E+04  0.7818608E-02  0.8235268E-01
          2   -1    0    0  501    0  0.00000000000E+00  0.00000000000E+00  0.28043483321E+04  0.28043483321E+04  0.00000000000E+00 0. -1.
         -2   -1    0    0    0  501 -0.00000000000E+00 -0.00000000000E+00 -0.81835117650E+03  0.81835117650E+03  0.00000000000E+00 0.  1.
         23    2    1    2    0    0 -0.11812982252E+04 -0.88740126528E+03  0.13892078691E+04  0.20292429027E+04  0.70581525683E+02 0.  0.
         13    1    3    3    0    0 -0.36147425553E+03 -0.30279643926E+03  0.47266562543E+03  0.66765418782E+03  0.00000000000E+00 0.  1.
        -13    1    3    3    0    0 -0.81982396969E+03 -0.58460482602E+03  0.91654224371E+03  0.13615887148E+04  0.00000000000E+00 0. -1.
         22    1    1    2    0    0  0.11812982252E+04  0.88740126528E+03  0.59678928643E+03  0.15934566059E+04  0.00000000000E+00 0.  1.
<mgrwt>
<rscale>  0 0.30298130E+04</rscale>
<asrwt>0</asrwt>
<pdfrwt beam="1">  1        2 0.43143820E+00 0.30298130E+04</pdfrwt>
<pdfrwt beam="2">  1       -2 0.12590018E+00 0.30298130E+04</pdfrwt>
<totfact> 0.92381899E-01</totfact>
</mgrwt>
</event>
<event>
 6    1  0.1028026E-006  0.2319677E+04  0.7818608E-02  0.8470203E-01
         -2   -1    0    0    0  501 -0.00000000000E+00  0.00000000000E+00  0.33676738505E+03  0.33676738505E+03  0.00000000000E+00 0.  1.
          2   -1    0    0  501    0  0.00000000000E+00 -0.00000000000E+00 -0.39945229344E+04  0.39945229344E+04  0.00000000000E+00 0. -1.
         23    2    1    2    0    0 -0.11506037877E+04  0.12410209614E+03 -0.19063307974E+04  0.22320573480E+04  0.93233521044E+02 0.  0.
         13    1    3    3    0    0 -0.10536028114E+04  0.13323573936E+03 -0.17113182471E+04  0.20140607710E+04  0.00000000000E+00 0. -1.
        -13    1    3    3    0    0 -0.97000976295E+02 -0.91336432187E+01 -0.19501255027E+03  0.21799657705E+03  0.00000000000E+00 0.  1.
         22    1    1    2    0    0  0.11506037877E+04 -0.12410209614E+03 -0.17514247520E+04  0.20992329714E+04  0.00000000000E+00 0. -1.
<mgrwt>
<rscale>  0 0.23196767E+04</rscale>
<asrwt>0</asrwt>
<pdfrwt beam="1">  1        2 0.61454194E+00 0.23196767E+04</pdfrwt>
<pdfrwt beam="2">  1       -2 0.51810371E-01 0.23196767E+04</pdfrwt>
<totfact> 0.11067527E+00</totfact>
</mgrwt>
</event>
<event>
 6    1  0.1028026E-006  0.3046796E+04  0.7818608E-02  0.8230493E-01
          1   -1    0    0  501    0  0.00000000000E+00  0.00000000000E+00  0.20375534248E+04  0.20375534248E+04  0.00000000000E+00 0. -1.
         -1   -1    0    0    0  501 -0.00000000000E+00 -0.00000000000E+00 -0.11389843940E+04  0.11389843940E+04  0.00000000000E+00 0.  1.
         23    2    1    2    0    0  0.11535983073E+04 -0.98960802110E+03  0.36613738491E+03  0.15660731195E+04  0.91735167603E+02 0.  0.
         13    1    3    3    0    0  0.25687451088E+03 -0.17294513584E+03  0.82844478822E+02  0.32055848455E+03  0.00000000000E+00 0. -1.
        -13    1    3    3    0    0  0.89672379644E+03 -0.81666288526E+03  0.28329290608E+03  0.12455146350E+04  0.00000000000E+00 0.  1.
         22    1    1    2    0    0 -0.11535983073E+04  0.98960802110E+03  0.53243164591E+03  0.16104646993E+04  0.00000000000E+00 0. -1.
<mgrwt>
<rscale>  0 0.30467961E+04</rscale>
<asrwt>0</asrwt>
<pdfrwt beam="1">  1        1 0.31346976E+00 0.30467961E+04</pdfrwt>
<pdfrwt beam="2">  1       -1 0.17522837E+00 0.30467961E+04</pdfrwt>
<totfact> 0.53670678E-01</totfact>
</mgrwt>
</event>
<event>
 6    1  0.1028026E-006  0.3676603E+04  0.7818608E-02  0.8073167E-01
          1   -1    0    0  501    0  0.00000000000E+00  0.00000000000E+00  0.30409138032E+04  0.30409138032E+04  0.00000000000E+00 0. -1.
         -1   -1    0    0    0  501 -0.00000000000E+00 -0.00000000000E+00 -0.11112951407E+04  0.11112951407E+04  0.00000000000E+00 0.  1.
         23    2    1    2    0    0 -0.13140476041E+04  0.98287363967E+03  0.18984919844E+04  0.25109501077E+04  0.88526442642E+02 0.  0.
         11    1    3    3    0    0 -0.14636542786E+03  0.14243408143E+03  0.25537272944E+03  0.32699470480E+03  0.00000000000E+00 0. -1.
        -11    1    3    3    0    0 -0.11676821763E+04  0.84043955824E+03  0.16431192549E+04  0.21839554029E+04  0.00000000000E+00 0.  1.
         22    1    1    2    0    0  0.13140476041E+04 -0.98287363967E+03  0.31126678160E+02  0.16412588362E+04  0.00000000000E+00 0.  1.
<mgrwt>
<rscale>  0 0.36766032E+04</rscale>
<asrwt>0</asrwt>
<pdfrwt beam="1">  1        1 0.46783289E+00 0.36766032E+04</pdfrwt>
<pdfrwt beam="2">  1       -1 0.17096848E+00 0.36766032E+04</pdfrwt>
<totfact> 0.10848270E-01</totfact>
</mgrwt>
</event>
<event>
 6    1  0.1028026E-006  0.2776713E+04  0.7818608E-02  0.8310535E-01
          2   -1    0    0  501    0  0.00000000000E+00  0.00000000000E+00  0.31008605001E+04  0.31008605001E+04  0.00000000000E+00 0. -1.
         -2   -1    0    0    0  501 -0.00000000000E+00 -0.00000000000E+00 -0.62161243439E+03  0.62161243439E+03  0.00000000000E+00 0.  1.
         23    2    1    2    0    0  0.67007053628E+03  0.99037567397E+03  0.21821898005E+04  0.24903681857E+04  0.10071184458E+03 0.  0.
         11    1    3    3    0    0  0.14233915563E+03  0.28959128979E+03  0.59613881655E+03  0.67786800998E+03  0.00000000000E+00 0.  1.
        -11    1    3    3    0    0  0.52773138065E+03  0.70078438418E+03  0.15860509840E+04  0.18125001757E+04  0.00000000000E+00 0. -1.
         22    1    1    2    0    0 -0.67007053628E+03 -0.99037567397E+03  0.29705826525E+03  0.12321047488E+04  0.00000000000E+00 0.  1.
<mgrwt>
<rscale>  0 0.27767128E+04</rscale>
<asrwt>0</asrwt>
<pdfrwt beam="1">  1        2 0.47705545E+00 0.27767128E+04</pdfrwt>
<pdfrwt beam="2">  1       -2 0.95632684E-01 0.27767128E+04</pdfrwt>
<totfact> 0.12019301E+00</totfact>
</mgrwt>
</event>
<event>
 6    1  0.1028026E-006  0.3085817E+04  0.7818608E-02  0.8219641E-01
         -2   -1    0    0    0  501 -0.00000000000E+00  0.00000000000E+00  0.10794169144E+04  0.10794169144E+04  0.00000000000E+00 0.  1.
          2   -1    0    0  501    0  0.00000000000E+00 -0.00000000000E+00 -0.22054192142E+04  0.22054192142E+04  0.00000000000E+00 0. -1.
         23    2    1    2    0    0  0.15397341927E+03  0.15024685589E+04 -0.89207874115E+03  0.17564906782E+04  0.91298617711E+02 0.  0.
         11    1    3    3    0    0  0.52749069327E+02  0.94189670140E+03 -0.56518098926E+03  0.10997187873E+04  0.00000000000E+00 0.  1.
        -11    1    3    3    0    0  0.10122434994E+03  0.56057185754E+03 -0.32689775189E+03  0.65677189090E+03  0.00000000000E+00 0. -1.
         22    1    1    2    0    0 -0.15397341927E+03 -0.15024685589E+04 -0.23392355868E+03  0.15283454504E+04  0.00000000000E+00 0. -1.
<mgrwt>
<rscale>  0 0.30858171E+04</rscale>
<asrwt>0</asrwt>
<pdfrwt beam="1">  1        2 0.33929526E+00 0.30858171E+04</pdfrwt>
<pdfrwt beam="2">  1       -2 0.16606414E+00 0.30858171E+04</pdfrwt>
<totfact> 0.99132701E-01</totfact>
</mgrwt>
</event>
<event>
 6    1  0.1028026E-006  0.1058600E+04  0.7818608E-02  0.9246510E-01
          3   -1    0    0  501    0  0.00000000000E+00  0.00000000000E+00  0.19222435281E+03  0.19222435281E+03  0.00000000000E+00 0. -1.
         -3   -1    0    0    0  501 -0.00000000000E+00 -0.00000000000E+00 -0.14574553775E+04  0.14574553775E+04  0.00000000000E+00 0.  1.
         23    2    1    2    0    0  0.44565666027E+03 -0.27209540558E+03 -0.54621615635E+03  0.76106949546E+03  0.90713388612E+02 0.  0.
         13    1    3    3    0    0  0.21555566719E+03 -0.91891773598E+02 -0.28611786686E+03  0.36982668569E+03  0.00000000000E+00 0.  1.
        -13    1    3    3    0    0  0.23010099308E+03 -0.18020363199E+03 -0.26009828949E+03  0.39124280976E+03  0.00000000000E+00 0. -1.
         22    1    1    2    0    0 -0.44565666027E+03  0.27209540558E+03 -0.71901486833E+03  0.88861023484E+03  0.00000000000E+00 0. -1.
<mgrwt>
<rscale>  0 0.10585999E+04</rscale>
<asrwt>0</asrwt>
<pdfrwt beam="1">  1        3 0.29572978E-01 0.10585999E+04</pdfrwt>
<pdfrwt beam="2">  1       -3 0.22422390E+00 0.10585999E+04</pdfrwt>
<totfact> 0.30308715E+00</totfact>
</mgrwt>
</event>
<event>
 6    1  0.1028026E-006  0.3441589E+04  0.7818608E-02  0.8127774E-01
         -2   -1    0    0    0  501 -0.00000000000E+00  0.00000000000E+00  0.14306123281E+04  0.14306123281E+04  0.00000000000E+00 0.  1.
          2   -1    0    0  501    0  0.00000000000E+00 -0.00000000000E+00 -0.20698367538E+04  0.20698367538E+04  0.00000000000E+00 0. -1.
         23    2    1    2    0    0 -0.37281434329E+02 -0.12239194529E+04  0.90813589405E+03  0.15272048771E+04  0.90968137536E+02 0.  0.
         11    1    3    3    0    0 -0.23690516020E+02 -0.18852693908E+03  0.10762276277E+03  0.21837194503E+03  0.00000000000E+00 0.  1.
        -11    1    3    3    0    0 -0.13590918309E+02 -0.10353925139E+04  0.80051313128E+03  0.13088329321E+04  0.00000000000E+00 0. -1.
         22    1    1    2    0    0  0.37281434329E+02  0.12239194529E+04 -0.15473603197E+04  0.19732442048E+04  0.00000000000E+00 0. -1.
<mgrwt>
<rscale>  0 0.34415892E+04</rscale>
<asrwt>0</asrwt>
<pdfrwt beam="1">  1        2 0.31843642E+00 0.34415892E+04</pdfrwt>
<pdfrwt beam="2">  1       -2 0.22009420E+00 0.34415892E+04</pdfrwt>
<totfact> 0.49779932E-01</totfact>
</mgrwt>
</event>
<event>
 6    1  0.1028026E-006  0.1110138E+04  0.7818608E-02  0.9195367E-01
         -1   -1    0    0    0  501 -0.00000000000E+00  0.00000000000E+00  0.25848131983E+03  0.25848131983E+03  0.00000000000E+00 0.  1.
          1   -1    0    0  501    0  0.00000000000E+00 -0.00000000000E+00 -0.11919680759E+04  0.11919680759E+04  0.00000000000E+00 0. -1.
         23    2    1    2    0    0  0.79581481840E+02  0.96102153457E+02 -0.11711497519E+04  0.11820233616E+04  0.10009320641E+03 0.  0.
         13    1    3    3    0    0  0.65401637177E+02  0.11557501388E+03 -0.89126421541E+03  0.90110313486E+03  0.00000000000E+00 0. -1.
        -13    1    3    3    0    0  0.14179844663E+02 -0.19472860418E+02 -0.27988553647E+03  0.28092022678E+03  0.00000000000E+00 0.  1.
         22    1    1    2    0    0 -0.79581481840E+02 -0.96102153457E+02  0.23766299586E+03  0.26842603404E+03  0.00000000000E+00 0.  1.
<mgrwt>
<rscale>  0 0.11101378E+04</rscale>
<asrwt>0</asrwt>
<pdfrwt beam="1">  1        1 0.18337971E+00 0.11101378E+04</pdfrwt>
<pdfrwt beam="2">  1       -1 0.39766356E-01 0.11101378E+04</pdfrwt>
<totfact> 0.66362195E+01</totfact>
</mgrwt>
</event>
<event>
 6    1  0.1028026E-006  0.1974136E+04  0.7818608E-02  0.8618809E-01
         -2   -1    0    0    0  501 -0.00000000000E+00  0.00000000000E+00  0.30787302938E+03  0.30787302938E+03  0.00000000000E+00 0.  1.
          2   -1    0    0  501    0  0.00000000000E+00 -0.00000000000E+00 -0.31646277273E+04  0.31646277273E+04  0.00000000000E+00 0. -1.
         23    2    1    2    0    0  0.73946507570E+03  0.59960796580E+03 -0.98713374077E+03  0.13744490809E+04  0.91317813194E+02 0.  0.
         13    1    3    3    0    0  0.21763274648E+03  0.13162041201E+03 -0.23413282424E+03  0.34569657878E+03  0.00000000000E+00 0. -1.
        -13    1    3    3    0    0  0.52183232921E+03  0.46798755379E+03 -0.75300091653E+03  0.10287525021E+04  0.00000000000E+00 0.  1.
         22    1    1    2    0    0 -0.73946507570E+03 -0.59960796580E+03 -0.18696209572E+04  0.20980516758E+04  0.00000000000E+00 0.  1.
<mgrwt>
<rscale>  0 0.19741363E+04</rscale>
<asrwt>0</asrwt>
<pdfrwt beam="1">  1        2 0.48686580E+00 0.19741363E+04</pdfrwt>
<pdfrwt beam="2">  1       -2 0.47365082E-01 0.19741363E+04</pdfrwt>
<totfact> 0.53966195E+00</totfact>
</mgrwt>
</event>
<event>
 6    1  0.1028026E-006  0.3264688E+04  0.7818608E-02  0.8171939E-01
          2   -1    0    0  501    0  0.00000000000E+00  0.00000000000E+00  0.26958109551E+04  0.26958109551E+04  0.00000000000E+00 0. -1.
         -2   -1    0    0    0  501 -0.00000000000E+00 -0.00000000000E+00 -0.98840252961E+03  0.98840252961E+03  0.00000000000E+00 0.  1.
         23    2    1    2    0    0  0.92330784302E+03 -0.13040501740E+04  0.48470318723E+03  0.16722362659E+04  0.91611789750E+02 0.  0.
         13    1    3    3    0    0  0.57413596877E+03 -0.81991118888E+03  0.34942191940E+03  0.10601802422E+04  0.00000000000E+00 0. -1.
        -13    1    3    3    0    0  0.34917187425E+03 -0.48413898513E+03  0.13528126783E+03  0.61205602368E+03  0.00000000000E+00 0.  1.
         22    1    1    2    0    0 -0.92330784302E+03  0.13040501740E+04  0.12227052383E+04  0.20119772188E+04  0.00000000000E+00 0. -1.
<mgrwt>
<rscale>  0 0.32646877E+04</rscale>
<asrwt>0</asrwt>
<pdfrwt beam="1">  1        2 0.41474014E+00 0.32646877E+04</pdfrwt>
<pdfrwt beam="2">  1       -2 0.15206193E+00 0.32646877E+04</pdfrwt>
<totfact> 0.64614105E-01</totfact>
</mgrwt>
</event>
<event>
 6    1  0.1028026E-006  0.9281315E+03  0.7818608E-02  0.9391083E-01
          1   -1    0    0  501    0  0.00000000000E+00  0.00000000000E+00  0.19283380492E+04  0.19283380492E+04  0.00000000000E+00 0. -1.
         -1   -1    0    0    0  501 -0.00000000000E+00 -0.00000000000E+00 -0.11168010611E+03  0.11168010611E+03  0.00000000000E+00 0.  1.
         23    2    1    2    0    0 -0.30366286901E+03 -0.18503432035E+03  0.28064954547E+03  0.46338546653E+03  0.97535047547E+02 0.  0.
         13    1    3    3    0    0 -0.15034253584E+03 -0.10981189916E+03  0.20403039503E+03  0.27620632393E+03  0.00000000000E+00 0.  1.
        -13    1    3    3    0    0 -0.15332033317E+03 -0.75222421182E+02  0.76619150430E+02  0.18717914260E+03  0.00000000000E+00 0. -1.
         22    1    1    2    0    0  0.30366286901E+03  0.18503432035E+03  0.15360083976E+04  0.15766326887E+04  0.00000000000E+00 0. -1.
<mgrwt>
<rscale>  0 0.92813145E+03</rscale>
<asrwt>0</asrwt>
<pdfrwt beam="1">  1        1 0.29666737E+00 0.92813145E+03</pdfrwt>
<pdfrwt beam="2">  1       -1 0.17181556E-01 0.92813145E+03</pdfrwt>
<totfact> 0.88858535E+01</totfact>
</mgrwt>
</event>
<event>
 6    1  0.1028026E-006  0.1277287E+04  0.7818608E-02  0.9047773E-01
         -1   -1    0    0    0  501 -0.00000000000E+00  0.00000000000E+00  0.85176259043E+03  0.85176259043E+03  0.00000000000E+00 0.  1.
          1   -1    0    0  501    0  0.00000000000E+00 -0.00000000000E+00 -0.47884907644E+03  0.47884907644E+03  0.00000000000E+00 0. -1.
         23    2    1    2    0    0 -0.61079400954E+03  0.12303932098E+03  0.31648397583E+03  0.70499813651E+03  0.93017573178E+02 0.  0.
         11    1    3    3    0    0 -0.86525137699E+02 -0.17761629821E+01  0.74701302327E+02  0.11432427029E+03  0.00000000000E+00 0. -1.
        -11    1    3    3    0    0 -0.52426887185E+03  0.12481548396E+03  0.24178267351E+03  0.59067386622E+03  0.00000000000E+00 0.  1.
         22    1    1    2    0    0  0.61079400954E+03 -0.12303932098E+03  0.56429538158E+02  0.62561353037E+03  0.00000000000E+00 0.  1.
<mgrwt>
<rscale>  0 0.12772873E+04</rscale>
<asrwt>0</asrwt>
<pdfrwt beam="1">  1        1 0.73669089E-01 0.12772873E+04</pdfrwt>
<pdfrwt beam="2">  1       -1 0.13104040E+00 0.12772873E+04</pdfrwt>
<totfact> 0.23016507E+01</totfact>
</mgrwt>
</event>
<event>
 6    1  0.1028026E-006  0.2450238E+04  0.7818608E-02  0.8420931E-01
          2   -1    0    0  501    0  0.00000000000E+00  0.00000000000E+00  0.29147528410E+04  0.29147528410E+04  0.00000000000E+00 0. -1.
         -2   -1    0    0    0  501 -0.00000000000E+00 -0.00000000000E+00 -0.51493800600E+03  0.51493800600E+03  0.00000000000E+00 0.  1.
         23    2    1    2    0    0 -0.37454266001E+02 -0.11129023487E+04  0.49223732565E+03  0.12208888156E+04  0.91200085089E+02 0.  0.
         13    1    3    3    0    0 -0.11530381417E+02 -0.33126796491E+03  0.19278468967E+03  0.38345449645E+03  0.00000000000E+00 0. -1.
        -13    1    3    3    0    0 -0.25923884584E+02 -0.78163438378E+03  0.29945263599E+03  0.83743431915E+03  0.00000000000E+00 0.  1.
         22    1    1    2    0    0  0.37454266001E+02  0.11129023487E+04  0.19075775094E+04  0.22088020314E+04  0.00000000000E+00 0. -1.
<mgrwt>
<rscale>  0 0.24502384E+04</rscale>
<asrwt>0</asrwt>
<pdfrwt beam="1">  1        2 0.44842351E+00 0.24502384E+04</pdfrwt>
<pdfrwt beam="2">  1       -2 0.79221233E-01 0.24502384E+04</pdfrwt>
<totfact> 0.24900529E+00</totfact>
</mgrwt>
</event>
<event>
 6    1  0.1028026E-006  0.1845614E+04  0.7818608E-02  0.8682412E-01
          1   -1    0    0  501    0  0.00000000000E+00  0.00000000000E+00  0.61185495625E+03  0.61185495625E+03  0.00000000000E+00 0. -1.
         -1   -1    0    0    0  501 -0.00000000000E+00 -0.00000000000E+00 -0.13917886440E+04  0.13917886440E+04  0.00000000000E+00 0.  1.
         23    2    1    2    0    0 -0.25080975591E+03 -0.68146573188E+03  0.22260324044E+03  0.76574967516E+03  0.97566823154E+02 0.  0.
         13    1    3    3    0    0 -0.15497452702E+03 -0.38720412296E+03  0.78581662315E+02  0.42440454111E+03  0.00000000000E+00 0. -1.
        -13    1    3    3    0    0 -0.95835228889E+02 -0.29426160891E+03  0.14402157812E+03  0.34134513405E+03  0.00000000000E+00 0.  1.
         22    1    1    2    0    0  0.25080975591E+03  0.68146573188E+03 -0.10025369282E+04  0.12378939251E+04  0.00000000000E+00 0.  1.
<mgrwt>
<rscale>  0 0.18456140E+04</rscale>
<asrwt>0</asrwt>
<pdfrwt beam="1">  1        1 0.94131533E-01 0.18456140E+04</pdfrwt>
<pdfrwt beam="2">  1       -1 0.21412133E+00 0.18456140E+04</pdfrwt>
<totfact> 0.37713016E+00</totfact>
</mgrwt>
</event>
<event>
 6    1  0.1028026E-006  0.2672844E+04  0.7818608E-02  0.8343870E-01
         -2   -1    0    0    0  501 -0.00000000000E+00  0.00000000000E+00  0.76335421216E+03  0.76335421216E+03  0.00000000000E+00 0.  1.
          2   -1    0    0  501    0  0.00000000000E+00 -0.00000000000E+00 -0.23397048246E+04  0.23397048246E+04  0.00000000000E+00 0. -1.
         23    2    1    2    0    0  0.11503380823E+04  0.63141292615E+02 -0.63112998266E+01  0.11556792665E+04  0.91050580101E+02 0.  0.
         13    1    3    3    0    0  0.11009061192E+03 -0.57416945743E+01 -0.24776225744E+02  0.11299013785E+03  0.00000000000E+00 0. -1.
        -13    1    3    3    0    0  0.10402474704E+04  0.68882987189E+02  0.18464925917E+02  0.10426891287E+04  0.00000000000E+00 0.  1.
         22    1    1    2    0    0 -0.11503380823E+04 -0.63141292615E+02 -0.15700393126E+04  0.19473797702E+04  0.00000000000E+00 0.  1.
<mgrwt>
<rscale>  0 0.26728438E+04</rscale>
<asrwt>0</asrwt>
<pdfrwt beam="1">  1        2 0.35995458E+00 0.26728438E+04</pdfrwt>
<pdfrwt beam="2">  1       -2 0.11743911E+00 0.26728438E+04</pdfrwt>
<totfact> 0.21192159E+00</totfact>
</mgrwt>
</event>
<event>
 6    1  0.1028026E-006  0.2033085E+04  0.7818608E-02  0.8591307E-01
         -2   -1    0    0    0  501 -0.00000000000E+00  0.00000000000E+00  0.47924980261E+03  0.47924980261E+03  0.00000000000E+00 0.  1.
          2   -1    0    0  501    0  0.00000000000E+00 -0.00000000000E+00 -0.21562002463E+04  0.21562002463E+04  0.00000000000E+00 0. -1.
         23    2    1    2    0    0  0.42745482087E+03 -0.38136197761E+03 -0.19256053142E+04  0.20109631984E+04  0.88671177134E+02 0.  0.
         11    1    3    3    0    0  0.12228705976E+03 -0.12289167656E+03 -0.72763757945E+03  0.74800597336E+03  0.00000000000E+00 0. -1.
        -11    1    3    3    0    0  0.30516776111E+03 -0.25847030105E+03 -0.11979677347E+04  0.12629572251E+04  0.00000000000E+00 0.  1.
         22    1    1    2    0    0 -0.42745482087E+03  0.38136197761E+03  0.24865487046E+03  0.62448685050E+03  0.00000000000E+00 0.  1.
<mgrwt>
<rscale>  0 0.20330849E+04</rscale>
<asrwt>0</asrwt>
<pdfrwt beam="1">  1        2 0.33172311E+00 0.20330849E+04</pdfrwt>
<pdfrwt beam="2">  1       -2 0.73730739E-01 0.20330849E+04</pdfrwt>
<totfact> 0.83971067E+00</totfact>
</mgrwt>
</event>
<event>
 6    1  0.1028026E-006  0.2925046E+04  0.7818608E-02  0.8265464E-01
          1   -1    0    0  501    0  0.00000000000E+00  0.00000000000E+00  0.10515758374E+04  0.10515758374E+04  0.00000000000E+00 0. -1.
         -1   -1    0    0    0  501 -0.00000000000E+00 -0.00000000000E+00 -0.20340654462E+04  0.20340654462E+04  0.00000000000E+00 0.  1.
         23    2    1    2    0    0  0.63521044484E+03 -0.42869450183E+03 -0.18040075538E+04  0.19621809955E+04  0.91867947440E+02 0.  0.
         13    1    3    3    0    0  0.27423750699E+03 -0.13967949846E+03 -0.65894591748E+03  0.72727319124E+03  0.00000000000E+00 0. -1.
        -13    1    3    3    0    0  0.36097293785E+03 -0.28901500338E+03 -0.11450616363E+04  0.12349078043E+04  0.00000000000E+00 0.  1.
         22    1    1    2    0    0 -0.63521044484E+03  0.42869450183E+03  0.82151794499E+03  0.11234602882E+04  0.00000000000E+00 0. -1.
<mgrwt>
<rscale>  0 0.29250464E+04</rscale>
<asrwt>0</asrwt>
<pdfrwt beam="1">  1        1 0.16178090E+00 0.29250464E+04</pdfrwt>
<pdfrwt beam="2">  1       -1 0.31293314E+00 0.29250464E+04</pdfrwt>
<totfact> 0.32164567E-01</totfact>
</mgrwt>
</event>
<event>
 6    1  0.1028026E-006  0.3279424E+04  0.7818608E-02  0.8168151E-01
          2   -1    0    0  501    0  0.00000000000E+00  0.00000000000E+00  0.19571859032E+04  0.19571859032E+04  0.00000000000E+00 0. -1.
         -2   -1    0    0    0  501 -0.00000000000E+00 -0.00000000000E+00 -0.13737356290E+04  0.13737356290E+04  0.00000000000E+00 0.  1.
         23    2    1    2    0    0  0.11506959458E+04 -0.25064162430E+03 -0.86503359737E+03  0.14640985868E+04  0.91537772227E+02 0.  0.
         11    1    3    3    0    0  0.89857977020E+03 -0.16109778300E+03 -0.64643328517E+03  0.11186036346E+04  0.00000000000E+00 0. -1.
        -11    1    3    3    0    0  0.25211617561E+03 -0.89543841303E+02 -0.21860031220E+03  0.34549495222E+03  0.00000000000E+00 0.  1.
         22    1    1    2    0    0 -0.11506959458E+04  0.25064162430E+03  0.14484838715E+04  0.18668229454E+04  0.00000000000E+00 0. -1.
<mgrwt>
<rscale>  0 0.32794243E+04</rscale>
<asrwt>0</asrwt>
<pdfrwt beam="1">  1        2 0.30110552E+00 0.32794243E+04</pdfrwt>
<pdfrwt beam="2">  1       -2 0.21134394E+00 0.32794243E+04</pdfrwt>
<totfact> 0.66284739E-01</totfact>
</mgrwt>
</event>
<event>
 6    1  0.1028026E-006  0.1469492E+04  0.7818608E-02  0.8904998E-01
         -1   -1    0    0    0  501 -0.00000000000E+00  0.00000000000E+00  0.69432782869E+03  0.69432782869E+03  0.00000000000E+00 0.  1.
          1   -1    0    0  501    0  0.00000000000E+00 -0.00000000000E+00 -0.77751718183E+03  0.77751718183E+03  0.00000000000E+00 0. -1.
         23    2    1    2    0    0 -0.14444579643E+03  0.58664470487E+02  0.67439337031E+03  0.69838674333E+03  0.92905958566E+02 0.  0.
         13    1    3    3    0    0 -0.15059807772E+03  0.31897557034E+02  0.57966205986E+03  0.59975439873E+03  0.00000000000E+00 0. -1.
        -13    1    3    3    0    0  0.61522812957E+01  0.26766913454E+02  0.94731310451E+02  0.98632344598E+02  0.00000000000E+00 0.  1.
         22    1    1    2    0    0  0.14444579643E+03 -0.58664470487E+02 -0.75758272345E+03  0.77345826719E+03  0.00000000000E+00 0. -1.
<mgrwt>
<rscale>  0 0.14694922E+04</rscale>
<asrwt>0</asrwt>
<pdfrwt beam="1">  1        1 0.11961803E+00 0.14694922E+04</pdfrwt>
<pdfrwt beam="2">  1       -1 0.10681967E+00 0.14694922E+04</pdfrwt>
<totfact> 0.18358768E+01</totfact>
</mgrwt>
</event>
<event>
 6    1  0.1028026E-006  0.3257436E+04  0.7818608E-02  0.8173811E-01
          1   -1    0    0  501    0  0.00000000000E+00  0.00000000000E+00  0.97378997578E+03  0.97378997578E+03  0.00000000000E+00 0. -1.
         -1   -1    0    0    0  501 -0.00000000000E+00 -0.00000000000E+00 -0.27241208314E+04  0.27241208314E+04  0.00000000000E+00 0.  1.
         23    2    1    2    0    0  0.88474939806E+03 -0.13619091748E+04 -0.75609132701E+03  0.17936812154E+04  0.89666660665E+02 0.  0.
         13    1    3    3    0    0  0.53791767813E+03 -0.83825886647E+03 -0.41566493414E+03  0.10792639590E+04  0.00000000000E+00 0. -1.
        -13    1    3    3    0    0  0.34683171994E+03 -0.52365030834E+03 -0.34042639288E+03  0.71441725648E+03  0.00000000000E+00 0.  1.
         22    1    1    2    0    0 -0.88474939806E+03  0.13619091748E+04 -0.99423952859E+03  0.19042295917E+04  0.00000000000E+00 0.  1.
<mgrwt>
<rscale>  0 0.32574355E+04</rscale>
<asrwt>0</asrwt>
<pdfrwt beam="1">  1        1 0.14981384E+00 0.32574355E+04</pdfrwt>
<pdfrwt beam="2">  1       -1 0.41909551E+00 0.32574355E+04</pdfrwt>
<totfact> 0.69807058E-02</totfact>
</mgrwt>
</event>
<event>
 6    1  0.1028026E-006  0.7491971E+03  0.7818608E-02  0.9636611E-01
         -2   -1    0    0    0  501 -0.00000000000E+00  0.00000000000E+00  0.57864552773E+03  0.57864552773E+03  0.00000000000E+00 0.  1.
          2   -1    0    0  501    0  0.00000000000E+00 -0.00000000000E+00 -0.24250435462E+03  0.24250435462E+03  0.00000000000E+00 0. -1.
         23    2    1    2    0    0 -0.26584818076E+02 -0.77894843883E+02  0.56441730077E+03  0.57848890543E+03  0.96478832090E+02 0.  0.
         11    1    3    3    0    0  0.16855102483E+02 -0.62855958154E+00  0.28163371366E+03  0.28213833173E+03  0.00000000000E+00 0. -1.
        -11    1    3    3    0    0 -0.43439920559E+02 -0.77266284302E+02  0.28278358712E+03  0.29635057370E+03  0.00000000000E+00 0.  1.
         22    1    1    2    0    0  0.26584818076E+02  0.77894843883E+02 -0.22827612767E+03  0.24266097692E+03  0.00000000000E+00 0. -1.
<mgrwt>
<rscale>  0 0.74919706E+03</rscale>
<asrwt>0</asrwt>
<pdfrwt beam="1">  1        2 0.37308362E-01 0.74919706E+03</pdfrwt>
<pdfrwt beam="2">  1       -2 0.89022389E-01 0.74919706E+03</pdfrwt>
<totfact> 0.15224598E+02</totfact>
</mgrwt>
</event>
<event>
 6    1  0.1028026E-006  0.4144094E+04  0.7818608E-02  0.7976093E-01
          2   -1    0    0  501    0  0.00000000000E+00  0.00000000000E+00  0.24794439362E+04  0.24794439362E+04  0.00000000000E+00 0. -1.
         -2   -1    0    0    0  501 -0.00000000000E+00 -0.00000000000E+00 -0.17315894222E+04  0.17315894222E+04  0.00000000000E+00 0.  1.
         23    2    1    2    0    0  0.10113932280E+04  0.11677995835E+04 -0.10274718258E+04  0.18576409684E+04  0.91975462043E+02 0.  0.
         13    1    3    3    0    0  0.84078755445E+03  0.98215763716E+03 -0.89850213344E+03  0.15744406689E+04  0.00000000000E+00 0. -1.
        -13    1    3    3    0    0  0.17060567354E+03  0.18564194637E+03 -0.12896969239E+03  0.28320029953E+03  0.00000000000E+00 0.  1.
         22    1    1    2    0    0 -0.10113932280E+04 -0.11677995835E+04  0.17753263398E+04  0.23533923901E+04  0.00000000000E+00 0. -1.
<mgrwt>
<rscale>  0 0.41440941E+04</rscale>
<asrwt>0</asrwt>
<pdfrwt beam="1">  1        2 0.38145292E+00 0.41440941E+04</pdfrwt>
<pdfrwt beam="2">  1       -2 0.26639837E+00 0.41440941E+04</pdfrwt>
<totfact> 0.14225305E-01</totfact>
</mgrwt>
</event>
<event>
 6    1  0.1028026E-006  0.2958946E+04  0.7818608E-02  0.8255552E-01
          2   -1    0    0  501    0  0.00000000000E+00  0.00000000000E+00  0.31938590930E+04  0.31938590930E+04  0.00000000000E+00 0. -1.
         -2   -1    0    0    0  501 -0.00000000000E+00 -0.00000000000E+00 -0.68532768910E+03  0.68532768910E+03  0.00000000000E+00 0.  1.
         23    2    1    2    0    0 -0.82676163132E+03 -0.12140968094E+04  0.14712419165E+04  0.20809834180E+04  0.91506020117E+02 0.  0.
         13    1    3    3    0    0 -0.56536393244E+03 -0.77352023364E+03  0.10002493194E+04  0.13850879499E+04  0.00000000000E+00 0. -1.
        -13    1    3    3    0    0 -0.26139769888E+03 -0.44057657581E+03  0.47099259708E+03  0.69589546818E+03  0.00000000000E+00 0.  1.
         22    1    1    2    0    0  0.82676163132E+03  0.12140968094E+04  0.10372894875E+04  0.17982033641E+04  0.00000000000E+00 0.  1.
<mgrwt>
<rscale>  0 0.29589458E+04</rscale>
<asrwt>0</asrwt>
<pdfrwt beam="1">  1        2 0.49136293E+00 0.29589458E+04</pdfrwt>
<pdfrwt beam="2">  1       -2 0.10543503E+00 0.29589458E+04</pdfrwt>
<totfact> 0.81761369E-01</totfact>
</mgrwt>
</event>
<event>
 6    1  0.1028026E-006  0.1782623E+04  0.7818608E-02  0.8715595E-01
          1   -1    0    0  501    0  0.00000000000E+00  0.00000000000E+00  0.53247622966E+03  0.53247622966E+03  0.00000000000E+00 0. -1.
         -1   -1    0    0    0  501 -0.00000000000E+00 -0.00000000000E+00 -0.14919662387E+04  0.14919662387E+04  0.00000000000E+00 0.  1.
         23    2    1    2    0    0 -0.58353135188E+03  0.51030098011E+03  0.13382812405E+02  0.78049815464E+03  0.89901839741E+02 0.  0.
         11    1    3    3    0    0 -0.13298452303E+03  0.96003481737E+02 -0.30594967701E+02  0.16684604856E+03  0.00000000000E+00 0. -1.
        -11    1    3    3    0    0 -0.45054682885E+03  0.41429749838E+03  0.43977780106E+02  0.61365210607E+03  0.00000000000E+00 0.  1.
         22    1    1    2    0    0  0.58353135188E+03 -0.51030098011E+03 -0.97287282147E+03  0.12439443137E+04  0.00000000000E+00 0.  1.
<mgrwt>
<rscale>  0 0.17826234E+04</rscale>
<asrwt>0</asrwt>
<pdfrwt beam="1">  1        1 0.81919419E-01 0.17826234E+04</pdfrwt>
<pdfrwt beam="2">  1       -1 0.22953327E+00 0.17826234E+04</pdfrwt>
<totfact> 0.36473419E+00</totfact>
</mgrwt>
</event>
<event>
 6    1  0.1028026E-006  0.1321557E+04  0.7818608E-02  0.9012642E-01
          1   -1    0    0  501    0  0.00000000000E+00  0.00000000000E+00  0.90285794374E+03  0.90285794374E+03  0.00000000000E+00 0. -1.
         -1   -1    0    0    0  501 -0.00000000000E+00 -0.00000000000E+00 -0.48360711939E+03  0.48360711939E+03  0.00000000000E+00 0.  1.
         23    2    1    2    0    0 -0.14017645247E+03  0.32987851973E+03  0.78808306832E+03  0.87216310922E+03  0.10547175404E+03 0.  0.
         13    1    3    3    0    0 -0.79376648166E+02  0.24513208917E+03  0.64930034632E+03  0.69855660697E+03  0.00000000000E+00 0. -1.
        -13    1    3    3    0    0 -0.60799804304E+02  0.84746430554E+02  0.13878272200E+03  0.17360650224E+03  0.00000000000E+00 0.  1.
         22    1    1    2    0    0  0.14017645247E+03 -0.32987851973E+03 -0.36883224397E+03  0.51430195391E+03  0.00000000000E+00 0.  1.
<mgrwt>
<rscale>  0 0.13215575E+04</rscale>
<asrwt>0</asrwt>
<pdfrwt beam="1">  1        1 0.13890122E+00 0.13215575E+04</pdfrwt>
<pdfrwt beam="2">  1       -1 0.74401095E-01 0.13215575E+04</pdfrwt>
<totfact> 0.32287984E+01</totfact>
</mgrwt>
</event>
<event>
 6    1  0.1028026E-006  0.2836208E+04  0.7818608E-02  0.8292115E-01
         -1   -1    0    0    0  501 -0.00000000000E+00  0.00000000000E+00  0.10837422729E+04  0.10837422729E+04  0.00000000000E+00 0.  1.
          1   -1    0    0  501    0  0.00000000000E+00 -0.00000000000E+00 -0.18556242606E+04  0.18556242606E+04  0.00000000000E+00 0. -1.
         23    2    1    2    0    0  0.13519297435E+04  0.17691058082E+03  0.11912020597E+02  0.13666795232E+04  0.93057174921E+02 0.  0.
         11    1    3    3    0    0  0.41143803018E+03  0.13225406618E+02  0.17732161449E+02  0.41203227254E+03  0.00000000000E+00 0. -1.
        -11    1    3    3    0    0  0.94049171333E+03  0.16368517421E+03 -0.58201408512E+01  0.95464725063E+03  0.00000000000E+00 0.  1.
         22    1    1    2    0    0 -0.13519297435E+04 -0.17691058082E+03 -0.78379400831E+03  0.15726870103E+04  0.00000000000E+00 0. -1.
<mgrwt>
<rscale>  0 0.28362076E+04</rscale>
<asrwt>0</asrwt>
<pdfrwt beam="1">  1        1 0.28548065E+00 0.28362076E+04</pdfrwt>
<pdfrwt beam="2">  1       -1 0.16672958E+00 0.28362076E+04</pdfrwt>
<totfact> 0.83846346E-01</totfact>
</mgrwt>
</event>
<event>
 6    1  0.1028026E-006  0.5824873E+04  0.7818608E-02  0.7712503E-01
         -1   -1    0    0    0  501 -0.00000000000E+00  0.00000000000E+00  0.41528192152E+04  0.41528192152E+04  0.00000000000E+00 0.  1.
          1   -1    0    0  501    0  0.00000000000E+00 -0.00000000000E+00 -0.20425371466E+04  0.20425371466E+04  0.00000000000E+00 0. -1.
         23    2    1    2    0    0  0.73367787360E+03  0.26037009036E+04  0.22013303959E+04  0.34887290480E+04  0.88505598145E+02 0.  0.
         13    1    3    3    0    0  0.34709260383E+03  0.12107418046E+04  0.96859556663E+03  0.15888821117E+04  0.00000000000E+00 0.  1.
        -13    1    3    3    0    0  0.38658526977E+03  0.13929590990E+04  0.12327348293E+04  0.18998469364E+04  0.00000000000E+00 0. -1.
         22    1    1    2    0    0 -0.73367787360E+03 -0.26037009036E+04 -0.91048327320E+02  0.27066273138E+04  0.00000000000E+00 0. -1.
<mgrwt>
<rscale>  0 0.58248734E+04</rscale>
<asrwt>0</asrwt>
<pdfrwt beam="1">  1        1 0.31423649E+00 0.58248734E+04</pdfrwt>
<pdfrwt beam="2">  1       -1 0.63889526E+00 0.58248734E+04</pdfrwt>
<totfact> 0.61339786E-04</totfact>
</mgrwt>
</event>
<event>
 6    1  0.1028026E-006  0.2813974E+04  0.7818608E-02  0.8298943E-01
          1   -1    0    0  501    0  0.00000000000E+00  0.00000000000E+00  0.10308677167E+04  0.10308677167E+04  0.00000000000E+00 0. -1.
         -1   -1    0    0    0  501 -0.00000000000E+00 -0.00000000000E+00 -0.19203363786E+04  0.19203363786E+04  0.00000000000E+00 0.  1.
         23    2    1    2    0    0 -0.12845385314E+04  0.31914781823E+03 -0.94171408909E+03  0.16265818271E+04  0.83955024878E+02 0.  0.
         13    1    3    3    0    0 -0.60734399985E+03  0.17397024176E+03 -0.49278013592E+03  0.80122696006E+03  0.00000000000E+00 0.  1.
        -13    1    3    3    0    0 -0.67719453158E+03  0.14517757647E+03 -0.44893395317E+03  0.82535486709E+03  0.00000000000E+00 0. -1.
         22    1    1    2    0    0  0.12845385314E+04 -0.31914781823E+03  0.52245427131E+02  0.13246222681E+04  0.00000000000E+00 0.  1.
<mgrwt>
<rscale>  0 0.28139743E+04</rscale>
<asrwt>0</asrwt>
<pdfrwt beam="1">  1        1 0.15859503E+00 0.28139743E+04</pdfrwt>
<pdfrwt beam="2">  1       -1 0.29543636E+00 0.28139743E+04</pdfrwt>
<totfact> 0.43763274E-01</totfact>
</mgrwt>
</event>
<event>
 6    1  0.1028026E-006  0.2259890E+04  0.7818608E-02  0.8493906E-01
         -2   -1    0    0    0  501 -0.00000000000E+00  0.00000000000E+00  0.83510161005E+03  0.83510161005E+03  0.00000000000E+00 0.  1.
          2   -1    0    0  501    0  0.00000000000E+00 -0.00000000000E+00 -0.15288865535E+04  0.15288865535E+04  0.00000000000E+00 0. -1.
         23    2    1    2    0    0  0.44843585635E+03 -0.12292156992E+03 -0.14225728941E+04  0.14995020117E+04  0.92672619107E+02 0.  0.
         13    1    3    3    0    0  0.11419292675E+03 -0.66663732496E+02 -0.32792896242E+03  0.35358376963E+03  0.00000000000E+00 0. -1.
        -13    1    3    3    0    0  0.33424292960E+03 -0.56257837427E+02 -0.10946439317E+04  0.11459182420E+04  0.00000000000E+00 0.  1.
         22    1    1    2    0    0 -0.44843585635E+03  0.12292156992E+03  0.72878795070E+03  0.86448615183E+03  0.00000000000E+00 0.  1.
<mgrwt>
<rscale>  0 0.22598899E+04</rscale>
<asrwt>0</asrwt>
<pdfrwt beam="1">  1        2 0.23521331E+00 0.22598899E+04</pdfrwt>
<pdfrwt beam="2">  1       -2 0.12847717E+00 0.22598899E+04</pdfrwt>
<totfact> 0.49768021E+00</totfact>
</mgrwt>
</event>
<event>
 6    1  0.1028026E-006  0.6153300E+04  0.7818608E-02  0.7671680E-01
          2   -1    0    0  501    0  0.00000000000E+00  0.00000000000E+00  0.30803598230E+04  0.30803598230E+04  0.00000000000E+00 0. -1.
         -2   -1    0    0    0  501 -0.00000000000E+00 -0.00000000000E+00 -0.30729446926E+04  0.30729446926E+04  0.00000000000E+00 0.  1.
         23    2    1    2    0    0 -0.22289095007E+04 -0.41717465739E+03  0.20819169046E+04  0.30799301701E+04  0.97568428994E+02 0.  0.
         11    1    3    3    0    0 -0.20564699964E+04 -0.40929367678E+03  0.19103346280E+04  0.28365416533E+04  0.00000000000E+00 0. -1.
        -11    1    3    3    0    0 -0.17243950425E+03 -0.78809806031E+01  0.17158227659E+03  0.24338851682E+03  0.00000000000E+00 0.  1.
         22    1    1    2    0    0  0.22289095007E+04  0.41717465739E+03 -0.20745017741E+04  0.30733743455E+04  0.00000000000E+00 0.  1.
<mgrwt>
<rscale>  0 0.61533000E+04</rscale>
<asrwt>0</asrwt>
<pdfrwt beam="1">  1        2 0.47390151E+00 0.61533000E+04</pdfrwt>
<pdfrwt beam="2">  1       -2 0.47276072E+00 0.61533000E+04</pdfrwt>
<totfact> 0.25531055E-03</totfact>
</mgrwt>
</event>
<event>
 6    1  0.1028026E-006  0.2302255E+04  0.7818608E-02  0.8477033E-01
          2   -1    0    0  501    0  0.00000000000E+00  0.00000000000E+00  0.15268541746E+04  0.15268541746E+04  0.00000000000E+00 0. -1.
         -2   -1    0    0    0  501 -0.00000000000E+00 -0.00000000000E+00 -0.86785924052E+03  0.86785924052E+03  0.00000000000E+00 0.  1.
         23    2    1    2    0    0 -0.58376588136E+03 -0.35472761614E+03  0.12913859167E+04  0.14638360651E+04  0.92326344728E+02 0.  0.
         11    1    3    3    0    0 -0.27075485676E+03 -0.12412413740E+03  0.62460308703E+03  0.69198555640E+03  0.00000000000E+00 0.  1.
        -11    1    3    3    0    0 -0.31301102461E+03 -0.23060347874E+03  0.66678282963E+03  0.77185050873E+03  0.00000000000E+00 0. -1.
         22    1    1    2    0    0  0.58376588136E+03  0.35472761614E+03 -0.63239098257E+03  0.93087735000E+03  0.00000000000E+00 0.  1.
<mgrwt>
<rscale>  0 0.23022550E+04</rscale>
<asrwt>0</asrwt>
<pdfrwt beam="1">  1        2 0.23490064E+00 0.23022550E+04</pdfrwt>
<pdfrwt beam="2">  1       -2 0.13351681E+00 0.23022550E+04</pdfrwt>
<totfact> 0.45099326E+00</totfact>
</mgrwt>
</event>
<event>
 6    1  0.1028026E-006  0.1728966E+04  0.7818608E-02  0.8745014E-01
         -2   -1    0    0    0  501 -0.00000000000E+00  0.00000000000E+00  0.52842697128E+03  0.52842697128E+03  0.00000000000E+00 0.  1.
          2   -1    0    0  501    0  0.00000000000E+00 -0.00000000000E+00 -0.14142560905E+04  0.14142560905E+04  0.00000000000E+00 0. -1.
         23    2    1    2    0    0 -0.36607915779E+03 -0.73582537541E+03 -0.73849649848E+03  0.11077220843E+04  0.78855595186E+02 0.  0.
         11    1    3    3    0    0 -0.31321911204E+03 -0.58769430050E+03 -0.56282074741E+03  0.87192774741E+03  0.00000000000E+00 0.  1.
        -11    1    3    3    0    0 -0.52860045744E+02 -0.14813107491E+03 -0.17567575107E+03  0.23579433688E+03  0.00000000000E+00 0. -1.
         22    1    1    2    0    0  0.36607915779E+03  0.73582537541E+03 -0.14733262077E+03  0.83496097753E+03  0.00000000000E+00 0. -1.
<mgrwt>
<rscale>  0 0.17289662E+04</rscale>
<asrwt>0</asrwt>
<pdfrwt beam="1">  1        2 0.21757786E+00 0.17289662E+04</pdfrwt>
<pdfrwt beam="2">  1       -2 0.81296457E-01 0.17289662E+04</pdfrwt>
<totfact> 0.17973943E+01</totfact>
</mgrwt>
</event>
<event>
 6    1  0.1028026E-006  0.3374978E+04  0.7818608E-02  0.8144075E-01
          2   -1    0    0  501    0  0.00000000000E+00  0.00000000000E+00  0.13821695353E+04  0.13821695353E+04  0.00000000000E+00 0. -1.
         -2   -1    0    0    0  501 -0.00000000000E+00 -0.00000000000E+00 -0.20602528949E+04  0.20602528949E+04  0.00000000000E+00 0.  1.
         23    2    1    2    0    0 -0.77451163385E+02  0.39385781982E+03  0.13312019376E+04  0.13934348582E+04  0.91866427775E+02 0.  0.
         11    1    3    3    0    0 -0.76264427293E+02  0.15633270077E+03  0.53627602150E+03  0.56378022973E+03  0.00000000000E+00 0.  1.
        -11    1    3    3    0    0 -0.11867360920E+01  0.23752511905E+03  0.79492591605E+03  0.82965462847E+03  0.00000000000E+00 0. -1.
         22    1    1    2    0    0  0.77451163385E+02 -0.39385781982E+03 -0.20092852972E+04  0.20489875720E+04  0.00000000000E+00 0.  1.
<mgrwt>
<rscale>  0 0.33749778E+04</rscale>
<asrwt>0</asrwt>
<pdfrwt beam="1">  1        2 0.21264147E+00 0.33749778E+04</pdfrwt>
<pdfrwt beam="2">  1       -2 0.31696198E+00 0.33749778E+04</pdfrwt>
<totfact> 0.30742141E-01</totfact>
</mgrwt>
</event>
<event>
 6    1  0.1028026E-006  0.2408454E+04  0.7818608E-02  0.8436345E-01
          1   -1    0    0  501    0  0.00000000000E+00  0.00000000000E+00  0.23842655298E+04  0.23842655298E+04  0.00000000000E+00 0. -1.
         -1   -1    0    0    0  501 -0.00000000000E+00 -0.00000000000E+00 -0.60822220890E+03  0.60822220890E+03  0.00000000000E+00 0.  1.
         23    2    1    2    0    0  0.75635122713E+03  0.76355414930E+02  0.20471143179E+04  0.21854085520E+04  0.86233291790E+02 0.  0.
         13    1    3    3    0    0  0.29103276107E+03 -0.12669669317E+02  0.78306807007E+03  0.83549757085E+03  0.00000000000E+00 0.  1.
        -13    1    3    3    0    0  0.46531846606E+03  0.89025084247E+02  0.12640462478E+04  0.13499109812E+04  0.00000000000E+00 0. -1.
         22    1    1    2    0    0 -0.75635122713E+03 -0.76355414930E+02 -0.27107099697E+03  0.80707918668E+03  0.00000000000E+00 0.  1.
<mgrwt>
<rscale>  0 0.24084545E+04</rscale>
<asrwt>0</asrwt>
<pdfrwt beam="1">  1        1 0.36681008E+00 0.24084545E+04</pdfrwt>
<pdfrwt beam="2">  1       -1 0.93572649E-01 0.24084545E+04</pdfrwt>
<totfact> 0.16153469E+00</totfact>
</mgrwt>
</event>
<event>
 6    1  0.1028026E-006  0.1863990E+04  0.7818608E-02  0.8672991E-01
         -3   -1    0    0    0  501 -0.00000000000E+00  0.00000000000E+00  0.90452905128E+03  0.90452905128E+03  0.00000000000E+00 0.  1.
          3   -1    0    0  501    0  0.00000000000E+00 -0.00000000000E+00 -0.96029516140E+03  0.96029516140E+03  0.00000000000E+00 0. -1.
         23    2    1    2    0    0  0.82082748360E+03 -0.79148202007E+02 -0.45786309700E+03  0.94737983694E+03  0.88700305179E+02 0.  0.
         11    1    3    3    0    0  0.56589649787E+03 -0.39177188832E+02 -0.27023541790E+03  0.62833182277E+03  0.00000000000E+00 0. -1.
        -11    1    3    3    0    0  0.25493098573E+03 -0.39971013175E+02 -0.18762767910E+03  0.31904801417E+03  0.00000000000E+00 0.  1.
         22    1    1    2    0    0 -0.82082748360E+03  0.79148202007E+02  0.40209698689E+03  0.91744437574E+03  0.00000000000E+00 0. -1.
<mgrwt>
<rscale>  0 0.18639902E+04</rscale>
<asrwt>0</asrwt>
<pdfrwt beam="1">  1        3 0.14773772E+00 0.18639902E+04</pdfrwt>
<pdfrwt beam="2">  1       -3 0.13915832E+00 0.18639902E+04</pdfrwt>
<totfact> 0.32325870E-01</totfact>
</mgrwt>
</event>
<event>
 6    1  0.1028026E-006  0.1306798E+04  0.7818608E-02  0.9024192E-01
         -1   -1    0    0    0  501 -0.00000000000E+00  0.00000000000E+00  0.14594575447E+04  0.14594575447E+04  0.00000000000E+00 0.  1.
          1   -1    0    0  501    0  0.00000000000E+00 -0.00000000000E+00 -0.29252668736E+03  0.29252668736E+03  0.00000000000E+00 0. -1.
         23    2    1    2    0    0  0.29122955718E+03  0.44951091605E+03  0.92388608627E+02  0.55135283030E+03  0.92625967468E+02 0.  0.
         13    1    3    3    0    0  0.27450899737E+03  0.39828990974E+03  0.10722450585E+03  0.49546658464E+03  0.00000000000E+00 0. -1.
        -13    1    3    3    0    0  0.16720559817E+02  0.51221006304E+02 -0.14835897223E+02  0.55886245658E+02  0.00000000000E+00 0.  1.
         22    1    1    2    0    0 -0.29122955718E+03 -0.44951091605E+03  0.10745422488E+04  0.12006314018E+04  0.00000000000E+00 0.  1.
<mgrwt>
<rscale>  0 0.13067980E+04</rscale>
<asrwt>0</asrwt>
<pdfrwt beam="1">  1        1 0.45004107E-01 0.13067980E+04</pdfrwt>
<pdfrwt beam="2">  1       -1 0.22453193E+00 0.13067980E+04</pdfrwt>
<totfact> 0.91378997E+00</totfact>
</mgrwt>
</event>
<event>
 6    1  0.1028026E-006  0.3386095E+04  0.7818608E-02  0.8141328E-01
          2   -1    0    0  501    0  0.00000000000E+00  0.00000000000E+00  0.88571582846E+03  0.88571582846E+03  0.00000000000E+00 0. -1.
         -2   -1    0    0    0  501 -0.00000000000E+00 -0.00000000000E+00 -0.32362633672E+04  0.32362633672E+04  0.00000000000E+00 0.  1.
         23    2    1    2    0    0 -0.23599903775E+03  0.57990889337E+03  0.73507003582E+03  0.97348341403E+03  0.12390371022E+03 0.  0.
         13    1    3    3    0    0 -0.92639133993E+02  0.30925826128E+03  0.29495477258E+03  0.43728823353E+03  0.00000000000E+00 0.  1.
        -13    1    3    3    0    0 -0.14335990376E+03  0.27065063209E+03  0.44011526324E+03  0.53619518050E+03  0.00000000000E+00 0. -1.
         22    1    1    2    0    0  0.23599903775E+03 -0.57990889337E+03 -0.30856175745E+04  0.31484957816E+04  0.00000000000E+00 0.  1.
<mgrwt>
<rscale>  0 0.33860949E+04</rscale>
<asrwt>0</asrwt>
<pdfrwt beam="1">  1        2 0.13626397E+00 0.33860949E+04</pdfrwt>
<pdfrwt beam="2">  1       -2 0.49788668E+00 0.33860949E+04</pdfrwt>
<totfact> 0.42207539E-02</totfact>
</mgrwt>
</event>
<event>
 6    1  0.1028026E-006  0.3218208E+04  0.7818608E-02  0.8184025E-01
          2   -1    0    0  501    0  0.00000000000E+00  0.00000000000E+00  0.25938031588E+04  0.25938031588E+04  0.00000000000E+00 0. -1.
         -2   -1    0    0    0  501 -0.00000000000E+00 -0.00000000000E+00 -0.99823111552E+03  0.99823111552E+03  0.00000000000E+00 0.  1.
         23    2    1    2    0    0  0.31219387523E+02 -0.10901407972E+04  0.21171442488E+04  0.23831425614E+04  0.87676052909E+02 0.  0.
         13    1    3    3    0    0  0.30018974247E+02 -0.55065140192E+03  0.11604276438E+04  0.12847997594E+04  0.00000000000E+00 0.  1.
        -13    1    3    3    0    0  0.12004132758E+01 -0.53948939528E+03  0.95671660494E+03  0.10983428020E+04  0.00000000000E+00 0. -1.
         22    1    1    2    0    0 -0.31219387523E+02  0.10901407972E+04 -0.52157220549E+03  0.12088917129E+04  0.00000000000E+00 0.  1.
<mgrwt>
<rscale>  0 0.32182076E+04</rscale>
<asrwt>0</asrwt>
<pdfrwt beam="1">  1        2 0.39904664E+00 0.32182076E+04</pdfrwt>
<pdfrwt beam="2">  1       -2 0.15357402E+00 0.32182076E+04</pdfrwt>
<totfact> 0.72590362E-01</totfact>
</mgrwt>
</event>
<event>
 6    1  0.1028026E-006  0.1674864E+04  0.7818608E-02  0.8775832E-01
         -2   -1    0    0    0  501 -0.00000000000E+00  0.00000000000E+00  0.71345308674E+03  0.71345308674E+03  0.00000000000E+00 0.  1.
          2   -1    0    0  501    0  0.00000000000E+00 -0.00000000000E+00 -0.98295461049E+03  0.98295461049E+03  0.00000000000E+00 0. -1.
         23    2    1    2    0    0  0.65040415785E+02 -0.39393844728E+03  0.60766435848E+03  0.73264541280E+03  0.89975398826E+02 0.  0.
         11    1    3    3    0    0  0.72627287679E+02 -0.30464954865E+03  0.41276345155E+03  0.51813100404E+03  0.00000000000E+00 0. -1.
        -11    1    3    3    0    0 -0.75868718935E+01 -0.89288898633E+02  0.19490090693E+03  0.21451440876E+03  0.00000000000E+00 0.  1.
         22    1    1    2    0    0 -0.65040415785E+02  0.39393844728E+03 -0.87716588224E+03  0.96376228443E+03  0.00000000000E+00 0. -1.
<mgrwt>
<rscale>  0 0.16748636E+04</rscale>
<asrwt>0</asrwt>
<pdfrwt beam="1">  1        2 0.15122378E+00 0.16748636E+04</pdfrwt>
<pdfrwt beam="2">  1       -2 0.10976201E+00 0.16748636E+04</pdfrwt>
<totfact> 0.16270937E+01</totfact>
</mgrwt>
</event>
<event>
 6    1  0.1028026E-006  0.9943401E+03  0.7818608E-02  0.9314774E-01
          1   -1    0    0  501    0  0.00000000000E+00  0.00000000000E+00  0.14879838203E+03  0.14879838203E+03  0.00000000000E+00 0. -1.
         -1   -1    0    0    0  501 -0.00000000000E+00 -0.00000000000E+00 -0.16611609031E+04  0.16611609031E+04  0.00000000000E+00 0.  1.
         23    2    1    2    0    0  0.44815813061E+03  0.13635152124E+03 -0.10425974020E+04  0.11465463560E+04  0.90120788854E+02 0.  0.
         13    1    3    3    0    0  0.28534104504E+03  0.72418238043E+02 -0.74921341977E+03  0.80497494467E+03  0.00000000000E+00 0.  1.
        -13    1    3    3    0    0  0.16281708557E+03  0.63933283201E+02 -0.29338398220E+03  0.34157141137E+03  0.00000000000E+00 0. -1.
         22    1    1    2    0    0 -0.44815813061E+03 -0.13635152124E+03 -0.46976511915E+03  0.66341292914E+03  0.00000000000E+00 0. -1.
<mgrwt>
<rscale>  0 0.99434009E+03</rscale>
<asrwt>0</asrwt>
<pdfrwt beam="1">  1        1 0.22892059E-01 0.99434009E+03</pdfrwt>
<pdfrwt beam="2">  1       -1 0.25556322E+00 0.99434009E+03</pdfrwt>
<totfact> 0.14208927E+01</totfact>
</mgrwt>
</event>
<event>
 6    1  0.1028026E-006  0.3309444E+04  0.7818608E-02  0.8160496E-01
         -2   -1    0    0    0  501 -0.00000000000E+00  0.00000000000E+00  0.26581741065E+04  0.26581741065E+04  0.00000000000E+00 0.  1.
          2   -1    0    0  501    0  0.00000000000E+00 -0.00000000000E+00 -0.10300699684E+04  0.10300699684E+04  0.00000000000E+00 0. -1.
         23    2    1    2    0    0 -0.40019352108E+03  0.15329097535E+04  0.28704330063E+03  0.16125727772E+04  0.89609924615E+02 0.  0.
         13    1    3    3    0    0 -0.24438107940E+03  0.78047390069E+03  0.16979908477E+03  0.83528040251E+03  0.00000000000E+00 0.  1.
        -13    1    3    3    0    0 -0.15581244168E+03  0.75243585277E+03  0.11724421586E+03  0.77729237464E+03  0.00000000000E+00 0. -1.
         22    1    1    2    0    0  0.40019352108E+03 -0.15329097535E+04  0.13410608375E+04  0.20756712978E+04  0.00000000000E+00 0.  1.
<mgrwt>
<rscale>  0 0.33094443E+04</rscale>
<asrwt>0</asrwt>
<pdfrwt beam="1">  1        2 0.15847230E+00 0.33094443E+04</pdfrwt>
<pdfrwt beam="2">  1       -2 0.40894986E+00 0.33094443E+04</pdfrwt>
<totfact> 0.13027261E-01</totfact>
</mgrwt>
</event>
<event>
 6    1  0.1028026E-006  0.1579316E+04  0.7818608E-02  0.8833357E-01
          2   -1    0    0  501    0  0.00000000000E+00  0.00000000000E+00  0.23860699217E+04  0.23860699217E+04  0.00000000000E+00 0. -1.
         -2   -1    0    0    0  501 -0.00000000000E+00 -0.00000000000E+00 -0.26133323877E+03  0.26133323877E+03  0.00000000000E+00 0.  1.
         23    2    1    2    0    0 -0.44241348083E+02 -0.52394105697E+03  0.83915130457E+02  0.53993450421E+03  0.89532070559E+02 0.  0.
         11    1    3    3    0    0  0.29979624375E+01 -0.35681496600E+03  0.30010476013E+02  0.35808733071E+03  0.00000000000E+00 0.  1.
        -11    1    3    3    0    0 -0.47239310520E+02 -0.16712609096E+03  0.53904654445E+02  0.18184717350E+03  0.00000000000E+00 0. -1.
         22    1    1    2    0    0  0.44241348083E+02  0.52394105697E+03  0.20408215525E+04  0.21074686563E+04  0.00000000000E+00 0. -1.
<mgrwt>
<rscale>  0 0.15793155E+04</rscale>
<asrwt>0</asrwt>
<pdfrwt beam="1">  1        2 0.36708767E+00 0.15793155E+04</pdfrwt>
<pdfrwt beam="2">  1       -2 0.40205115E-01 0.15793155E+04</pdfrwt>
<totfact> 0.22808744E+01</totfact>
</mgrwt>
</event>
<event>
 6    1  0.1028026E-006  0.6079476E+03  0.7818608E-02  0.9889053E-01
         -1   -1    0    0    0  501 -0.00000000000E+00  0.00000000000E+00  0.69605221984E+03  0.69605221984E+03  0.00000000000E+00 0.  1.
          1   -1    0    0  501    0  0.00000000000E+00 -0.00000000000E+00 -0.13274878394E+03  0.13274878394E+03  0.00000000000E+00 0. -1.
         23    2    1    2    0    0 -0.80008917553E+02 -0.28683609854E+03  0.29591363884E+03  0.42858396530E+03  0.86272587495E+02 0.  0.
         13    1    3    3    0    0 -0.28227029429E+02 -0.20622621942E+03  0.16117916102E+03  0.26325793571E+03  0.00000000000E+00 0. -1.
        -13    1    3    3    0    0 -0.51781888123E+02 -0.80609879118E+02  0.13473447782E+03  0.16532602959E+03  0.00000000000E+00 0.  1.
         22    1    1    2    0    0  0.80008917553E+02  0.28683609854E+03  0.26738979707E+03  0.40021703848E+03  0.00000000000E+00 0. -1.
<mgrwt>
<rscale>  0 0.60794765E+03</rscale>
<asrwt>0</asrwt>
<pdfrwt beam="1">  1        1 0.20422890E-01 0.60794765E+03</pdfrwt>
<pdfrwt beam="2">  1       -1 0.10708496E+00 0.60794765E+03</pdfrwt>
<totfact> 0.21121490E+02</totfact>
</mgrwt>
</event>
<event>
 6    1  0.1028026E-006  0.3535732E+04  0.7818608E-02  0.8105374E-01
         -1   -1    0    0    0  501 -0.00000000000E+00  0.00000000000E+00  0.16523016590E+04  0.16523016590E+04  0.00000000000E+00 0.  1.
          1   -1    0    0  501    0  0.00000000000E+00 -0.00000000000E+00 -0.18915129522E+04  0.18915129522E+04  0.00000000000E+00 0. -1.
         23    2    1    2    0    0  0.45549965059E+02  0.70834814956E+03  0.15017255919E+04  0.16637366505E+04  0.94910424422E+02 0.  0.
         11    1    3    3    0    0  0.91254957036E+01  0.20603142508E+03  0.34192667464E+03  0.39930699170E+03  0.00000000000E+00 0. -1.
        -11    1    3    3    0    0  0.36424469356E+02  0.50231672449E+03  0.11597989172E+04  0.12644296588E+04  0.00000000000E+00 0.  1.
         22    1    1    2    0    0 -0.45549965059E+02 -0.70834814956E+03 -0.17409368851E+04  0.18800779607E+04  0.00000000000E+00 0. -1.
<mgrwt>
<rscale>  0 0.35357319E+04</rscale>
<asrwt>0</asrwt>
<pdfrwt beam="1">  1        1 0.29100199E+00 0.35357319E+04</pdfrwt>
<pdfrwt beam="2">  1       -1 0.25420026E+00 0.35357319E+04</pdfrwt>
<totfact> 0.18798003E-01</totfact>
</mgrwt>
</event>
<event>
 6    1  0.1028026E-006  0.1955896E+04  0.7818608E-02  0.8627523E-01
          1   -1    0    0  501    0  0.00000000000E+00  0.00000000000E+00  0.14887564713E+04  0.14887564713E+04  0.00000000000E+00 0. -1.
         -1   -1    0    0    0  501 -0.00000000000E+00 -0.00000000000E+00 -0.64240346319E+03  0.64240346319E+03  0.00000000000E+00 0.  1.
         23    2    1    2    0    0 -0.34619629877E+02  0.90147367585E+03  0.18922648729E+02  0.90702991419E+03  0.92151460035E+02 0.  0.
         13    1    3    3    0    0  0.30806750984E+02  0.36288373380E+03  0.14008578587E+02  0.36445836584E+03  0.00000000000E+00 0. -1.
        -13    1    3    3    0    0 -0.65426380861E+02  0.53858994205E+03  0.49140701424E+01  0.54257154835E+03  0.00000000000E+00 0.  1.
         22    1    1    2    0    0  0.34619629877E+02 -0.90147367585E+03  0.82743035943E+03  0.12241300203E+04  0.00000000000E+00 0. -1.
<mgrwt>
<rscale>  0 0.19558960E+04</rscale>
<asrwt>0</asrwt>
<pdfrwt beam="1">  1        1 0.22903946E+00 0.19558960E+04</pdfrwt>
<pdfrwt beam="2">  1       -1 0.98831303E-01 0.19558960E+04</pdfrwt>
<totfact> 0.60718552E+00</totfact>
</mgrwt>
</event>
<event>
 6    1  0.1028026E-006  0.1946539E+04  0.7818608E-02  0.8632031E-01
          2   -1    0    0  501    0  0.00000000000E+00  0.00000000000E+00  0.20379063713E+04  0.20379063713E+04  0.00000000000E+00 0. -1.
         -2   -1    0    0    0  501 -0.00000000000E+00 -0.00000000000E+00 -0.46481722448E+03  0.46481722448E+03  0.00000000000E+00 0.  1.
         23    2    1    2    0    0  0.33692526933E+03  0.41718537985E+03 -0.25244396574E+03  0.60005877419E+03  0.93703246341E+02 0.  0.
         11    1    3    3    0    0  0.37651644131E+02  0.10918982309E+02 -0.11277050569E+02  0.40792675200E+02  0.00000000000E+00 0. -1.
        -11    1    3    3    0    0  0.29927362520E+03  0.40626639754E+03 -0.24116691517E+03  0.55926609899E+03  0.00000000000E+00 0.  1.
         22    1    1    2    0    0 -0.33692526933E+03 -0.41718537985E+03  0.18255331125E+04  0.19026648216E+04  0.00000000000E+00 0. -1.
<mgrwt>
<rscale>  0 0.19465395E+04</rscale>
<asrwt>0</asrwt>
<pdfrwt beam="1">  1        2 0.31352405E+00 0.19465395E+04</pdfrwt>
<pdfrwt beam="2">  1       -2 0.71510344E-01 0.19465395E+04</pdfrwt>
<totfact> 0.10533533E+01</totfact>
</mgrwt>
</event>
<event>
 6    1  0.1028026E-006  0.1850454E+04  0.7818608E-02  0.8679919E-01
         -2   -1    0    0    0  501 -0.00000000000E+00  0.00000000000E+00  0.96630782719E+03  0.96630782719E+03  0.00000000000E+00 0.  1.
          2   -1    0    0  501    0  0.00000000000E+00 -0.00000000000E+00 -0.88589303664E+03  0.88589303664E+03  0.00000000000E+00 0. -1.
         23    2    1    2    0    0  0.75708969562E+02  0.23745702150E+03 -0.84927063256E+03  0.88968713868E+03  0.90359904111E+02 0.  0.
         13    1    3    3    0    0  0.39893511476E+02  0.54488274001E+02 -0.12814942281E+03  0.14485419852E+03  0.00000000000E+00 0. -1.
        -13    1    3    3    0    0  0.35815458085E+02  0.18296874750E+03 -0.72112120975E+03  0.74483294017E+03  0.00000000000E+00 0.  1.
         22    1    1    2    0    0 -0.75708969562E+02 -0.23745702150E+03  0.92968542311E+03  0.96251372514E+03  0.00000000000E+00 0.  1.
<mgrwt>
<rscale>  0 0.18504544E+04</rscale>
<asrwt>0</asrwt>
<pdfrwt beam="1">  1        2 0.13629123E+00 0.18504544E+04</pdfrwt>
<pdfrwt beam="2">  1       -2 0.14866274E+00 0.18504544E+04</pdfrwt>
<totfact> 0.86458991E+00</totfact>
</mgrwt>
</event>
<event>
 6    1  0.1028026E-006  0.2007852E+04  0.7818608E-02  0.8602958E-01
         -2   -1    0    0    0  501 -0.00000000000E+00  0.00000000000E+00  0.31670455686E+03  0.31670455686E+03  0.00000000000E+00 0.  1.
          2   -1    0    0  501    0  0.00000000000E+00 -0.00000000000E+00 -0.31823587170E+04  0.31823587170E+04  0.00000000000E+00 0. -1.
         23    2    1    2    0    0 -0.58924925331E+03 -0.29712245941E+03 -0.12306125315E+03  0.67819243458E+03  0.96459669741E+02 0.  0.
         11    1    3    3    0    0 -0.42612994775E+03 -0.19991129105E+03 -0.44840052060E+02  0.47282331470E+03  0.00000000000E+00 0.  1.
        -11    1    3    3    0    0 -0.16311930556E+03 -0.97211168353E+02 -0.78221201090E+02  0.20536911988E+03  0.00000000000E+00 0. -1.
         22    1    1    2    0    0  0.58924925331E+03  0.29712245941E+03 -0.27425929070E+04  0.28208708393E+04  0.00000000000E+00 0. -1.
<mgrwt>
<rscale>  0 0.20078521E+04</rscale>
<asrwt>0</asrwt>
<pdfrwt beam="1">  1        2 0.48959365E+00 0.20078521E+04</pdfrwt>
<pdfrwt beam="2">  1       -2 0.48723778E-01 0.20078521E+04</pdfrwt>
<totfact> 0.49482089E+00</totfact>
</mgrwt>
</event>
<event>
 6    1  0.1028026E-006  0.1634573E+04  0.7818608E-02  0.8799585E-01
         -1   -1    0    0    0  501 -0.00000000000E+00  0.00000000000E+00  0.51929414620E+03  0.51929414620E+03  0.00000000000E+00 0.  1.
          1   -1    0    0  501    0  0.00000000000E+00 -0.00000000000E+00 -0.12862794377E+04  0.12862794377E+04  0.00000000000E+00 0. -1.
         23    2    1    2    0    0  0.38054555278E+03 -0.64207361285E+03 -0.25293092882E+02  0.75334701155E+03  0.99088532144E+02 0.  0.
         11    1    3    3    0    0  0.22174258058E+03 -0.45673932194E+03  0.23179757423E+01  0.50772625820E+03  0.00000000000E+00 0. -1.
        -11    1    3    3    0    0  0.15880297221E+03 -0.18533429090E+03 -0.27611068624E+02  0.24562075335E+03  0.00000000000E+00 0.  1.
         22    1    1    2    0    0 -0.38054555278E+03  0.64207361285E+03 -0.74169219859E+03  0.10522265723E+04  0.00000000000E+00 0. -1.
<mgrwt>
<rscale>  0 0.16345732E+04</rscale>
<asrwt>0</asrwt>
<pdfrwt beam="1">  1        1 0.19788914E+00 0.16345732E+04</pdfrwt>
<pdfrwt beam="2">  1       -1 0.79891408E-01 0.16345732E+04</pdfrwt>
<totfact> 0.13850634E+01</totfact>
</mgrwt>
</event>
<event>
 6    1  0.1028026E-006  0.2128257E+04  0.7818608E-02  0.8548897E-01
          1   -1    0    0  501    0  0.00000000000E+00  0.00000000000E+00  0.15796942940E+04  0.15796942940E+04  0.00000000000E+00 0. -1.
         -1   -1    0    0    0  501 -0.00000000000E+00 -0.00000000000E+00 -0.71682829941E+03  0.71682829941E+03  0.00000000000E+00 0.  1.
         23    2    1    2    0    0 -0.97700921312E+02  0.75043294071E+03  0.12364485559E+04  0.14525682116E+04  0.91947318266E+02 0.  0.
         13    1    3    3    0    0 -0.18988027517E+01  0.34203030455E+03  0.58872146174E+03  0.68086804462E+03  0.00000000000E+00 0. -1.
        -13    1    3    3    0    0 -0.95802118560E+02  0.40840263616E+03  0.64772709418E+03  0.77170016695E+03  0.00000000000E+00 0.  1.
         22    1    1    2    0    0  0.97700921312E+02 -0.75043294071E+03 -0.37358256130E+03  0.84395438185E+03  0.00000000000E+00 0.  1.
<mgrwt>
<rscale>  0 0.21282571E+04</rscale>
<asrwt>0</asrwt>
<pdfrwt beam="1">  1        1 0.24302989E+00 0.21282571E+04</pdfrwt>
<pdfrwt beam="2">  1       -1 0.11028128E+00 0.21282571E+04</pdfrwt>
<totfact> 0.40101536E+00</totfact>
</mgrwt>
</event>
<event>
 6    1  0.1028026E-006  0.2239602E+04  0.7818608E-02  0.8502123E-01
         -4   -1    0    0    0  501 -0.00000000000E+00  0.00000000000E+00  0.11324608765E+04  0.11324608765E+04  0.00000000000E+00 0.  1.
          4   -1    0    0  501    0  0.00000000000E+00 -0.00000000000E+00 -0.11072827806E+04  0.11072827806E+04  0.00000000000E+00 0. -1.
         23    2    1    2    0    0 -0.11146642427E+04 -0.19011690090E+02 -0.73931307633E+02  0.11205204925E+04  0.85220406012E+02 0.  0.
         11    1    3    3    0    0 -0.64378166381E+03 -0.30708313783E+01 -0.84097243752E+02  0.64925850558E+03  0.00000000000E+00 0. -1.
        -11    1    3    3    0    0 -0.47088257887E+03 -0.15940858712E+02  0.10165936119E+02  0.47126198692E+03  0.00000000000E+00 0.  1.
         22    1    1    2    0    0  0.11146642427E+04  0.19011690090E+02  0.99109403550E+02  0.11192231646E+04  0.00000000000E+00 0.  1.
<mgrwt>
<rscale>  0 0.22396021E+04</rscale>
<asrwt>0</asrwt>
<pdfrwt beam="1">  1        4 0.17035120E+00 0.22396021E+04</pdfrwt>
<pdfrwt beam="2">  1       -4 0.17422475E+00 0.22396021E+04</pdfrwt>
<totfact> 0.75556683E-02</totfact>
</mgrwt>
</event>
<event>
 6    1  0.1028026E-006  0.3236336E+03  0.7818608E-02  0.1073989E+00
          1   -1    0    0  501    0  0.00000000000E+00  0.00000000000E+00  0.19191074245E+03  0.19191074245E+03  0.00000000000E+00 0. -1.
         -1   -1    0    0    0  501 -0.00000000000E+00 -0.00000000000E+00 -0.13644194497E+03  0.13644194497E+03  0.00000000000E+00 0.  1.
         23    2    1    2    0    0 -0.67973089551E+02 -0.84023673300E+02  0.13445725037E+03  0.19448897213E+03  0.89815864556E+02 0.  0.
         13    1    3    3    0    0  0.55219591599E+01 -0.55508431098E+02  0.29139142325E+02  0.62934629349E+02  0.00000000000E+00 0. -1.
        -13    1    3    3    0    0 -0.73495048711E+02 -0.28515242202E+02  0.10531810805E+03  0.13155434278E+03  0.00000000000E+00 0.  1.
         22    1    1    2    0    0  0.67973089551E+02  0.84023673300E+02 -0.78988452893E+02  0.13386371528E+03  0.00000000000E+00 0.  1.
<mgrwt>
<rscale>  0 0.32363359E+03</rscale>
<asrwt>0</asrwt>
<pdfrwt beam="1">  1        1 0.29524730E-01 0.32363359E+03</pdfrwt>
<pdfrwt beam="2">  1       -1 0.20991068E-01 0.32363359E+03</pdfrwt>
<totfact> 0.28817646E+03</totfact>
</mgrwt>
</event>
<event>
 6    1  0.1028026E-006  0.1650973E+04  0.7818608E-02  0.8789831E-01
          1   -1    0    0  501    0  0.00000000000E+00  0.00000000000E+00  0.27920955676E+04  0.27920955676E+04  0.00000000000E+00 0. -1.
         -1   -1    0    0    0  501 -0.00000000000E+00 -0.00000000000E+00 -0.24405615533E+03  0.24405615533E+03  0.00000000000E+00 0.  1.
         23    2    1    2    0    0 -0.45598311888E+03  0.12142098728E+03  0.36088237226E+02  0.48026393849E+03  0.81776701369E+02 0.  0.
         13    1    3    3    0    0 -0.42463805985E+03  0.10263652840E+03  0.13040984803E+02  0.43706041472E+03  0.00000000000E+00 0.  1.
        -13    1    3    3    0    0 -0.31345059037E+02  0.18784458885E+02  0.23047252423E+02  0.43203523767E+02  0.00000000000E+00 0. -1.
         22    1    1    2    0    0  0.45598311888E+03 -0.12142098728E+03  0.25119511751E+04  0.25558877845E+04  0.00000000000E+00 0. -1.
<mgrwt>
<rscale>  0 0.16509732E+04</rscale>
<asrwt>0</asrwt>
<pdfrwt beam="1">  1        1 0.42955314E+00 0.16509732E+04</pdfrwt>
<pdfrwt beam="2">  1       -1 0.37547103E-01 0.16509732E+04</pdfrwt>
<totfact> 0.55321717E+00</totfact>
</mgrwt>
</event>
<event>
 6    1  0.1028026E-006  0.2133049E+04  0.7818608E-02  0.8546823E-01
          1   -1    0    0  501    0  0.00000000000E+00  0.00000000000E+00  0.94026243806E+03  0.94026243806E+03  0.00000000000E+00 0. -1.
         -1   -1    0    0    0  501 -0.00000000000E+00 -0.00000000000E+00 -0.12097409791E+04  0.12097409791E+04  0.00000000000E+00 0.  1.
         23    2    1    2    0    0 -0.36649981811E+03  0.84700234178E+03  0.39980469473E+03  0.10099704644E+04  0.91986202315E+02 0.  0.
         13    1    3    3    0    0 -0.30218336046E+03  0.72411133026E+03  0.37265933393E+03  0.86863512542E+03  0.00000000000E+00 0. -1.
        -13    1    3    3    0    0 -0.64316457657E+02  0.12289101152E+03  0.27145360805E+02  0.14133533901E+03  0.00000000000E+00 0.  1.
         22    1    1    2    0    0  0.36649981811E+03 -0.84700234178E+03 -0.66928323577E+03  0.11400329527E+04  0.00000000000E+00 0.  1.
<mgrwt>
<rscale>  0 0.21330485E+04</rscale>
<asrwt>0</asrwt>
<pdfrwt beam="1">  1        1 0.14465576E+00 0.21330485E+04</pdfrwt>
<pdfrwt beam="2">  1       -1 0.18611400E+00 0.21330485E+04</pdfrwt>
<totfact> 0.29127200E+00</totfact>
</mgrwt>
</event>
<event>
 6    1  0.1028026E-006  0.2599282E+04  0.7818608E-02  0.8368445E-01
          2   -1    0    0  501    0  0.00000000000E+00  0.00000000000E+00  0.24960836436E+04  0.24960836436E+04  0.00000000000E+00 0. -1.
         -2   -1    0    0    0  501 -0.00000000000E+00 -0.00000000000E+00 -0.67668693561E+03  0.67668693561E+03  0.00000000000E+00 0.  1.
         23    2    1    2    0    0  0.68662252934E+03 -0.37337038202E+03  0.21758406572E+04  0.23137547302E+04  0.91227442455E+02 0.  0.
         13    1    3    3    0    0  0.59012176321E+03 -0.35456845829E+03  0.18906707067E+04  0.20121128716E+04  0.00000000000E+00 0.  1.
        -13    1    3    3    0    0  0.96500766128E+02 -0.18801923732E+02  0.28516995049E+03  0.30164185860E+03  0.00000000000E+00 0. -1.
         22    1    1    2    0    0 -0.68662252934E+03  0.37337038202E+03 -0.35644394916E+03  0.85901584901E+03  0.00000000000E+00 0.  1.
<mgrwt>
<rscale>  0 0.25992824E+04</rscale>
<asrwt>0</asrwt>
<pdfrwt beam="1">  1        2 0.38401286E+00 0.25992824E+04</pdfrwt>
<pdfrwt beam="2">  1       -2 0.10410568E+00 0.25992824E+04</pdfrwt>
<totfact> 0.23222243E+00</totfact>
</mgrwt>
</event>
<event>
 6    1  0.1028026E-006  0.1779815E+04  0.7818608E-02  0.8717108E-01
          2   -1    0    0  501    0  0.00000000000E+00  0.00000000000E+00  0.14429046116E+04  0.14429046116E+04  0.00000000000E+00 0. -1.
         -2   -1    0    0    0  501 -0.00000000000E+00 -0.00000000000E+00 -0.54884792664E+03  0.54884792664E+03  0.00000000000E+00 0.  1.
         23    2    1    2    0    0  0.56226287114E+03  0.66416769813E+03  0.25282591800E+03  0.91081074331E+03  0.91635134239E+02 0.  0.
         13    1    3    3    0    0  0.24450434450E+03  0.25172881532E+03  0.62411674098E+02  0.35643370773E+03  0.00000000000E+00 0.  1.
        -13    1    3    3    0    0  0.31775852664E+03  0.41243888280E+03  0.19041424390E+03  0.55437703558E+03  0.00000000000E+00 0. -1.
         22    1    1    2    0    0 -0.56226287114E+03 -0.66416769813E+03  0.64123076694E+03  0.10809417949E+04  0.00000000000E+00 0.  1.
<mgrwt>
<rscale>  0 0.17798148E+04</rscale>
<asrwt>0</asrwt>
<pdfrwt beam="1">  1        2 0.22198532E+00 0.17798148E+04</pdfrwt>
<pdfrwt beam="2">  1       -2 0.84438143E-01 0.17798148E+04</pdfrwt>
<totfact> 0.15820234E+01</totfact>
</mgrwt>
</event>
<event>
 6    1  0.1028026E-006  0.1801973E+04  0.7818608E-02  0.8705251E-01
          2   -1    0    0  501    0  0.00000000000E+00  0.00000000000E+00  0.24005061565E+04  0.24005061565E+04  0.00000000000E+00 0. -1.
         -2   -1    0    0    0  501 -0.00000000000E+00 -0.00000000000E+00 -0.33816899166E+03  0.33816899166E+03  0.00000000000E+00 0.  1.
         23    2    1    2    0    0  0.25533303896E+03 -0.29904422166E+03  0.22619308054E+04  0.22976989258E+04  0.92016183402E+02 0.  0.
         13    1    3    3    0    0  0.16484759653E+03 -0.18665642663E+03  0.11649572721E+04  0.11912769609E+04  0.00000000000E+00 0.  1.
        -13    1    3    3    0    0  0.90485442431E+02 -0.11238779503E+03  0.10969735332E+04  0.11064219649E+04  0.00000000000E+00 0. -1.
         22    1    1    2    0    0 -0.25533303896E+03  0.29904422166E+03 -0.19959364057E+03  0.44097622232E+03  0.00000000000E+00 0.  1.
<mgrwt>
<rscale>  0 0.18019731E+04</rscale>
<asrwt>0</asrwt>
<pdfrwt beam="1">  1        2 0.36930863E+00 0.18019731E+04</pdfrwt>
<pdfrwt beam="2">  1       -2 0.52026000E-01 0.18019731E+04</pdfrwt>
<totfact> 0.13091547E+01</totfact>
</mgrwt>
</event>
<event>
 6    1  0.1028026E-006  0.5943168E+04  0.7818608E-02  0.7697488E-01
          1   -1    0    0  501    0  0.00000000000E+00  0.00000000000E+00  0.31114611914E+04  0.31114611914E+04  0.00000000000E+00 0. -1.
         -1   -1    0    0    0  501 -0.00000000000E+00 -0.00000000000E+00 -0.28379950185E+04  0.28379950185E+04  0.00000000000E+00 0.  1.
         23    2    1    2    0    0 -0.27616841017E+04  0.92723841893E+02 -0.95556008520E+03  0.29252203838E+04  0.91227349364E+02 0.  0.
         11    1    3    3    0    0 -0.95248856631E+03  0.17104774915E+02 -0.37265250383E+03  0.10229354480E+04  0.00000000000E+00 0. -1.
        -11    1    3    3    0    0 -0.18091955354E+04  0.75619066978E+02 -0.58290758137E+03  0.19022849358E+04  0.00000000000E+00 0.  1.
         22    1    1    2    0    0  0.27616841017E+04 -0.92723841893E+02  0.12290262581E+04  0.30242358260E+04  0.00000000000E+00 0.  1.
<mgrwt>
<rscale>  0 0.59431680E+04</rscale>
<asrwt>0</asrwt>
<pdfrwt beam="1">  1        1 0.47868634E+00 0.59431680E+04</pdfrwt>
<pdfrwt beam="2">  1       -1 0.43661462E+00 0.59431680E+04</pdfrwt>
<totfact> 0.13326923E-03</totfact>
</mgrwt>
</event>
<event>
 6    1  0.1028026E-006  0.3826321E+04  0.7818608E-02  0.8040530E-01
         -2   -1    0    0    0  501 -0.00000000000E+00  0.00000000000E+00  0.29310109709E+04  0.29310109709E+04  0.00000000000E+00 0.  1.
          2   -1    0    0  501    0  0.00000000000E+00 -0.00000000000E+00 -0.12487782632E+04  0.12487782632E+04  0.00000000000E+00 0. -1.
         23    2    1    2    0    0 -0.10012505689E+04  0.43984480395E+03 -0.87172188502E+03  0.14015433460E+04  0.91970390227E+02 0.  0.
         11    1    3    3    0    0 -0.30590228787E+03  0.17722501296E+03 -0.25875616028E+03  0.43810919350E+03  0.00000000000E+00 0.  1.
        -11    1    3    3    0    0 -0.69534828104E+03  0.26261979098E+03 -0.61296572474E+03  0.96343415253E+03  0.00000000000E+00 0. -1.
         22    1    1    2    0    0  0.10012505689E+04 -0.43984480395E+03  0.25539545927E+04  0.27782458882E+04  0.00000000000E+00 0.  1.
<mgrwt>
<rscale>  0 0.38263208E+04</rscale>
<asrwt>0</asrwt>
<pdfrwt beam="1">  1        2 0.19211973E+00 0.38263208E+04</pdfrwt>
<pdfrwt beam="2">  1       -2 0.45092476E+00 0.38263208E+04</pdfrwt>
<totfact> 0.48491887E-02</totfact>
</mgrwt>
</event>
<event>
 6    1  0.1028026E-006  0.5402550E+04  0.7818608E-02  0.7769243E-01
          2   -1    0    0  501    0  0.00000000000E+00  0.00000000000E+00  0.21478910866E+04  0.21478910866E+04  0.00000000000E+00 0. -1.
         -2   -1    0    0    0  501 -0.00000000000E+00 -0.00000000000E+00 -0.33972324526E+04  0.33972324526E+04  0.00000000000E+00 0.  1.
         23    2    1    2    0    0  0.15908043371E+04  0.98643692563E+03 -0.26227616761E+04  0.32234862732E+04  0.90932376119E+02 0.  0.
         13    1    3    3    0    0  0.77396766776E+03  0.42708963273E+03 -0.12486210469E+04  0.15298647077E+04  0.00000000000E+00 0.  1.
        -13    1    3    3    0    0  0.81683666930E+03  0.55934729290E+03 -0.13741406292E+04  0.16936215655E+04  0.00000000000E+00 0. -1.
         22    1    1    2    0    0 -0.15908043371E+04 -0.98643692563E+03  0.13734203100E+04  0.23216372660E+04  0.00000000000E+00 0. -1.
<mgrwt>
<rscale>  0 0.54025495E+04</rscale>
<asrwt>0</asrwt>
<pdfrwt beam="1">  1        2 0.33044478E+00 0.54025495E+04</pdfrwt>
<pdfrwt beam="2">  1       -2 0.52265115E+00 0.54025495E+04</pdfrwt>
<totfact> 0.47503312E-03</totfact>
</mgrwt>
</event>
<event>
 6    1  0.1028026E-006  0.8485802E+03  0.7818608E-02  0.9492245E-01
          1   -1    0    0  501    0  0.00000000000E+00  0.00000000000E+00  0.72215310325E+03  0.72215310325E+03  0.00000000000E+00 0. -1.
         -1   -1    0    0    0  501 -0.00000000000E+00 -0.00000000000E+00 -0.24928518431E+03  0.24928518431E+03  0.00000000000E+00 0.  1.
         23    2    1    2    0    0 -0.42735540316E+02 -0.40364910896E+03  0.36057201411E+03  0.55028594005E+03  0.89685611401E+02 0.  0.
         11    1    3    3    0    0  0.22724089340E+02 -0.21075323400E+03  0.18658071295E+03  0.28239276252E+03  0.00000000000E+00 0. -1.
        -11    1    3    3    0    0 -0.65459629656E+02 -0.19289587497E+03  0.17399130116E+03  0.26789317754E+03  0.00000000000E+00 0.  1.
         22    1    1    2    0    0  0.42735540316E+02  0.40364910896E+03  0.11229590483E+03  0.42115234751E+03  0.00000000000E+00 0.  1.
<mgrwt>
<rscale>  0 0.84858015E+03</rscale>
<asrwt>0</asrwt>
<pdfrwt beam="1">  1        1 0.11110048E+00 0.84858015E+03</pdfrwt>
<pdfrwt beam="2">  1       -1 0.38351567E-01 0.84858015E+03</pdfrwt>
<totfact> 0.17234511E+02</totfact>
</mgrwt>
</event>
<event>
 6    1  0.1028026E-006  0.8968748E+03  0.7818608E-02  0.9429497E-01
         -2   -1    0    0    0  501 -0.00000000000E+00  0.00000000000E+00  0.11477530753E+03  0.11477530753E+03  0.00000000000E+00 0.  1.
          2   -1    0    0  501    0  0.00000000000E+00 -0.00000000000E+00 -0.17520850307E+04  0.17520850307E+04  0.00000000000E+00 0. -1.
         23    2    1    2    0    0 -0.13198696976E+03 -0.42652159617E+03 -0.84732405566E+03  0.95943618875E+03  0.56731938153E+02 0.  0.
         13    1    3    3    0    0 -0.45387013281E+02 -0.13293501299E+03 -0.32452401684E+03  0.35362061049E+03  0.00000000000E+00 0. -1.
        -13    1    3    3    0    0 -0.86599956475E+02 -0.29358658318E+03 -0.52280003881E+03  0.60581557826E+03  0.00000000000E+00 0.  1.
         22    1    1    2    0    0  0.13198696976E+03  0.42652159617E+03 -0.78998566752E+03  0.90742414948E+03  0.00000000000E+00 0. -1.
<mgrwt>
<rscale>  0 0.89687479E+03</rscale>
<asrwt>0</asrwt>
<pdfrwt beam="1">  1        2 0.26955152E+00 0.89687479E+03</pdfrwt>
<pdfrwt beam="2">  1       -2 0.17657741E-01 0.89687479E+03</pdfrwt>
<totfact> 0.24505292E+02</totfact>
</mgrwt>
</event>
<event>
 6    1  0.1028026E-006  0.3254822E+03  0.7818608E-02  0.1073154E+00
         -1   -1    0    0    0  501 -0.00000000000E+00  0.00000000000E+00  0.13496700087E+02  0.13496700087E+02  0.00000000000E+00 0.  1.
          1   -1    0    0  501    0  0.00000000000E+00 -0.00000000000E+00 -0.19623070382E+04  0.19623070382E+04  0.00000000000E+00 0. -1.
         23    2    1    2    0    0 -0.59222045794E+02 -0.84149667676E+01 -0.18858957595E+04  0.18889918349E+04  0.90051508358E+02 0.  0.
         11    1    3    3    0    0 -0.11125306970E+02 -0.44679167877E+02 -0.99272579210E+03  0.99379298588E+03  0.00000000000E+00 0. -1.
        -11    1    3    3    0    0 -0.48096738824E+02  0.36264201110E+02 -0.89316996740E+03  0.89519884899E+03  0.00000000000E+00 0.  1.
         22    1    1    2    0    0  0.59222045794E+02  0.84149667676E+01 -0.62914578653E+02  0.86811903451E+02  0.00000000000E+00 0.  1.
<mgrwt>
<rscale>  0 0.32548222E+03</rscale>
<asrwt>0</asrwt>
<pdfrwt beam="1">  1        1 0.30189316E+00 0.32548222E+03</pdfrwt>
<pdfrwt beam="2">  1       -1 0.20764170E-02 0.32548222E+03</pdfrwt>
<totfact> 0.23118918E+03</totfact>
</mgrwt>
</event>
<event>
 6    1  0.1028026E-006  0.1373600E+04  0.7818608E-02  0.8973153E-01
         -3   -1    0    0    0  501 -0.00000000000E+00  0.00000000000E+00  0.53832120022E+03  0.53832120022E+03  0.00000000000E+00 0.  1.
          3   -1    0    0  501    0  0.00000000000E+00 -0.00000000000E+00 -0.87623220949E+03  0.87623220949E+03  0.00000000000E+00 0. -1.
         23    2    1    2    0    0  0.20824818048E+02 -0.33962662620E+03  0.44117948398E+03  0.56439935605E+03  0.90151970299E+02 0.  0.
         11    1    3    3    0    0  0.15989368513E+02 -0.32268455319E+03  0.37060766791E+03  0.49166149360E+03  0.00000000000E+00 0. -1.
        -11    1    3    3    0    0  0.48354495355E+01 -0.16942073010E+02  0.70571816071E+02  0.72737862449E+02  0.00000000000E+00 0.  1.
         22    1    1    2    0    0 -0.20824818048E+02  0.33962662620E+03 -0.77909049326E+03  0.85015405366E+03  0.00000000000E+00 0. -1.
<mgrwt>
<rscale>  0 0.13736002E+04</rscale>
<asrwt>0</asrwt>
<pdfrwt beam="1">  1        3 0.13480495E+00 0.13736002E+04</pdfrwt>
<pdfrwt beam="2">  1       -3 0.82818647E-01 0.13736002E+04</pdfrwt>
<totfact> 0.14610826E+00</totfact>
</mgrwt>
</event>
<event>
 6    1  0.1028026E-006  0.2727174E+04  0.7818608E-02  0.8326242E-01
          2   -1    0    0  501    0  0.00000000000E+00  0.00000000000E+00  0.16702790410E+04  0.16702790410E+04  0.00000000000E+00 0. -1.
         -2   -1    0    0    0  501 -0.00000000000E+00 -0.00000000000E+00 -0.11132085515E+04  0.11132085515E+04  0.00000000000E+00 0.  1.
         23    2    1    2    0    0 -0.70091276912E+03  0.25070534039E+03 -0.88538579755E+03  0.11602771878E+04  0.90571874313E+02 0.  0.
         11    1    3    3    0    0 -0.16828776464E+03  0.88293775719E+02 -0.27231952580E+03  0.33207602546E+03  0.00000000000E+00 0. -1.
        -11    1    3    3    0    0 -0.53262500448E+03  0.16241156467E+03 -0.61306627175E+03  0.82820116234E+03  0.00000000000E+00 0.  1.
         22    1    1    2    0    0  0.70091276912E+03 -0.25070534039E+03  0.14424562871E+04  0.16232104047E+04  0.00000000000E+00 0. -1.
<mgrwt>
<rscale>  0 0.27271736E+04</rscale>
<asrwt>0</asrwt>
<pdfrwt beam="1">  1        2 0.25696601E+00 0.27271736E+04</pdfrwt>
<pdfrwt beam="2">  1       -2 0.17126285E+00 0.27271736E+04</pdfrwt>
<totfact> 0.18621781E+00</totfact>
</mgrwt>
</event>
<event>
 6    1  0.1028026E-006  0.1490117E+04  0.7818608E-02  0.8891052E-01
         -2   -1    0    0    0  501 -0.00000000000E+00  0.00000000000E+00  0.13840441162E+04  0.13840441162E+04  0.00000000000E+00 0.  1.
          2   -1    0    0  501    0  0.00000000000E+00 -0.00000000000E+00 -0.40107984931E+03  0.40107984931E+03  0.00000000000E+00 0. -1.
         23    2    1    2    0    0  0.20109747337E+03  0.56286641761E+03  0.10201474149E+04  0.11862572154E+04  0.96159426156E+02 0.  0.
         13    1    3    3    0    0  0.17305871278E+03  0.49835595722E+03  0.95155218395E+03  0.10880071401E+04  0.00000000000E+00 0. -1.
        -13    1    3    3    0    0  0.28038760591E+02  0.64510460396E+02  0.68595230927E+02  0.98250075328E+02  0.00000000000E+00 0.  1.
         22    1    1    2    0    0 -0.20109747337E+03 -0.56286641761E+03 -0.37183147953E+02  0.59886675009E+03  0.00000000000E+00 0. -1.
<mgrwt>
<rscale>  0 0.14901170E+04</rscale>
<asrwt>0</asrwt>
<pdfrwt beam="1">  1        2 0.61704593E-01 0.14901170E+04</pdfrwt>
<pdfrwt beam="2">  1       -2 0.21292986E+00 0.14901170E+04</pdfrwt>
<totfact> 0.83984134E+00</totfact>
</mgrwt>
</event>
<event>
 6    1  0.1231103E-006  0.2584814E+04  0.7818608E-02  0.8373378E-01
         -1   -1    0    0    0  501 -0.00000000000E+00  0.00000000000E+00  0.19674677479E+04  0.19674677479E+04  0.00000000000E+00 0.  1.
          1   -1    0    0  501    0  0.00000000000E+00 -0.00000000000E+00 -0.84896719737E+03  0.84896719737E+03  0.00000000000E+00 0. -1.
         23    2    1    2    0    0  0.19525583975E+03 -0.12110120031E+04  0.10008410835E+04  0.15841530519E+04  0.56418993680E+02 0.  0.
         11    1    3    3    0    0  0.63515498222E+02 -0.56439589765E+03  0.45338127366E+03  0.72672658345E+03  0.00000000000E+00 0. -1.
        -11    1    3    3    0    0  0.13174034153E+03 -0.64661610542E+03  0.54745980986E+03  0.85742646844E+03  0.00000000000E+00 0.  1.
         22    1    1    2    0    0 -0.19525583975E+03  0.12110120031E+04  0.11765946701E+03  0.12322818934E+04  0.00000000000E+00 0. -1.
<mgrwt>
<rscale>  0 0.25848138E+04</rscale>
<asrwt>0</asrwt>
<pdfrwt beam="1">  1        1 0.13061034E+00 0.25848138E+04</pdfrwt>
<pdfrwt beam="2">  1       -1 0.30268735E+00 0.25848138E+04</pdfrwt>
<totfact> 0.56150625E-01</totfact>
</mgrwt>
</event>
<event>
 6    1  0.1028026E-006  0.1675996E+04  0.7818608E-02  0.8775174E-01
         -1   -1    0    0    0  501 -0.00000000000E+00  0.00000000000E+00  0.24055953997E+03  0.24055953997E+03  0.00000000000E+00 0.  1.
          1   -1    0    0  501    0  0.00000000000E+00 -0.00000000000E+00 -0.29191981115E+04  0.29191981115E+04  0.00000000000E+00 0. -1.
         23    2    1    2    0    0  0.45979041047E+03 -0.31340545361E+03 -0.25184811360E+04  0.25807234521E+04  0.88068743885E+02 0.  0.
         11    1    3    3    0    0  0.20667751268E+03 -0.11122664263E+03 -0.12259491333E+04  0.12482140192E+04  0.00000000000E+00 0. -1.
        -11    1    3    3    0    0  0.25311289779E+03 -0.20217881098E+03 -0.12925320027E+04  0.13325094329E+04  0.00000000000E+00 0.  1.
         22    1    1    2    0    0 -0.45979041047E+03  0.31340545361E+03 -0.16015743550E+03  0.57903419939E+03  0.00000000000E+00 0.  1.
<mgrwt>
<rscale>  0 0.16759964E+04</rscale>
<asrwt>0</asrwt>
<pdfrwt beam="1">  1        1 0.44910741E+00 0.16759964E+04</pdfrwt>
<pdfrwt beam="2">  1       -1 0.37009159E-01 0.16759964E+04</pdfrwt>
<totfact> 0.45955027E+00</totfact>
</mgrwt>
</event>
<event>
 6    1  0.1028026E-006  0.6045925E+04  0.7818608E-02  0.7684734E-01
          1   -1    0    0  501    0  0.00000000000E+00  0.00000000000E+00  0.50943473465E+04  0.50943473465E+04  0.00000000000E+00 0. -1.
         -1   -1    0    0    0  501 -0.00000000000E+00 -0.00000000000E+00 -0.17938121146E+04  0.17938121146E+04  0.00000000000E+00 0.  1.
         23    2    1    2    0    0  0.71933452538E+03 -0.93899968379E+03  0.48192231219E+04  0.49631723254E+04  0.94897144239E+02 0.  0.
         13    1    3    3    0    0  0.12756685058E+03 -0.11979178095E+03  0.63932479569E+03  0.66284203739E+03  0.00000000000E+00 0. -1.
        -13    1    3    3    0    0  0.59176767480E+03 -0.81920790284E+03  0.41798983262E+04  0.43003302880E+04  0.00000000000E+00 0.  1.
         22    1    1    2    0    0 -0.71933452538E+03  0.93899968379E+03 -0.15186878899E+04  0.19249871357E+04  0.00000000000E+00 0.  1.
<mgrwt>
<rscale>  0 0.60459249E+04</rscale>
<asrwt>0</asrwt>
<pdfrwt beam="1">  1        1 0.78374574E+00 0.60459249E+04</pdfrwt>
<pdfrwt beam="2">  1       -1 0.27597110E+00 0.60459249E+04</pdfrwt>
<totfact> 0.20039684E-04</totfact>
</mgrwt>
</event>
<event>
 6    1  0.1028026E-006  0.2566968E+04  0.7818608E-02  0.8379509E-01
          1   -1    0    0  501    0  0.00000000000E+00  0.00000000000E+00  0.11361437949E+04  0.11361437949E+04  0.00000000000E+00 0. -1.
         -1   -1    0    0    0  501 -0.00000000000E+00 -0.00000000000E+00 -0.14499318768E+04  0.14499318768E+04  0.00000000000E+00 0.  1.
         23    2    1    2    0    0  0.22355058853E+03  0.65160320769E+03 -0.12462687251E+04  0.14267302720E+04  0.88385112366E+02 0.  0.
         13    1    3    3    0    0  0.13344481486E+03  0.47131586223E+03 -0.81900049718E+03  0.95431020899E+03  0.00000000000E+00 0.  1.
        -13    1    3    3    0    0  0.90105773676E+02  0.18028734546E+03 -0.42726822791E+03  0.47242006304E+03  0.00000000000E+00 0. -1.
         22    1    1    2    0    0 -0.22355058853E+03 -0.65160320769E+03  0.93248064319E+03  0.11593453997E+04  0.00000000000E+00 0. -1.
<mgrwt>
<rscale>  0 0.25669679E+04</rscale>
<asrwt>0</asrwt>
<pdfrwt beam="1">  1        1 0.17479135E+00 0.25669679E+04</pdfrwt>
<pdfrwt beam="2">  1       -1 0.22306644E+00 0.25669679E+04</pdfrwt>
<totfact> 0.11044172E+00</totfact>
</mgrwt>
</event>
<event>
 6    1  0.1028026E-006  0.7019582E+03  0.7818608E-02  0.9713889E-01
         -2   -1    0    0    0  501 -0.00000000000E+00  0.00000000000E+00  0.24197656356E+03  0.24197656356E+03  0.00000000000E+00 0.  1.
          2   -1    0    0  501    0  0.00000000000E+00 -0.00000000000E+00 -0.50908367108E+03  0.50908367108E+03  0.00000000000E+00 0. -1.
         23    2    1    2    0    0 -0.22427286158E+03  0.21106687950E+03 -0.30226982264E+03  0.44108610572E+03  0.91336536601E+02 0.  0.
         11    1    3    3    0    0 -0.18466390557E+03  0.12633101810E+03 -0.24317644066E+03  0.33044676644E+03  0.00000000000E+00 0.  1.
        -11    1    3    3    0    0 -0.39608956006E+02  0.84735861406E+02 -0.59093381977E+02  0.11063933929E+03  0.00000000000E+00 0. -1.
         22    1    1    2    0    0  0.22427286158E+03 -0.21106687950E+03  0.35162715121E+02  0.30997412892E+03  0.00000000000E+00 0.  1.
<mgrwt>
<rscale>  0 0.70195817E+03</rscale>
<asrwt>0</asrwt>
<pdfrwt beam="1">  1        2 0.78320564E-01 0.70195817E+03</pdfrwt>
<pdfrwt beam="2">  1       -2 0.37227164E-01 0.70195817E+03</pdfrwt>
<totfact> 0.41325959E+02</totfact>
</mgrwt>
</event>
<event>
 6    1  0.1028026E-006  0.3461781E+04  0.7818608E-02  0.8122908E-01
         -2   -1    0    0    0  501 -0.00000000000E+00  0.00000000000E+00  0.13033704531E+04  0.13033704531E+04  0.00000000000E+00 0.  1.
          2   -1    0    0  501    0  0.00000000000E+00 -0.00000000000E+00 -0.22986412513E+04  0.22986412513E+04  0.00000000000E+00 0. -1.
         23    2    1    2    0    0  0.81654272045E+03 -0.90984910244E+03  0.77555461516E+03  0.14501775917E+04  0.83442692785E+02 0.  0.
         11    1    3    3    0    0  0.40850467808E+03 -0.51735570882E+03  0.42017649752E+03  0.78171688643E+03  0.00000000000E+00 0.  1.
        -11    1    3    3    0    0  0.40803804237E+03 -0.39249339363E+03  0.35537811764E+03  0.66846070532E+03  0.00000000000E+00 0. -1.
         22    1    1    2    0    0 -0.81654272045E+03  0.90984910244E+03 -0.17708254134E+04  0.21518341126E+04  0.00000000000E+00 0. -1.
<mgrwt>
<rscale>  0 0.34617805E+04</rscale>
<asrwt>0</asrwt>
<pdfrwt beam="1">  1        2 0.35363712E+00 0.34617805E+04</pdfrwt>
<pdfrwt beam="2">  1       -2 0.20051853E+00 0.34617805E+04</pdfrwt>
<totfact> 0.49400297E-01</totfact>
</mgrwt>
</event>
<event>
 6    1  0.1028026E-006  0.2540941E+04  0.7818608E-02  0.8388544E-01
         -1   -1    0    0    0  501 -0.00000000000E+00  0.00000000000E+00  0.17551706380E+04  0.17551706380E+04  0.00000000000E+00 0.  1.
          1   -1    0    0  501    0  0.00000000000E+00 -0.00000000000E+00 -0.91962295142E+03  0.91962295142E+03  0.00000000000E+00 0. -1.
         23    2    1    2    0    0 -0.52605496841E+03 -0.26715314736E+03  0.16008760681E+04  0.17084436706E+04  0.88718408574E+02 0.  0.
         11    1    3    3    0    0 -0.24837703693E+03 -0.14482244535E+03  0.89696211626E+03  0.94191598944E+03  0.00000000000E+00 0.  1.
        -11    1    3    3    0    0 -0.27767793148E+03 -0.12233070200E+03  0.70391395188E+03  0.76652768113E+03  0.00000000000E+00 0. -1.
         22    1    1    2    0    0  0.52605496841E+03  0.26715314736E+03 -0.76532838159E+03  0.96634991882E+03  0.00000000000E+00 0. -1.
<mgrwt>
<rscale>  0 0.25409409E+04</rscale>
<asrwt>0</asrwt>
<pdfrwt beam="1">  1        1 0.14148045E+00 0.25409409E+04</pdfrwt>
<pdfrwt beam="2">  1       -1 0.27002625E+00 0.25409409E+04</pdfrwt>
<totfact> 0.80181181E-01</totfact>
</mgrwt>
</event>
<event>
 6    1  0.1028026E-006  0.6932026E+04  0.7818608E-02  0.7584486E-01
         -2   -1    0    0    0  501 -0.00000000000E+00  0.00000000000E+00  0.30596824124E+04  0.30596824124E+04  0.00000000000E+00 0.  1.
          2   -1    0    0  501    0  0.00000000000E+00 -0.00000000000E+00 -0.39263052249E+04  0.39263052249E+04  0.00000000000E+00 0. -1.
         23    2    1    2    0    0  0.21093383037E+04  0.37374215262E+03 -0.31785582568E+04  0.38341569351E+04  0.92387962228E+02 0.  0.
         11    1    3    3    0    0  0.14307070465E+04  0.22537540290E+03 -0.22070028787E+04  0.26398065141E+04  0.00000000000E+00 0.  1.
        -11    1    3    3    0    0  0.67863125719E+03  0.14836674972E+03 -0.97155537801E+03  0.11943504210E+04  0.00000000000E+00 0. -1.
         22    1    1    2    0    0 -0.21093383037E+04 -0.37374215262E+03  0.23119354443E+04  0.31518307021E+04  0.00000000000E+00 0.  1.
<mgrwt>
<rscale>  0 0.69320263E+04</rscale>
<asrwt>0</asrwt>
<pdfrwt beam="1">  1        2 0.60404696E+00 0.69320263E+04</pdfrwt>
<pdfrwt beam="2">  1       -2 0.47072037E+00 0.69320263E+04</pdfrwt>
<totfact> 0.62558413E-04</totfact>
</mgrwt>
</event>
<event>
 6    1  0.1028026E-006  0.3256072E+04  0.7818608E-02  0.8174164E-01
         -2   -1    0    0    0  501 -0.00000000000E+00  0.00000000000E+00  0.11287853969E+04  0.11287853969E+04  0.00000000000E+00 0.  1.
          2   -1    0    0  501    0  0.00000000000E+00 -0.00000000000E+00 -0.23480995960E+04  0.23480995960E+04  0.00000000000E+00 0. -1.
         23    2    1    2    0    0 -0.13092009652E+03 -0.54393402780E+03 -0.22412416306E+04  0.23118356491E+04  0.91737253668E+02 0.  0.
         11    1    3    3    0    0 -0.93022311110E+02 -0.44867492539E+03 -0.16832298780E+04  0.17444842107E+04  0.00000000000E+00 0.  1.
        -11    1    3    3    0    0 -0.37897785406E+02 -0.95259102410E+02 -0.55801175254E+03  0.56735143845E+03  0.00000000000E+00 0. -1.
         22    1    1    2    0    0  0.13092009652E+03  0.54393402780E+03  0.10219274315E+04  0.11650493438E+04  0.00000000000E+00 0.  1.
<mgrwt>
<rscale>  0 0.32560716E+04</rscale>
<asrwt>0</asrwt>
<pdfrwt beam="1">  1        2 0.36124608E+00 0.32560716E+04</pdfrwt>
<pdfrwt beam="2">  1       -2 0.17365930E+00 0.32560716E+04</pdfrwt>
<totfact> 0.71638280E-01</totfact>
</mgrwt>
</event>
<event>
 6    1  0.1028026E-006  0.2971689E+04  0.7818608E-02  0.8251862E-01
         -1   -1    0    0    0  501 -0.00000000000E+00  0.00000000000E+00  0.88528780178E+03  0.88528780178E+03  0.00000000000E+00 0.  1.
          1   -1    0    0  501    0  0.00000000000E+00 -0.00000000000E+00 -0.24938034113E+04  0.24938034113E+04  0.00000000000E+00 0. -1.
         23    2    1    2    0    0 -0.10563115681E+04  0.56459441264E+03 -0.18022284053E+04  0.21657958546E+04  0.89908172811E+02 0.  0.
         13    1    3    3    0    0 -0.75127599283E+03  0.35709382697E+03 -0.12239923668E+04  0.14798949059E+04  0.00000000000E+00 0.  1.
        -13    1    3    3    0    0 -0.30503557524E+03  0.20750058567E+03 -0.57823603847E+03  0.68590094868E+03  0.00000000000E+00 0. -1.
         22    1    1    2    0    0  0.10563115681E+04 -0.56459441264E+03  0.19371279574E+03  0.12132953585E+04  0.00000000000E+00 0. -1.
<mgrwt>
<rscale>  0 0.29716889E+04</rscale>
<asrwt>0</asrwt>
<pdfrwt beam="1">  1        1 0.38366206E+00 0.29716889E+04</pdfrwt>
<pdfrwt beam="2">  1       -1 0.13619813E+00 0.29716889E+04</pdfrwt>
<totfact> 0.52539800E-01</totfact>
</mgrwt>
</event>
<event>
 6    1  0.1028026E-006  0.2777917E+04  0.7818608E-02  0.8310157E-01
          2   -1    0    0  501    0  0.00000000000E+00  0.00000000000E+00  0.40623700665E+04  0.40623700665E+04  0.00000000000E+00 0. -1.
         -2   -1    0    0    0  501 -0.00000000000E+00 -0.00000000000E+00 -0.47489653056E+03  0.47489653056E+03  0.00000000000E+00 0.  1.
         23    2    1    2    0    0 -0.11613514861E+04 -0.64169724239E+03  0.24581305710E+04  0.27948750918E+04  0.91696508110E+02 0.  0.
         13    1    3    3    0    0 -0.74421821608E+03 -0.42580620481E+03  0.14984255792E+04  0.17263982431E+04  0.00000000000E+00 0.  1.
        -13    1    3    3    0    0 -0.41713327001E+03 -0.21589103758E+03  0.95970499173E+03  0.10684768487E+04  0.00000000000E+00 0. -1.
         22    1    1    2    0    0  0.11613514861E+04  0.64169724239E+03  0.11293429650E+04  0.17423915053E+04  0.00000000000E+00 0. -1.
<mgrwt>
<rscale>  0 0.27779168E+04</rscale>
<asrwt>0</asrwt>
<pdfrwt beam="1">  1        2 0.62497999E+00 0.27779168E+04</pdfrwt>
<pdfrwt beam="2">  1       -2 0.73061007E-01 0.27779168E+04</pdfrwt>
<totfact> 0.44911945E-01</totfact>
</mgrwt>
</event>
<event>
 6    1  0.1028026E-006  0.3939910E+04  0.7818608E-02  0.8016779E-01
         -2   -1    0    0    0  501 -0.00000000000E+00  0.00000000000E+00  0.82751929071E+03  0.82751929071E+03  0.00000000000E+00 0.  1.
          2   -1    0    0  501    0  0.00000000000E+00 -0.00000000000E+00 -0.46895863496E+04  0.46895863496E+04  0.00000000000E+00 0. -1.
         23    2    1    2    0    0  0.10915011984E+04  0.16385694578E+04 -0.19057891239E+04  0.27416222422E+04  0.90419023748E+02 0.  0.
         13    1    3    3    0    0  0.24785565769E+03  0.30877409076E+03 -0.39535295964E+03  0.55953358154E+03  0.00000000000E+00 0. -1.
        -13    1    3    3    0    0  0.84364554072E+03  0.13297953671E+04 -0.15104361643E+04  0.21820886607E+04  0.00000000000E+00 0.  1.
         22    1    1    2    0    0 -0.10915011984E+04 -0.16385694578E+04 -0.19562779349E+04  0.27754833981E+04  0.00000000000E+00 0.  1.
<mgrwt>
<rscale>  0 0.39399102E+04</rscale>
<asrwt>0</asrwt>
<pdfrwt beam="1">  1        2 0.72147483E+00 0.39399102E+04</pdfrwt>
<pdfrwt beam="2">  1       -2 0.12731066E+00 0.39399102E+04</pdfrwt>
<totfact> 0.28336714E-02</totfact>
</mgrwt>
</event>
<event>
 6    1  0.1028026E-006  0.1925706E+04  0.7818608E-02  0.8642166E-01
          2   -1    0    0  501    0  0.00000000000E+00  0.00000000000E+00  0.43078690533E+03  0.43078690533E+03  0.00000000000E+00 0. -1.
         -2   -1    0    0    0  501 -0.00000000000E+00 -0.00000000000E+00 -0.21520745165E+04  0.21520745165E+04  0.00000000000E+00 0.  1.
         23    2    1    2    0    0 -0.20280800020E+03  0.21995644603E+03 -0.20870432375E+04  0.21103266599E+04  0.90648844629E+02 0.  0.
         11    1    3    3    0    0 -0.10827113788E+03  0.12229687907E+03 -0.82715917343E+03  0.84313193755E+03  0.00000000000E+00 0.  1.
        -11    1    3    3    0    0 -0.94536862321E+02  0.97659566964E+02 -0.12598840641E+04  0.12671947223E+04  0.00000000000E+00 0. -1.
         22    1    1    2    0    0  0.20280800020E+03 -0.21995644603E+03  0.36575562632E+03  0.47253476198E+03  0.00000000000E+00 0. -1.
<mgrwt>
<rscale>  0 0.19257056E+04</rscale>
<asrwt>0</asrwt>
<pdfrwt beam="1">  1        2 0.66274908E-01 0.19257056E+04</pdfrwt>
<pdfrwt beam="2">  1       -2 0.33108839E+00 0.19257056E+04</pdfrwt>
<totfact> 0.13995565E+00</totfact>
</mgrwt>
</event>
<event>
 6    1  0.1028026E-006  0.6793385E+03  0.7818608E-02  0.9753233E-01
         -2   -1    0    0    0  501 -0.00000000000E+00  0.00000000000E+00  0.20700442767E+03  0.20700442767E+03  0.00000000000E+00 0.  1.
          2   -1    0    0  501    0  0.00000000000E+00 -0.00000000000E+00 -0.55735616730E+03  0.55735616730E+03  0.00000000000E+00 0. -1.
         23    2    1    2    0    0  0.21355128306E+03  0.68491725317E+02  0.98914073650E+02  0.26223009608E+03  0.93195291662E+02 0.  0.
         13    1    3    3    0    0 -0.72751558740E+01  0.13023451153E+02  0.32756895429E+01  0.15273123941E+02  0.00000000000E+00 0. -1.
        -13    1    3    3    0    0  0.22082643894E+03  0.55468274164E+02  0.95638384107E+02  0.24695697214E+03  0.00000000000E+00 0.  1.
         22    1    1    2    0    0 -0.21355128306E+03 -0.68491725317E+02 -0.44926581327E+03  0.50213049889E+03  0.00000000000E+00 0. -1.
<mgrwt>
<rscale>  0 0.67933849E+03</rscale>
<asrwt>0</asrwt>
<pdfrwt beam="1">  1        2 0.85747102E-01 0.67933849E+03</pdfrwt>
<pdfrwt beam="2">  1       -2 0.31846835E-01 0.67933849E+03</pdfrwt>
<totfact> 0.49995002E+02</totfact>
</mgrwt>
</event>
<event>
 6    1  0.1028026E-006  0.4736916E+04  0.7818608E-02  0.7870424E-01
         -1   -1    0    0    0  501 -0.00000000000E+00  0.00000000000E+00  0.47186227100E+04  0.47186227100E+04  0.00000000000E+00 0.  1.
          1   -1    0    0  501    0  0.00000000000E+00 -0.00000000000E+00 -0.11888198418E+04  0.11888198418E+04  0.00000000000E+00 0. -1.
         23    2    1    2    0    0  0.37419990123E+03 -0.72009837121E+02  0.46796899953E+04  0.46960584724E+04  0.90861107630E+02 0.  0.
         13    1    3    3    0    0  0.17113928815E+03 -0.45280943816E+01  0.16629723657E+04  0.16717614209E+04  0.00000000000E+00 0.  1.
        -13    1    3    3    0    0  0.20306061307E+03 -0.67481742740E+02  0.30167176297E+04  0.30242970514E+04  0.00000000000E+00 0. -1.
         22    1    1    2    0    0 -0.37419990123E+03  0.72009837121E+02 -0.11498871272E+04  0.12113840795E+04  0.00000000000E+00 0. -1.
<mgrwt>
<rscale>  0 0.47369156E+04</rscale>
<asrwt>0</asrwt>
<pdfrwt beam="1">  1        1 0.18289536E+00 0.47369156E+04</pdfrwt>
<pdfrwt beam="2">  1       -1 0.72594195E+00 0.47369156E+04</pdfrwt>
<totfact> 0.12965533E-03</totfact>
</mgrwt>
</event>
<event>
 6    1  0.1028026E-006  0.2829405E+04  0.7818608E-02  0.8294197E-01
         -2   -1    0    0    0  501 -0.00000000000E+00  0.00000000000E+00  0.91894935759E+03  0.91894935759E+03  0.00000000000E+00 0.  1.
          2   -1    0    0  501    0  0.00000000000E+00 -0.00000000000E+00 -0.21779040614E+04  0.21779040614E+04  0.00000000000E+00 0. -1.
         23    2    1    2    0    0  0.10413117264E+04 -0.94686164424E+03 -0.76983525803E+03  0.16068484132E+04  0.91860837939E+02 0.  0.
         11    1    3    3    0    0  0.51179655637E+03 -0.52004881788E+03 -0.42314631937E+03  0.84346860978E+03  0.00000000000E+00 0.  1.
        -11    1    3    3    0    0  0.52951517008E+03 -0.42681282637E+03 -0.34668893867E+03  0.76337980343E+03  0.00000000000E+00 0. -1.
         22    1    1    2    0    0 -0.10413117264E+04  0.94686164424E+03 -0.48911944576E+03  0.14900050058E+04  0.00000000000E+00 0.  1.
<mgrwt>
<rscale>  0 0.28294053E+04</rscale>
<asrwt>0</asrwt>
<pdfrwt beam="1">  1        2 0.33506216E+00 0.28294053E+04</pdfrwt>
<pdfrwt beam="2">  1       -2 0.14137683E+00 0.28294053E+04</pdfrwt>
<totfact> 0.16149462E+00</totfact>
</mgrwt>
</event>
<event>
 6    1  0.1028026E-006  0.5810467E+04  0.7818608E-02  0.7714356E-01
         -2   -1    0    0    0  501 -0.00000000000E+00  0.00000000000E+00  0.30869840474E+04  0.30869840474E+04  0.00000000000E+00 0.  1.
          2   -1    0    0  501    0  0.00000000000E+00 -0.00000000000E+00 -0.27341839938E+04  0.27341839938E+04  0.00000000000E+00 0. -1.
         23    2    1    2    0    0 -0.16611032223E+02  0.55262492716E+03  0.30330641062E+04  0.30844755799E+04  0.94029219426E+02 0.  0.
         13    1    3    3    0    0  0.25448488433E+02  0.38492754551E+03  0.22149146380E+04  0.22482579244E+04  0.00000000000E+00 0. -1.
        -13    1    3    3    0    0 -0.42059520655E+02  0.16769738165E+03  0.81814946817E+03  0.83621765550E+03  0.00000000000E+00 0.  1.
         22    1    1    2    0    0  0.16611032223E+02 -0.55262492716E+03 -0.26802640526E+04  0.27366924614E+04  0.00000000000E+00 0. -1.
<mgrwt>
<rscale>  0 0.58104672E+04</rscale>
<asrwt>0</asrwt>
<pdfrwt beam="1">  1        2 0.42064369E+00 0.58104672E+04</pdfrwt>
<pdfrwt beam="2">  1       -2 0.47492063E+00 0.58104672E+04</pdfrwt>
<totfact> 0.41510906E-03</totfact>
</mgrwt>
</event>
<event>
 6    1  0.1028026E-006  0.2701609E+04  0.7818608E-02  0.8334483E-01
         -1   -1    0    0    0  501 -0.00000000000E+00  0.00000000000E+00  0.63562795087E+03  0.63562795087E+03  0.00000000000E+00 0.  1.
          1   -1    0    0  501    0  0.00000000000E+00 -0.00000000000E+00 -0.28706606832E+04  0.28706606832E+04  0.00000000000E+00 0. -1.
         23    2    1    2    0    0 -0.53921567359E+03  0.11215826302E+04 -0.44186340308E+03  0.13235936525E+04  0.89195016339E+02 0.  0.
         11    1    3    3    0    0 -0.52755705994E+03  0.10609962301E+04 -0.43145158612E+03  0.12610233633E+04  0.00000000000E+00 0. -1.
        -11    1    3    3    0    0 -0.11658613654E+02  0.60586400160E+02 -0.10411816959E+02  0.62570289188E+02  0.00000000000E+00 0.  1.
         22    1    1    2    0    0  0.53921567359E+03 -0.11215826302E+04 -0.17931693293E+04  0.21826949816E+04  0.00000000000E+00 0. -1.
<mgrwt>
<rscale>  0 0.27016085E+04</rscale>
<asrwt>0</asrwt>
<pdfrwt beam="1">  1        1 0.44164011E+00 0.27016085E+04</pdfrwt>
<pdfrwt beam="2">  1       -1 0.97788915E-01 0.27016085E+04</pdfrwt>
<totfact> 0.64914662E-01</totfact>
</mgrwt>
</event>
<event>
 6    1  0.1125964E-006  0.3557088E+04  0.7818608E-02  0.8100393E-01
         -2   -1    0    0    0  501 -0.00000000000E+00  0.00000000000E+00  0.12510738797E+04  0.12510738797E+04  0.00000000000E+00 0.  1.
          2   -1    0    0  501    0  0.00000000000E+00 -0.00000000000E+00 -0.25284022405E+04  0.25284022405E+04  0.00000000000E+00 0. -1.
         23    2    1    2    0    0 -0.55948421788E+03 -0.12079470819E+04 -0.18904005579E+04  0.23138648956E+04  0.90541389641E+02 0.  0.
         13    1    3    3    0    0 -0.13075423755E+03 -0.35365852154E+03 -0.48771759977E+03  0.61647342004E+03  0.00000000000E+00 0.  1.
        -13    1    3    3    0    0 -0.42872998033E+03 -0.85428856034E+03 -0.14026829581E+04  0.16973914756E+04  0.00000000000E+00 0. -1.
         22    1    1    2    0    0  0.55948421788E+03  0.12079470819E+04  0.61307219704E+03  0.14656112245E+04  0.00000000000E+00 0.  1.
<mgrwt>
<rscale>  0 0.35570876E+04</rscale>
<asrwt>0</asrwt>
<pdfrwt beam="1">  1        2 0.38898496E+00 0.35570876E+04</pdfrwt>
<pdfrwt beam="2">  1       -2 0.19247290E+00 0.35570876E+04</pdfrwt>
<totfact> 0.40890591E-01</totfact>
</mgrwt>
</event>
<event>
 6    1  0.1028026E-006  0.3209962E+04  0.7818608E-02  0.8186191E-01
         -2   -1    0    0    0  501 -0.00000000000E+00  0.00000000000E+00  0.69066802909E+03  0.69066802909E+03  0.00000000000E+00 0.  1.
          2   -1    0    0  501    0  0.00000000000E+00 -0.00000000000E+00 -0.37296712679E+04  0.37296712679E+04  0.00000000000E+00 0. -1.
         23    2    1    2    0    0  0.43999809524E+03  0.28650722542E+03 -0.36073731479E+04  0.36465634459E+04  0.92731991928E+02 0.  0.
         13    1    3    3    0    0  0.25246728242E+03  0.11480059603E+03 -0.20214174393E+04  0.20403547165E+04  0.00000000000E+00 0. -1.
        -13    1    3    3    0    0  0.18753081282E+03  0.17170662940E+03 -0.15859557087E+04  0.16062087293E+04  0.00000000000E+00 0.  1.
         22    1    1    2    0    0 -0.43999809524E+03 -0.28650722542E+03  0.56836990918E+03  0.77377585107E+03  0.00000000000E+00 0.  1.
<mgrwt>
<rscale>  0 0.32099624E+04</rscale>
<asrwt>0</asrwt>
<pdfrwt beam="1">  1        2 0.57379557E+00 0.32099624E+04</pdfrwt>
<pdfrwt beam="2">  1       -2 0.10625662E+00 0.32099624E+04</pdfrwt>
<totfact> 0.33296561E-01</totfact>
</mgrwt>
</event>
<event>
 6    1  0.1028026E-006  0.2376467E+04  0.7818608E-02  0.8448367E-01
          1   -1    0    0  501    0  0.00000000000E+00  0.00000000000E+00  0.10207010156E+04  0.10207010156E+04  0.00000000000E+00 0. -1.
         -1   -1    0    0    0  501 -0.00000000000E+00 -0.00000000000E+00 -0.13832640492E+04  0.13832640492E+04  0.00000000000E+00 0.  1.
         23    2    1    2    0    0 -0.57893115899E+03 -0.21373157284E+03 -0.12066602272E+04  0.13583348508E+04  0.90565947779E+02 0.  0.
         11    1    3    3    0    0 -0.37740590690E+03 -0.17145506197E+03 -0.86976854245E+03  0.96349850767E+03  0.00000000000E+00 0.  1.
        -11    1    3    3    0    0 -0.20152525209E+03 -0.42276510867E+02 -0.33689168477E+03  0.39483634315E+03  0.00000000000E+00 0. -1.
         22    1    1    2    0    0  0.57893115899E+03  0.21373157284E+03  0.84409719364E+03  0.10456302140E+04  0.00000000000E+00 0. -1.
<mgrwt>
<rscale>  0 0.23764671E+04</rscale>
<asrwt>0</asrwt>
<pdfrwt beam="1">  1        1 0.15703093E+00 0.23764671E+04</pdfrwt>
<pdfrwt beam="2">  1       -1 0.21280985E+00 0.23764671E+04</pdfrwt>
<totfact> 0.16106585E+00</totfact>
</mgrwt>
</event>
<event>
 6    1  0.1028026E-006  0.2252082E+04  0.7818608E-02  0.8497058E-01
          1   -1    0    0  501    0  0.00000000000E+00  0.00000000000E+00  0.24759029903E+04  0.24759029903E+04  0.00000000000E+00 0. -1.
         -1   -1    0    0    0  501 -0.00000000000E+00 -0.00000000000E+00 -0.51212347125E+03  0.51212347125E+03  0.00000000000E+00 0.  1.
         23    2    1    2    0    0 -0.10493299835E+04 -0.14819830864E+03  0.48808265917E+03  0.11712333046E+04  0.10250179879E+03 0.  0.
         13    1    3    3    0    0 -0.46770522348E+03 -0.67623046211E+02  0.27391881320E+03  0.54621659502E+03  0.00000000000E+00 0.  1.
        -13    1    3    3    0    0 -0.58162475998E+03 -0.80575262429E+02  0.21416384597E+03  0.62501670958E+03  0.00000000000E+00 0. -1.
         22    1    1    2    0    0  0.10493299835E+04  0.14819830864E+03  0.14756968599E+04  0.18167931570E+04  0.00000000000E+00 0. -1.
<mgrwt>
<rscale>  0 0.22520817E+04</rscale>
<asrwt>0</asrwt>
<pdfrwt beam="1">  1        1 0.38090815E+00 0.22520817E+04</pdfrwt>
<pdfrwt beam="2">  1       -1 0.78788228E-01 0.22520817E+04</pdfrwt>
<totfact> 0.20589800E+00</totfact>
</mgrwt>
</event>
<event>
 6    1  0.1028026E-006  0.1931824E+04  0.7818608E-02  0.8639176E-01
          2   -1    0    0  501    0  0.00000000000E+00  0.00000000000E+00  0.26008017466E+04  0.26008017466E+04  0.00000000000E+00 0. -1.
         -2   -1    0    0    0  501 -0.00000000000E+00 -0.00000000000E+00 -0.35873007838E+03  0.35873007838E+03  0.00000000000E+00 0.  1.
         23    2    1    2    0    0  0.48264574148E+03  0.16090258424E+03 -0.12856603763E+03  0.53491645636E+03  0.10377781973E+03 0.  0.
         11    1    3    3    0    0  0.27306082409E+03  0.39535633270E+02 -0.86114351635E+02  0.28903453342E+03  0.00000000000E+00 0.  1.
        -11    1    3    3    0    0  0.20958491739E+03  0.12136695097E+03 -0.42451685991E+02  0.24588192294E+03  0.00000000000E+00 0. -1.
         22    1    1    2    0    0 -0.48264574148E+03 -0.16090258424E+03  0.23706377059E+04  0.24246153686E+04  0.00000000000E+00 0. -1.
<mgrwt>
<rscale>  0 0.19318238E+04</rscale>
<asrwt>0</asrwt>
<pdfrwt beam="1">  1        2 0.40012333E+00 0.19318238E+04</pdfrwt>
<pdfrwt beam="2">  1       -2 0.55189244E-01 0.19318238E+04</pdfrwt>
<totfact> 0.87753213E+00</totfact>
</mgrwt>
</event>
<event>
 6    1  0.1028026E-006  0.1000418E+04  0.7818608E-02  0.9308087E-01
          2   -1    0    0  501    0  0.00000000000E+00  0.00000000000E+00  0.64799270017E+03  0.64799270017E+03  0.00000000000E+00 0. -1.
         -2   -1    0    0    0  501 -0.00000000000E+00 -0.00000000000E+00 -0.38612908130E+03  0.38612908130E+03  0.00000000000E+00 0.  1.
         23    2    1    2    0    0 -0.12243890593E+02  0.61600650186E+02  0.64070592255E+03  0.65010870354E+03  0.90513503200E+02 0.  0.
         11    1    3    3    0    0 -0.21383416759E+02  0.15411416670E+02  0.51813804316E+03  0.51880805126E+03  0.00000000000E+00 0.  1.
        -11    1    3    3    0    0  0.91395261657E+01  0.46189233516E+02  0.12256787939E+03  0.13130065228E+03  0.00000000000E+00 0. -1.
         22    1    1    2    0    0  0.12243890593E+02 -0.61600650186E+02 -0.37884230368E+03  0.38401307793E+03  0.00000000000E+00 0.  1.
<mgrwt>
<rscale>  0 0.10004176E+04</rscale>
<asrwt>0</asrwt>
<pdfrwt beam="1">  1        2 0.99691184E-01 0.10004176E+04</pdfrwt>
<pdfrwt beam="2">  1       -2 0.59404474E-01 0.10004176E+04</pdfrwt>
<totfact> 0.11926084E+02</totfact>
</mgrwt>
</event>
<event>
 6    1  0.1029091E-006  0.3420010E+04  0.7818608E-02  0.8133013E-01
         -1   -1    0    0    0  501 -0.00000000000E+00  0.00000000000E+00  0.10579923728E+04  0.10579923728E+04  0.00000000000E+00 0.  1.
          1   -1    0    0  501    0  0.00000000000E+00 -0.00000000000E+00 -0.27638361189E+04  0.27638361189E+04  0.00000000000E+00 0. -1.
         23    2    1    2    0    0 -0.33341843527E+03 -0.16641437575E+04 -0.63129481081E+03  0.18130483362E+04  0.89826681771E+02 0.  0.
         11    1    3    3    0    0 -0.14303630346E+03 -0.91798608180E+03 -0.36629878314E+03  0.99866542396E+03  0.00000000000E+00 0.  1.
        -11    1    3    3    0    0 -0.19038213182E+03 -0.74615767568E+03 -0.26499602767E+03  0.81438291225E+03  0.00000000000E+00 0. -1.
         22    1    1    2    0    0  0.33341843527E+03  0.16641437575E+04 -0.10745489353E+04  0.20087801555E+04  0.00000000000E+00 0.  1.
<mgrwt>
<rscale>  0 0.34200103E+04</rscale>
<asrwt>0</asrwt>
<pdfrwt beam="1">  1        1 0.42520555E+00 0.34200103E+04</pdfrwt>
<pdfrwt beam="2">  1       -1 0.16276806E+00 0.34200103E+04</pdfrwt>
<totfact> 0.20218102E-01</totfact>
</mgrwt>
</event>
<event>
 6    1  0.1028026E-006  0.8287576E+03  0.7818608E-02  0.9519300E-01
         -1   -1    0    0    0  501 -0.00000000000E+00  0.00000000000E+00  0.11554001012E+03  0.11554001012E+03  0.00000000000E+00 0.  1.
          1   -1    0    0  501    0  0.00000000000E+00 -0.00000000000E+00 -0.14861499578E+04  0.14861499578E+04  0.00000000000E+00 0. -1.
         23    2    1    2    0    0 -0.14626385287E+03  0.24049806740E+03 -0.11820856603E+03  0.31804607032E+03  0.89149328012E+02 0.  0.
         13    1    3    3    0    0 -0.23526342380E+02  0.10250300909E+03 -0.72670843743E+02  0.12783351356E+03  0.00000000000E+00 0. -1.
        -13    1    3    3    0    0 -0.12273751049E+03  0.13799505830E+03 -0.45537722289E+02  0.19021255676E+03  0.00000000000E+00 0.  1.
         22    1    1    2    0    0  0.14626385287E+03 -0.24049806740E+03 -0.12524013817E+04  0.12836438976E+04  0.00000000000E+00 0. -1.
<mgrwt>
<rscale>  0 0.82875758E+03</rscale>
<asrwt>0</asrwt>
<pdfrwt beam="1">  1        1 0.22863844E+00 0.82875758E+03</pdfrwt>
<pdfrwt beam="2">  1       -1 0.17775387E-01 0.82875758E+03</pdfrwt>
<totfact> 0.16866218E+02</totfact>
</mgrwt>
</event>
<event>
 6    1  0.1028026E-006  0.2766665E+04  0.7818608E-02  0.8313693E-01
          1   -1    0    0  501    0  0.00000000000E+00  0.00000000000E+00  0.18074571954E+04  0.18074571954E+04  0.00000000000E+00 0. -1.
         -1   -1    0    0    0  501 -0.00000000000E+00 -0.00000000000E+00 -0.10587297207E+04  0.10587297207E+04  0.00000000000E+00 0.  1.
         23    2    1    2    0    0 -0.71795880339E+03 -0.45243523337E+02 -0.84769883853E+03  0.11151618468E+04  0.86491641481E+02 0.  0.
         13    1    3    3    0    0 -0.24715143517E+03  0.15423344105E+02 -0.24990532772E+03  0.35181583858E+03  0.00000000000E+00 0.  1.
        -13    1    3    3    0    0 -0.47080736822E+03 -0.60666867441E+02 -0.59779351080E+03  0.76334600827E+03  0.00000000000E+00 0. -1.
         22    1    1    2    0    0  0.71795880339E+03  0.45243523337E+02  0.15964263132E+04  0.17510250693E+04  0.00000000000E+00 0. -1.
<mgrwt>
<rscale>  0 0.27666649E+04</rscale>
<asrwt>0</asrwt>
<pdfrwt beam="1">  1        1 0.27807034E+00 0.27666649E+04</pdfrwt>
<pdfrwt beam="2">  1       -1 0.16288150E+00 0.27666649E+04</pdfrwt>
<totfact> 0.97174346E-01</totfact>
</mgrwt>
</event>
<event>
 6    1  0.1028026E-006  0.6061078E+03  0.7818608E-02  0.9892815E-01
          1   -1    0    0  501    0  0.00000000000E+00  0.00000000000E+00  0.22847298724E+03  0.22847298724E+03  0.00000000000E+00 0. -1.
         -1   -1    0    0    0  501 -0.00000000000E+00 -0.00000000000E+00 -0.40198035472E+03  0.40198035472E+03  0.00000000000E+00 0.  1.
         23    2    1    2    0    0  0.28080536577E+03 -0.90068667226E+02 -0.12114906835E+03  0.33094472814E+03  0.88787938710E+02 0.  0.
         13    1    3    3    0    0  0.63298533550E+02 -0.59548582255E+02 -0.20222854897E+02  0.89228369134E+02  0.00000000000E+00 0. -1.
        -13    1    3    3    0    0  0.21750683222E+03 -0.30520084971E+02 -0.10092621346E+03  0.24171635901E+03  0.00000000000E+00 0.  1.
         22    1    1    2    0    0 -0.28080536577E+03  0.90068667226E+02 -0.52358299120E+02  0.29950861381E+03  0.00000000000E+00 0.  1.
<mgrwt>
<rscale>  0 0.60610775E+03</rscale>
<asrwt>0</asrwt>
<pdfrwt beam="1">  1        1 0.35149691E-01 0.60610775E+03</pdfrwt>
<pdfrwt beam="2">  1       -1 0.61843131E-01 0.60610775E+03</pdfrwt>
<totfact> 0.33632752E+02</totfact>
</mgrwt>
</event>
<event>
 6    1  0.1028026E-006  0.5403153E+04  0.7818608E-02  0.7769158E-01
         -2   -1    0    0    0  501 -0.00000000000E+00  0.00000000000E+00  0.29566756332E+04  0.29566756332E+04  0.00000000000E+00 0.  1.
          2   -1    0    0  501    0  0.00000000000E+00 -0.00000000000E+00 -0.24684874714E+04  0.24684874714E+04  0.00000000000E+00 0. -1.
         23    2    1    2    0    0  0.23926917526E+04  0.10969308613E+04  0.85165480628E+03  0.27680332360E+04  0.91983417594E+02 0.  0.
         11    1    3    3    0    0  0.13015852892E+04  0.55003826856E+03  0.47527272289E+03  0.14908220964E+04  0.00000000000E+00 0.  1.
        -11    1    3    3    0    0  0.10911064634E+04  0.54689259270E+03  0.37638208339E+03  0.12772111396E+04  0.00000000000E+00 0. -1.
         22    1    1    2    0    0 -0.23926917526E+04 -0.10969308613E+04 -0.36346664449E+03  0.26571298687E+04  0.00000000000E+00 0.  1.
<mgrwt>
<rscale>  0 0.54031534E+04</rscale>
<asrwt>0</asrwt>
<pdfrwt beam="1">  1        2 0.37976731E+00 0.54031534E+04</pdfrwt>
<pdfrwt beam="2">  1       -2 0.45487317E+00 0.54031534E+04</pdfrwt>
<totfact> 0.82850816E-03</totfact>
</mgrwt>
</event>
<event>
 6    1  0.1028026E-006  0.1094211E+04  0.7818608E-02  0.9210852E-01
          1   -1    0    0  501    0  0.00000000000E+00  0.00000000000E+00  0.22418866632E+04  0.22418866632E+04  0.00000000000E+00 0. -1.
         -1   -1    0    0    0  501 -0.00000000000E+00 -0.00000000000E+00 -0.13351461340E+03  0.13351461340E+03  0.00000000000E+00 0.  1.
         23    2    1    2    0    0 -0.15081807730E+03 -0.50370849970E+03  0.13587046669E+04  0.14597214581E+04  0.90774545442E+02 0.  0.
         11    1    3    3    0    0 -0.77081624176E+02 -0.38160290025E+03  0.10429714936E+04  0.11132618231E+04  0.00000000000E+00 0.  1.
        -11    1    3    3    0    0 -0.73736453122E+02 -0.12210559945E+03  0.31573317334E+03  0.34645963500E+03  0.00000000000E+00 0. -1.
         22    1    1    2    0    0  0.15081807730E+03  0.50370849970E+03  0.74966738281E+03  0.91567981848E+03  0.00000000000E+00 0.  1.
<mgrwt>
<rscale>  0 0.10942114E+04</rscale>
<asrwt>0</asrwt>
<pdfrwt beam="1">  1        1 0.34490561E+00 0.10942114E+04</pdfrwt>
<pdfrwt beam="2">  1       -1 0.20540711E-01 0.10942114E+04</pdfrwt>
<totfact> 0.39991798E+01</totfact>
</mgrwt>
</event>
<event>
 6    1  0.1028026E-006  0.3024637E+04  0.7818608E-02  0.8236730E-01
         -1   -1    0    0    0  501 -0.00000000000E+00  0.00000000000E+00  0.65189906046E+03  0.65189906046E+03  0.00000000000E+00 0.  1.
          1   -1    0    0  501    0  0.00000000000E+00 -0.00000000000E+00 -0.35083773299E+04  0.35083773299E+04  0.00000000000E+00 0. -1.
         23    2    1    2    0    0  0.46487111409E+03 -0.94994252367E+03 -0.29145412922E+04  0.31010940333E+04  0.61133527888E+02 0.  0.
         11    1    3    3    0    0  0.18312956714E+03 -0.43000126289E+03 -0.12344121330E+04  0.13199283460E+04  0.00000000000E+00 0.  1.
        -11    1    3    3    0    0  0.28174154695E+03 -0.51994126078E+03 -0.16801291593E+04  0.17811656874E+04  0.00000000000E+00 0. -1.
         22    1    1    2    0    0 -0.46487111409E+03  0.94994252367E+03  0.58063022756E+02  0.10591823571E+04  0.00000000000E+00 0.  1.
<mgrwt>
<rscale>  0 0.30246374E+04</rscale>
<asrwt>0</asrwt>
<pdfrwt beam="1">  1        1 0.53975036E+00 0.30246374E+04</pdfrwt>
<pdfrwt beam="2">  1       -1 0.10029216E+00 0.30246374E+04</pdfrwt>
<totfact> 0.19771123E-01</totfact>
</mgrwt>
</event>
<event>
 6    1  0.1028026E-006  0.1336281E+04  0.7818608E-02  0.9001279E-01
          3   -1    0    0  501    0  0.00000000000E+00  0.00000000000E+00  0.43885353172E+03  0.43885353172E+03  0.00000000000E+00 0. -1.
         -3   -1    0    0    0  501 -0.00000000000E+00 -0.00000000000E+00 -0.10172223371E+04  0.10172223371E+04  0.00000000000E+00 0.  1.
         23    2    1    2    0    0 -0.32638232197E+03  0.23180665825E+03  0.28816846820E+03  0.50153587835E+03  0.90760257298E+02 0.  0.
         11    1    3    3    0    0 -0.26880488818E+03  0.14391303787E+03  0.22500907388E+03  0.37894077862E+03  0.00000000000E+00 0. -1.
        -11    1    3    3    0    0 -0.57577433792E+02  0.87893620382E+02  0.63159394327E+02  0.12259509973E+03  0.00000000000E+00 0.  1.
         22    1    1    2    0    0  0.32638232197E+03 -0.23180665825E+03 -0.86653727360E+03  0.95453999049E+03  0.00000000000E+00 0.  1.
<mgrwt>
<rscale>  0 0.13362808E+04</rscale>
<asrwt>0</asrwt>
<pdfrwt beam="1">  1        3 0.67515928E-01 0.13362808E+04</pdfrwt>
<pdfrwt beam="2">  1       -3 0.15649574E+00 0.13362808E+04</pdfrwt>
<totfact> 0.15610483E+00</totfact>
</mgrwt>
</event>
<event>
 6    1  0.1028026E-006  0.2073389E+04  0.7818608E-02  0.8573057E-01
         -2   -1    0    0    0  501 -0.00000000000E+00  0.00000000000E+00  0.67171617193E+03  0.67171617193E+03  0.00000000000E+00 0.  1.
          2   -1    0    0  501    0  0.00000000000E+00 -0.00000000000E+00 -0.15999845177E+04  0.15999845177E+04  0.00000000000E+00 0. -1.
         23    2    1    2    0    0  0.18293679472E+03 -0.10359038740E+03 -0.15750552314E+04  0.15916050238E+04  0.90613081030E+02 0.  0.
         11    1    3    3    0    0  0.13446846101E+03 -0.36265202421E+02 -0.11608003012E+04  0.11691254300E+04  0.00000000000E+00 0.  1.
        -11    1    3    3    0    0  0.48468333707E+02 -0.67325184983E+02 -0.41425493026E+03  0.42247959377E+03  0.00000000000E+00 0. -1.
         22    1    1    2    0    0 -0.18293679472E+03  0.10359038740E+03  0.64678688567E+03  0.68009566584E+03  0.00000000000E+00 0.  1.
<mgrwt>
<rscale>  0 0.20733890E+04</rscale>
<asrwt>0</asrwt>
<pdfrwt beam="1">  1        2 0.24615146E+00 0.20733890E+04</pdfrwt>
<pdfrwt beam="2">  1       -2 0.10334095E+00 0.20733890E+04</pdfrwt>
<totfact> 0.78665759E+00</totfact>
</mgrwt>
</event>
<event>
 6    1  0.1028026E-006  0.4301107E+04  0.7818608E-02  0.7946413E-01
          2   -1    0    0  501    0  0.00000000000E+00  0.00000000000E+00  0.18701890340E+04  0.18701890340E+04  0.00000000000E+00 0. -1.
         -2   -1    0    0    0  501 -0.00000000000E+00 -0.00000000000E+00 -0.24729482054E+04  0.24729482054E+04  0.00000000000E+00 0.  1.
         23    2    1    2    0    0  0.21284120254E+03 -0.20976574101E+04 -0.72441903154E+03  0.22312023187E+04  0.89514612060E+02 0.  0.
         13    1    3    3    0    0  0.12781901810E+03 -0.13832464478E+04 -0.51995210103E+03  0.14832594595E+04  0.00000000000E+00 0.  1.
        -13    1    3    3    0    0  0.85022184443E+02 -0.71441096233E+03 -0.20446693051E+03  0.74794285919E+03  0.00000000000E+00 0. -1.
         22    1    1    2    0    0 -0.21284120254E+03  0.20976574101E+04  0.12165986011E+03  0.21119349207E+04  0.00000000000E+00 0. -1.
<mgrwt>
<rscale>  0 0.43011071E+04</rscale>
<asrwt>0</asrwt>
<pdfrwt beam="1">  1        2 0.28772139E+00 0.43011071E+04</pdfrwt>
<pdfrwt beam="2">  1       -2 0.38045357E+00 0.43011071E+04</pdfrwt>
<totfact> 0.60392720E-02</totfact>
</mgrwt>
</event>
<event>
 6    1  0.1028026E-006  0.2998705E+04  0.7818608E-02  0.8244101E-01
         -2   -1    0    0    0  501 -0.00000000000E+00  0.00000000000E+00  0.12879648100E+04  0.12879648100E+04  0.00000000000E+00 0.  1.
          2   -1    0    0  501    0  0.00000000000E+00 -0.00000000000E+00 -0.17454348028E+04  0.17454348028E+04  0.00000000000E+00 0. -1.
         23    2    1    2    0    0 -0.95169407613E+03  0.11543352260E+04 -0.30491601636E+03  0.15295764370E+04  0.91754407456E+02 0.  0.
         11    1    3    3    0    0 -0.77637678695E+03  0.99092662968E+03 -0.24371201504E+03  0.12822215281E+04  0.00000000000E+00 0. -1.
        -11    1    3    3    0    0 -0.17531728918E+03  0.16340859627E+03 -0.61204001317E+02  0.24735490899E+03  0.00000000000E+00 0.  1.
         22    1    1    2    0    0  0.95169407613E+03 -0.11543352260E+04 -0.15255397641E+03  0.15038231758E+04  0.00000000000E+00 0. -1.
<mgrwt>
<rscale>  0 0.29987055E+04</rscale>
<asrwt>0</asrwt>
<pdfrwt beam="1">  1        2 0.26852843E+00 0.29987055E+04</pdfrwt>
<pdfrwt beam="2">  1       -2 0.19814843E+00 0.29987055E+04</pdfrwt>
<totfact> 0.10836404E+00</totfact>
</mgrwt>
</event>
<event>
 6    1  0.1028026E-006  0.4251072E+04  0.7818608E-02  0.7955728E-01
         -1   -1    0    0    0  501 -0.00000000000E+00  0.00000000000E+00  0.13912098738E+04  0.13912098738E+04  0.00000000000E+00 0.  1.
          1   -1    0    0  501    0  0.00000000000E+00 -0.00000000000E+00 -0.32474629932E+04  0.32474629932E+04  0.00000000000E+00 0. -1.
         23    2    1    2    0    0  0.55945174331E+03 -0.14734782760E+04  0.62596749098E+03  0.16983423344E+04  0.91689160155E+02 0.  0.
         13    1    3    3    0    0  0.27449381871E+03 -0.74720031894E+03  0.36455735384E+03  0.87553254502E+03  0.00000000000E+00 0. -1.
        -13    1    3    3    0    0  0.28495792460E+03 -0.72627795702E+03  0.26141013713E+03  0.82280978934E+03  0.00000000000E+00 0.  1.
         22    1    1    2    0    0 -0.55945174331E+03  0.14734782760E+04 -0.24822206103E+04  0.29403305326E+04  0.00000000000E+00 0. -1.
<mgrwt>
<rscale>  0 0.42510717E+04</rscale>
<asrwt>0</asrwt>
<pdfrwt beam="1">  1        1 0.49960969E+00 0.42510717E+04</pdfrwt>
<pdfrwt beam="2">  1       -1 0.21403229E+00 0.42510717E+04</pdfrwt>
<totfact> 0.36207007E-02</totfact>
</mgrwt>
</event>
<event>
 6    1  0.1028026E-006  0.1841531E+04  0.7818608E-02  0.8684520E-01
          1   -1    0    0  501    0  0.00000000000E+00  0.00000000000E+00  0.15396549503E+04  0.15396549503E+04  0.00000000000E+00 0. -1.
         -1   -1    0    0    0  501 -0.00000000000E+00 -0.00000000000E+00 -0.55064868313E+03  0.55064868313E+03  0.00000000000E+00 0.  1.
         23    2    1    2    0    0  0.42483570983E+03  0.54939054395E+03  0.11780112651E+04  0.13705548999E+04  0.91623374177E+02 0.  0.
         11    1    3    3    0    0  0.20305511022E+03  0.19216313280E+03  0.44612909774E+03  0.52648762496E+03  0.00000000000E+00 0. -1.
        -11    1    3    3    0    0  0.22178059960E+03  0.35722741115E+03  0.73188216740E+03  0.84406727493E+03  0.00000000000E+00 0.  1.
         22    1    1    2    0    0 -0.42483570983E+03 -0.54939054395E+03 -0.18900499799E+03  0.71974873351E+03  0.00000000000E+00 0. -1.
<mgrwt>
<rscale>  0 0.18415309E+04</rscale>
<asrwt>0</asrwt>
<pdfrwt beam="1">  1        1 0.23686999E+00 0.18415309E+04</pdfrwt>
<pdfrwt beam="2">  1       -1 0.84715183E-01 0.18415309E+04</pdfrwt>
<totfact> 0.79625102E+00</totfact>
</mgrwt>
</event>
<event>
 6    1  0.1028026E-006  0.1065557E+04  0.7818608E-02  0.9239428E-01
          1   -1    0    0  501    0  0.00000000000E+00  0.00000000000E+00  0.10496424724E+04  0.10496424724E+04  0.00000000000E+00 0. -1.
         -1   -1    0    0    0  501 -0.00000000000E+00 -0.00000000000E+00 -0.27042831250E+03  0.27042831250E+03  0.00000000000E+00 0.  1.
         23    2    1    2    0    0 -0.28146083068E+03  0.38408228606E+03  0.67744947413E+03  0.83314630105E+03  0.91954158607E+02 0.  0.
         11    1    3    3    0    0 -0.12139488444E+03  0.14238700518E+03  0.19463724115E+03  0.26998969028E+03  0.00000000000E+00 0.  1.
        -11    1    3    3    0    0 -0.16006594623E+03  0.24169528088E+03  0.48281223298E+03  0.56315661078E+03  0.00000000000E+00 0. -1.
         22    1    1    2    0    0  0.28146083068E+03 -0.38408228606E+03  0.10176468574E+03  0.48692448381E+03  0.00000000000E+00 0.  1.
<mgrwt>
<rscale>  0 0.10655572E+04</rscale>
<asrwt>0</asrwt>
<pdfrwt beam="1">  1        1 0.16148345E+00 0.10655572E+04</pdfrwt>
<pdfrwt beam="2">  1       -1 0.41604357E-01 0.10655572E+04</pdfrwt>
<totfact> 0.78297736E+01</totfact>
</mgrwt>
</event>
<event>
 6    1  0.1028026E-006  0.3239021E+04  0.7818608E-02  0.8178587E-01
         -2   -1    0    0    0  501 -0.00000000000E+00  0.00000000000E+00  0.16433125974E+04  0.16433125974E+04  0.00000000000E+00 0.  1.
          2   -1    0    0  501    0  0.00000000000E+00 -0.00000000000E+00 -0.15960531626E+04  0.15960531626E+04  0.00000000000E+00 0. -1.
         23    2    1    2    0    0  0.51527178379E+03 -0.23582128935E+02  0.15576339209E+04  0.16433418830E+04  0.91038371357E+02 0.  0.
         11    1    3    3    0    0  0.24627214497E+03 -0.53666295226E+02  0.80327394392E+03  0.84189017669E+03  0.00000000000E+00 0. -1.
        -11    1    3    3    0    0  0.26899963881E+03  0.30084166291E+02  0.75435997695E+03  0.80145170632E+03  0.00000000000E+00 0.  1.
         22    1    1    2    0    0 -0.51527178379E+03  0.23582128935E+02 -0.15103744861E+04  0.15960238771E+04  0.00000000000E+00 0. -1.
<mgrwt>
<rscale>  0 0.32390210E+04</rscale>
<asrwt>0</asrwt>
<pdfrwt beam="1">  1        2 0.24554664E+00 0.32390210E+04</pdfrwt>
<pdfrwt beam="2">  1       -2 0.25281732E+00 0.32390210E+04</pdfrwt>
<totfact> 0.58095926E-01</totfact>
</mgrwt>
</event>
<event>
 6    1  0.1028026E-006  0.1570023E+04  0.7818608E-02  0.8839179E-01
         -2   -1    0    0    0  501 -0.00000000000E+00  0.00000000000E+00  0.33486486217E+03  0.33486486217E+03  0.00000000000E+00 0.  1.
          2   -1    0    0  501    0  0.00000000000E+00 -0.00000000000E+00 -0.18402741427E+04  0.18402741427E+04  0.00000000000E+00 0. -1.
         23    2    1    2    0    0  0.59581573870E+03 -0.33023831847E+03 -0.12882250583E+04  0.14601405938E+04  0.91831428682E+02 0.  0.
         13    1    3    3    0    0  0.32155255606E+03 -0.20688036862E+03 -0.80101713471E+03  0.88759449262E+03  0.00000000000E+00 0.  1.
        -13    1    3    3    0    0  0.27426318263E+03 -0.12335794985E+03 -0.48720792362E+03  0.57254610118E+03  0.00000000000E+00 0. -1.
         22    1    1    2    0    0 -0.59581573870E+03  0.33023831847E+03 -0.21718422221E+03  0.71499841107E+03  0.00000000000E+00 0.  1.
<mgrwt>
<rscale>  0 0.15700231E+04</rscale>
<asrwt>0</asrwt>
<pdfrwt beam="1">  1        2 0.28311910E+00 0.15700231E+04</pdfrwt>
<pdfrwt beam="2">  1       -2 0.51517671E-01 0.15700231E+04</pdfrwt>
<totfact> 0.28037327E+01</totfact>
</mgrwt>
</event>
<event>
 6    1  0.1028026E-006  0.1067470E+04  0.7818608E-02  0.9237491E-01
          2   -1    0    0  501    0  0.00000000000E+00  0.00000000000E+00  0.12161037932E+04  0.12161037932E+04  0.00000000000E+00 0. -1.
         -2   -1    0    0    0  501 -0.00000000000E+00 -0.00000000000E+00 -0.23425068327E+03  0.23425068327E+03  0.00000000000E+00 0.  1.
         23    2    1    2    0    0 -0.34852643675E+03  0.30362849012E+03  0.14277317060E+03  0.49237948634E+03  0.91610278902E+02 0.  0.
         13    1    3    3    0    0 -0.11364041757E+03  0.11230101417E+03  0.94460941123E+02  0.18560315646E+03  0.00000000000E+00 0. -1.
        -13    1    3    3    0    0 -0.23488601918E+03  0.19132747595E+03  0.48312229472E+02  0.30677632988E+03  0.00000000000E+00 0.  1.
         22    1    1    2    0    0  0.34852643675E+03 -0.30362849012E+03  0.83907993935E+03  0.95797499015E+03  0.00000000000E+00 0. -1.
<mgrwt>
<rscale>  0 0.10674702E+04</rscale>
<asrwt>0</asrwt>
<pdfrwt beam="1">  1        2 0.18709289E+00 0.10674702E+04</pdfrwt>
<pdfrwt beam="2">  1       -2 0.36038567E-01 0.10674702E+04</pdfrwt>
<totfact> 0.13332777E+02</totfact>
</mgrwt>
</event>
<event>
 6    1  0.1028026E-006  0.1765814E+04  0.7818608E-02  0.8724693E-01
          1   -1    0    0  501    0  0.00000000000E+00  0.00000000000E+00  0.20642391532E+04  0.20642391532E+04  0.00000000000E+00 0. -1.
         -1   -1    0    0    0  501 -0.00000000000E+00 -0.00000000000E+00 -0.37763294641E+03  0.37763294641E+03  0.00000000000E+00 0.  1.
         23    2    1    2    0    0  0.59676311170E+03  0.28920711964E+03  0.16464425821E+04  0.17775076768E+04  0.94833514180E+02 0.  0.
         13    1    3    3    0    0  0.45981875937E+03  0.26120077365E+03  0.12555360669E+04  0.13623619016E+04  0.00000000000E+00 0. -1.
        -13    1    3    3    0    0  0.13694435233E+03  0.28006345992E+02  0.39090651522E+03  0.41514577523E+03  0.00000000000E+00 0.  1.
         22    1    1    2    0    0 -0.59676311170E+03 -0.28920711964E+03  0.40163624675E+02  0.66436442280E+03  0.00000000000E+00 0.  1.
<mgrwt>
<rscale>  0 0.17658139E+04</rscale>
<asrwt>0</asrwt>
<pdfrwt beam="1">  1        1 0.31757525E+00 0.17658139E+04</pdfrwt>
<pdfrwt beam="2">  1       -1 0.58097377E-01 0.17658139E+04</pdfrwt>
<totfact> 0.76578751E+00</totfact>
</mgrwt>
</event>
<event>
 6    1  0.1028026E-006  0.2344939E+04  0.7818608E-02  0.8460410E-01
         -1   -1    0    0    0  501 -0.00000000000E+00  0.00000000000E+00  0.15354895810E+04  0.15354895810E+04  0.00000000000E+00 0.  1.
          1   -1    0    0  501    0  0.00000000000E+00 -0.00000000000E+00 -0.89527429113E+03  0.89527429113E+03  0.00000000000E+00 0. -1.
         23    2    1    2    0    0 -0.59539408531E+03 -0.97419351081E+03  0.52380247998E+02  0.11465920963E+04  0.91556712899E+02 0.  0.
         13    1    3    3    0    0 -0.54053639887E+03 -0.91161680140E+03  0.67670504246E+02  0.10619812090E+04  0.00000000000E+00 0.  1.
        -13    1    3    3    0    0 -0.54857686432E+02 -0.62576709408E+02 -0.15290256248E+02  0.84610887344E+02  0.00000000000E+00 0. -1.
         22    1    1    2    0    0  0.59539408531E+03  0.97419351081E+03  0.58783504188E+03  0.12841717758E+04  0.00000000000E+00 0.  1.
<mgrwt>
<rscale>  0 0.23449387E+04</rscale>
<asrwt>0</asrwt>
<pdfrwt beam="1">  1        1 0.13773451E+00 0.23449387E+04</pdfrwt>
<pdfrwt beam="2">  1       -1 0.23622917E+00 0.23449387E+04</pdfrwt>
<totfact> 0.14190494E+00</totfact>
</mgrwt>
</event>
<event>
 6    1  0.1162919E-006  0.1709622E+04  0.7818608E-02  0.8755896E-01
          1   -1    0    0  501    0  0.00000000000E+00  0.00000000000E+00  0.19634923342E+04  0.19634923342E+04  0.00000000000E+00 0. -1.
         -1   -1    0    0    0  501 -0.00000000000E+00 -0.00000000000E+00 -0.37214378729E+03  0.37214378729E+03  0.00000000000E+00 0.  1.
         23    2    1    2    0    0  0.38922071201E+02 -0.69001910714E+03  0.11138281651E+03  0.70225317220E+03  0.55786111299E+02 0.  0.
         11    1    3    3    0    0  0.42732344883E+02 -0.37524145908E+03  0.42959858299E+02  0.38010229589E+03  0.00000000000E+00 0. -1.
        -11    1    3    3    0    0 -0.38102736819E+01 -0.31477764805E+03  0.68422958213E+02  0.32215087631E+03  0.00000000000E+00 0.  1.
         22    1    1    2    0    0 -0.38922071201E+02  0.69001910714E+03  0.14799657304E+04  0.16333829493E+04  0.00000000000E+00 0.  1.
<mgrwt>
<rscale>  0 0.17096216E+04</rscale>
<asrwt>0</asrwt>
<pdfrwt beam="1">  1        1 0.30207574E+00 0.17096216E+04</pdfrwt>
<pdfrwt beam="2">  1       -1 0.57252891E-01 0.17096216E+04</pdfrwt>
<totfact> 0.92693660E+00</totfact>
</mgrwt>
</event>
<event>
 6    1  0.1028026E-006  0.9192393E+03  0.7818608E-02  0.9401846E-01
          2   -1    0    0  501    0  0.00000000000E+00  0.00000000000E+00  0.14219290652E+04  0.14219290652E+04  0.00000000000E+00 0. -1.
         -2   -1    0    0    0  501 -0.00000000000E+00 -0.00000000000E+00 -0.14856592785E+03  0.14856592785E+03  0.00000000000E+00 0.  1.
         23    2    1    2    0    0 -0.20332962147E+03  0.36758225149E+03  0.94178853708E+03  0.10353301940E+04  0.92104915607E+02 0.  0.
         11    1    3    3    0    0 -0.87340721329E+02  0.14967751380E+03  0.28339269042E+03  0.33217943453E+03  0.00000000000E+00 0.  1.
        -11    1    3    3    0    0 -0.11598890014E+03  0.21790473769E+03  0.65839584666E+03  0.70315075948E+03  0.00000000000E+00 0. -1.
         22    1    1    2    0    0  0.20332962147E+03 -0.36758225149E+03  0.33157460024E+03  0.53516479901E+03  0.00000000000E+00 0.  1.
<mgrwt>
<rscale>  0 0.91923927E+03</rscale>
<asrwt>0</asrwt>
<pdfrwt beam="1">  1        2 0.21875831E+00 0.91923927E+03</pdfrwt>
<pdfrwt beam="2">  1       -2 0.22856298E-01 0.91923927E+03</pdfrwt>
<totfact> 0.23735732E+02</totfact>
</mgrwt>
</event>
<event>
 6    1  0.1028026E-006  0.2899756E+04  0.7818608E-02  0.8272950E-01
          2   -1    0    0  501    0  0.00000000000E+00  0.00000000000E+00  0.35241425136E+04  0.35241425136E+04  0.00000000000E+00 0. -1.
         -2   -1    0    0    0  501 -0.00000000000E+00 -0.00000000000E+00 -0.59649881477E+03  0.59649881477E+03  0.00000000000E+00 0.  1.
         23    2    1    2    0    0  0.50545140902E+03  0.67225823358E+03 -0.21038036787E+03  0.87185581642E+03  0.91980465045E+02 0.  0.
         11    1    3    3    0    0  0.95847876209E+02  0.10348149352E+03 -0.36820568411E+01  0.14109852025E+03  0.00000000000E+00 0. -1.
        -11    1    3    3    0    0  0.40960353281E+03  0.56877674006E+03 -0.20669831103E+03  0.73075729617E+03  0.00000000000E+00 0.  1.
         22    1    1    2    0    0 -0.50545140902E+03 -0.67225823358E+03  0.31380240667E+04  0.32487855119E+04  0.00000000000E+00 0. -1.
<mgrwt>
<rscale>  0 0.28997564E+04</rscale>
<asrwt>0</asrwt>
<pdfrwt beam="1">  1        2 0.54217576E+00 0.28997564E+04</pdfrwt>
<pdfrwt beam="2">  1       -2 0.91769051E-01 0.28997564E+04</pdfrwt>
<totfact> 0.68136186E-01</totfact>
</mgrwt>
</event>
<event>
 6    1  0.1028026E-006  0.2528047E+04  0.7818608E-02  0.8393061E-01
          2   -1    0    0  501    0  0.00000000000E+00  0.00000000000E+00  0.46454723912E+03  0.46454723912E+03  0.00000000000E+00 0. -1.
         -2   -1    0    0    0  501 -0.00000000000E+00 -0.00000000000E+00 -0.34393832578E+04  0.34393832578E+04  0.00000000000E+00 0.  1.
         23    2    1    2    0    0  0.76439557662E+03 -0.96712117038E+03 -0.19096002387E+04  0.22747125181E+04  0.90111111158E+02 0.  0.
         11    1    3    3    0    0  0.54759408347E+03 -0.62587297282E+03 -0.12994388558E+04  0.15427629754E+04  0.00000000000E+00 0. -1.
        -11    1    3    3    0    0  0.21680149315E+03 -0.34124819756E+03 -0.61016138293E+03  0.73194954265E+03  0.00000000000E+00 0.  1.
         22    1    1    2    0    0 -0.76439557662E+03  0.96712117038E+03 -0.10652357800E+04  0.16292179789E+04  0.00000000000E+00 0.  1.
<mgrwt>
<rscale>  0 0.25280475E+04</rscale>
<asrwt>0</asrwt>
<pdfrwt beam="1">  1        2 0.71468808E-01 0.25280475E+04</pdfrwt>
<pdfrwt beam="2">  1       -2 0.52913587E+00 0.25280475E+04</pdfrwt>
<totfact> 0.65535601E-02</totfact>
</mgrwt>
</event>
<event>
 6    1  0.1040276E-006  0.2671924E+04  0.7818608E-02  0.8344172E-01
         -2   -1    0    0    0  501 -0.00000000000E+00  0.00000000000E+00  0.88330062981E+03  0.88330062981E+03  0.00000000000E+00 0.  1.
          2   -1    0    0  501    0  0.00000000000E+00 -0.00000000000E+00 -0.20205969782E+04  0.20205969782E+04  0.00000000000E+00 0. -1.
         23    2    1    2    0    0 -0.55039202659E+03 -0.23957555814E+02 -0.18901829622E+04  0.19709755317E+04  0.91910654643E+02 0.  0.
         11    1    3    3    0    0 -0.11623305440E+03 -0.22796569918E+02 -0.53457386029E+03  0.54753905672E+03  0.00000000000E+00 0. -1.
        -11    1    3    3    0    0 -0.43415897218E+03 -0.11609858961E+01 -0.13556091019E+04  0.14234364749E+04  0.00000000000E+00 0.  1.
         22    1    1    2    0    0  0.55039202659E+03  0.23957555814E+02  0.75288661377E+03  0.93292207639E+03  0.00000000000E+00 0.  1.
<mgrwt>
<rscale>  0 0.26719241E+04</rscale>
<asrwt>0</asrwt>
<pdfrwt beam="1">  1        2 0.31086107E+00 0.26719241E+04</pdfrwt>
<pdfrwt beam="2">  1       -2 0.13589240E+00 0.26719241E+04</pdfrwt>
<totfact> 0.22196667E+00</totfact>
</mgrwt>
</event>
<event>
 6    1  0.1028026E-006  0.2018401E+04  0.7818608E-02  0.8598066E-01
          1   -1    0    0  501    0  0.00000000000E+00  0.00000000000E+00  0.26497801906E+04  0.26497801906E+04  0.00000000000E+00 0. -1.
         -1   -1    0    0    0  501 -0.00000000000E+00 -0.00000000000E+00 -0.38436595168E+03  0.38436595168E+03  0.00000000000E+00 0.  1.
         23    2    1    2    0    0 -0.99906103691E+03 -0.63743852432E+02  0.96982947032E+03  0.13968538266E+04  0.91897645777E+02 0.  0.
         13    1    3    3    0    0 -0.90286317480E+02  0.58566049827E+01  0.12332772318E+03  0.15295635407E+03  0.00000000000E+00 0. -1.
        -13    1    3    3    0    0 -0.90877471943E+03 -0.69600457415E+02  0.84650174714E+03  0.12438974726E+04  0.00000000000E+00 0.  1.
         22    1    1    2    0    0  0.99906103691E+03  0.63743852432E+02  0.12955847686E+04  0.16372923156E+04  0.00000000000E+00 0. -1.
<mgrwt>
<rscale>  0 0.20184006E+04</rscale>
<asrwt>0</asrwt>
<pdfrwt beam="1">  1        1 0.40765848E+00 0.20184006E+04</pdfrwt>
<pdfrwt beam="2">  1       -1 0.59133225E-01 0.20184006E+04</pdfrwt>
<totfact> 0.28606920E+00</totfact>
</mgrwt>
</event>
<event>
 6    1  0.1028026E-006  0.1736328E+04  0.7818608E-02  0.8740912E-01
         -1   -1    0    0    0  501 -0.00000000000E+00  0.00000000000E+00  0.43450910780E+03  0.43450910780E+03  0.00000000000E+00 0.  1.
          1   -1    0    0  501    0  0.00000000000E+00 -0.00000000000E+00 -0.17346204035E+04  0.17346204035E+04  0.00000000000E+00 0. -1.
         23    2    1    2    0    0  0.32233983125E+03 -0.80366762550E+03 -0.64668033090E+03  0.10843453646E+04  0.88457901545E+02 0.  0.
         11    1    3    3    0    0  0.15500493253E+03 -0.29737427876E+03 -0.21576324368E+03  0.39876279678E+03  0.00000000000E+00 0.  1.
        -11    1    3    3    0    0  0.16733489872E+03 -0.50629334675E+03 -0.43091708722E+03  0.68558256786E+03  0.00000000000E+00 0. -1.
         22    1    1    2    0    0 -0.32233983125E+03  0.80366762550E+03 -0.65343096480E+03  0.10847841467E+04  0.00000000000E+00 0. -1.
<mgrwt>
<rscale>  0 0.17363276E+04</rscale>
<asrwt>0</asrwt>
<pdfrwt beam="1">  1        1 0.26686468E+00 0.17363276E+04</pdfrwt>
<pdfrwt beam="2">  1       -1 0.66847554E-01 0.17363276E+04</pdfrwt>
<totfact> 0.97082534E+00</totfact>
</mgrwt>
</event>
<event>
 6    1  0.1028026E-006  0.3172165E+04  0.7818608E-02  0.8196207E-01
          2   -1    0    0  501    0  0.00000000000E+00  0.00000000000E+00  0.22761246984E+04  0.22761246984E+04  0.00000000000E+00 0. -1.
         -2   -1    0    0    0  501 -0.00000000000E+00 -0.00000000000E+00 -0.11052369522E+04  0.11052369522E+04  0.00000000000E+00 0.  1.
         23    2    1    2    0    0 -0.66303561540E+03  0.11007913748E+04 -0.40281549626E+03  0.13496383000E+04  0.88911971535E+02 0.  0.
         13    1    3    3    0    0 -0.41631556517E+03  0.60628368188E+03 -0.23439389563E+03  0.77190611542E+03  0.00000000000E+00 0.  1.
        -13    1    3    3    0    0 -0.24672005024E+03  0.49450769291E+03 -0.16842160062E+03  0.57773218457E+03  0.00000000000E+00 0. -1.
         22    1    1    2    0    0  0.66303561540E+03 -0.11007913748E+04  0.15737032425E+04  0.20317233506E+04  0.00000000000E+00 0.  1.
<mgrwt>
<rscale>  0 0.31721646E+04</rscale>
<asrwt>0</asrwt>
<pdfrwt beam="1">  1        2 0.35017303E+00 0.31721646E+04</pdfrwt>
<pdfrwt beam="2">  1       -2 0.17003645E+00 0.31721646E+04</pdfrwt>
<totfact> 0.84080806E-01</totfact>
</mgrwt>
</event>
<event>
 6    1  0.1028026E-006  0.3293816E+04  0.7818608E-02  0.8164471E-01
          1   -1    0    0  501    0  0.00000000000E+00  0.00000000000E+00  0.31589021901E+04  0.31589021901E+04  0.00000000000E+00 0. -1.
         -1   -1    0    0    0  501 -0.00000000000E+00 -0.00000000000E+00 -0.85862282568E+03  0.85862282568E+03  0.00000000000E+00 0.  1.
         23    2    1    2    0    0 -0.22732709795E+03 -0.14591015859E+04  0.20370518739E+04  0.25175437628E+04  0.88267848850E+02 0.  0.
         13    1    3    3    0    0 -0.54359855827E+02 -0.28645346838E+03  0.34661418863E+03  0.45293705880E+03  0.00000000000E+00 0.  1.
        -13    1    3    3    0    0 -0.17296724212E+03 -0.11726481175E+04  0.16904376852E+04  0.20646067040E+04  0.00000000000E+00 0. -1.
         22    1    1    2    0    0  0.22732709795E+03  0.14591015859E+04  0.26322749051E+03  0.14999812530E+04  0.00000000000E+00 0.  1.
<mgrwt>
<rscale>  0 0.32938157E+04</rscale>
<asrwt>0</asrwt>
<pdfrwt beam="1">  1        1 0.48598495E+00 0.32938157E+04</pdfrwt>
<pdfrwt beam="2">  1       -1 0.13209582E+00 0.32938157E+04</pdfrwt>
<totfact> 0.18424717E-01</totfact>
</mgrwt>
</event>
<event>
 6    1  0.1028026E-006  0.1242658E+04  0.7818608E-02  0.9076316E-01
         -2   -1    0    0    0  501 -0.00000000000E+00  0.00000000000E+00  0.31649643749E+03  0.31649643749E+03  0.00000000000E+00 0.  1.
          2   -1    0    0  501    0  0.00000000000E+00 -0.00000000000E+00 -0.12197610304E+04  0.12197610304E+04  0.00000000000E+00 0. -1.
         23    2    1    2    0    0  0.13136673761E+03 -0.13014819815E+03 -0.11830143614E+04  0.12009133070E+04  0.92054431863E+02 0.  0.
         13    1    3    3    0    0  0.10574530588E+03 -0.89120581319E+02 -0.59266125521E+03  0.60858188534E+03  0.00000000000E+00 0. -1.
        -13    1    3    3    0    0  0.25621431724E+02 -0.41027616829E+02 -0.59035310617E+03  0.59233142165E+03  0.00000000000E+00 0.  1.
         22    1    1    2    0    0 -0.13136673761E+03  0.13014819815E+03  0.27974976852E+03  0.33534416085E+03  0.00000000000E+00 0.  1.
<mgrwt>
<rscale>  0 0.12426585E+04</rscale>
<asrwt>0</asrwt>
<pdfrwt beam="1">  1        2 0.18765555E+00 0.12426585E+04</pdfrwt>
<pdfrwt beam="2">  1       -2 0.48691759E-01 0.12426585E+04</pdfrwt>
<totfact> 0.72427142E+01</totfact>
</mgrwt>
</event>
<event>
 6    1  0.1028026E-006  0.3751061E+04  0.7818608E-02  0.8056739E-01
         -2   -1    0    0    0  501 -0.00000000000E+00  0.00000000000E+00  0.20539793789E+04  0.20539793789E+04  0.00000000000E+00 0.  1.
          2   -1    0    0  501    0  0.00000000000E+00 -0.00000000000E+00 -0.17125852174E+04  0.17125852174E+04  0.00000000000E+00 0. -1.
         23    2    1    2    0    0  0.30551967063E+03 -0.79709421325E+03  0.18464461198E+04  0.20362805585E+04  0.91508391616E+02 0.  0.
         13    1    3    3    0    0  0.51971752624E+02 -0.61904248687E+02  0.16985076104E+03  0.18810231285E+03  0.00000000000E+00 0. -1.
        -13    1    3    3    0    0  0.25354791801E+03 -0.73518996456E+03  0.16765953588E+04  0.18481782457E+04  0.00000000000E+00 0.  1.
         22    1    1    2    0    0 -0.30551967063E+03  0.79709421325E+03 -0.15050519584E+04  0.17302840378E+04  0.00000000000E+00 0. -1.
<mgrwt>
<rscale>  0 0.37510610E+04</rscale>
<asrwt>0</asrwt>
<pdfrwt beam="1">  1        2 0.26347465E+00 0.37510610E+04</pdfrwt>
<pdfrwt beam="2">  1       -2 0.31599683E+00 0.37510610E+04</pdfrwt>
<totfact> 0.19687680E-01</totfact>
</mgrwt>
</event>
<event>
 6    1  0.1028026E-006  0.2130708E+04  0.7818608E-02  0.8547836E-01
         -2   -1    0    0    0  501 -0.00000000000E+00  0.00000000000E+00  0.64407446437E+03  0.64407446437E+03  0.00000000000E+00 0.  1.
          2   -1    0    0  501    0  0.00000000000E+00 -0.00000000000E+00 -0.17621859917E+04  0.17621859917E+04  0.00000000000E+00 0. -1.
         23    2    1    2    0    0 -0.17824576160E+03  0.10051655529E+04 -0.22373016209E+03  0.10490399998E+04  0.91106506524E+02 0.  0.
         11    1    3    3    0    0 -0.64980154058E+02  0.17611472406E+03 -0.52846103065E+02  0.19501673534E+03  0.00000000000E+00 0. -1.
        -11    1    3    3    0    0 -0.11326560754E+03  0.82905082887E+03 -0.17088405902E+03  0.85402326451E+03  0.00000000000E+00 0.  1.
         22    1    1    2    0    0  0.17824576160E+03 -0.10051655529E+04 -0.89438136526E+03  0.13572204562E+04  0.00000000000E+00 0. -1.
<mgrwt>
<rscale>  0 0.21307079E+04</rscale>
<asrwt>0</asrwt>
<pdfrwt beam="1">  1        2 0.27110554E+00 0.21307079E+04</pdfrwt>
<pdfrwt beam="2">  1       -2 0.99088380E-01 0.21307079E+04</pdfrwt>
<totfact> 0.70272816E+00</totfact>
</mgrwt>
</event>
<event>
 6    1  0.1028026E-006  0.1019416E+04  0.7818608E-02  0.9287502E-01
         -2   -1    0    0    0  501 -0.00000000000E+00  0.00000000000E+00  0.98702075188E+02  0.98702075188E+02  0.00000000000E+00 0.  1.
          2   -1    0    0  501    0  0.00000000000E+00 -0.00000000000E+00 -0.26321871737E+04  0.26321871737E+04  0.00000000000E+00 0. -1.
         23    2    1    2    0    0 -0.25067057619E+02  0.49874084626E+03 -0.10748756746E+04  0.11891654602E+04  0.96881302406E+02 0.  0.
         11    1    3    3    0    0 -0.30740779767E+02  0.14936879478E+03 -0.24304816809E+03  0.28692933696E+03  0.00000000000E+00 0. -1.
        -11    1    3    3    0    0  0.56737221477E+01  0.34937205148E+03 -0.83182750654E+03  0.90223612326E+03  0.00000000000E+00 0.  1.
         22    1    1    2    0    0  0.25067057619E+02 -0.49874084626E+03 -0.14586094239E+04  0.15417237887E+04  0.00000000000E+00 0. -1.
<mgrwt>
<rscale>  0 0.10194162E+04</rscale>
<asrwt>0</asrwt>
<pdfrwt beam="1">  1        2 0.40495184E+00 0.10194162E+04</pdfrwt>
<pdfrwt beam="2">  1       -2 0.15184936E-01 0.10194162E+04</pdfrwt>
<totfact> 0.10137155E+02</totfact>
</mgrwt>
</event>
<event>
 6    1  0.1028026E-006  0.1836509E+04  0.7818608E-02  0.8687122E-01
         -2   -1    0    0    0  501 -0.00000000000E+00  0.00000000000E+00  0.22108542990E+03  0.22108542990E+03  0.00000000000E+00 0.  1.
          2   -1    0    0  501    0  0.00000000000E+00 -0.00000000000E+00 -0.38138728687E+04  0.38138728687E+04  0.00000000000E+00 0. -1.
         23    2    1    2    0    0  0.67930830584E+03 -0.55062207101E+03 -0.24002075191E+04  0.25561441438E+04  0.90732077623E+02 0.  0.
         11    1    3    3    0    0  0.32515371992E+03 -0.22450295963E+03 -0.98542810477E+03  0.10616944335E+04  0.00000000000E+00 0. -1.
        -11    1    3    3    0    0  0.35415458593E+03 -0.32611911137E+03 -0.14147794143E+04  0.14944497103E+04  0.00000000000E+00 0.  1.
         22    1    1    2    0    0 -0.67930830584E+03  0.55062207101E+03 -0.11925799198E+04  0.14788141548E+04  0.00000000000E+00 0. -1.
<mgrwt>
<rscale>  0 0.18365094E+04</rscale>
<asrwt>0</asrwt>
<pdfrwt beam="1">  1        2 0.58674970E+00 0.18365094E+04</pdfrwt>
<pdfrwt beam="2">  1       -2 0.34013141E-01 0.18365094E+04</pdfrwt>
<totfact> 0.36918980E+00</totfact>
</mgrwt>
</event>
<event>
 6    1  0.1028026E-006  0.2967105E+04  0.7818608E-02  0.8253187E-01
         -2   -1    0    0    0  501 -0.00000000000E+00  0.00000000000E+00  0.16995830104E+04  0.16995830104E+04  0.00000000000E+00 0.  1.
          2   -1    0    0  501    0  0.00000000000E+00 -0.00000000000E+00 -0.12949812007E+04  0.12949812007E+04  0.00000000000E+00 0. -1.
         23    2    1    2    0    0  0.61463891338E+03  0.12563255223E+04  0.69758725287E+03  0.15655872058E+04  0.91107144565E+02 0.  0.
         11    1    3    3    0    0  0.40871319923E+03  0.73510545269E+03  0.42640946929E+03  0.94300134745E+03  0.00000000000E+00 0. -1.
        -11    1    3    3    0    0  0.20592571415E+03  0.52122006960E+03  0.27117778359E+03  0.62258585835E+03  0.00000000000E+00 0.  1.
         22    1    1    2    0    0 -0.61463891338E+03 -0.12563255223E+04 -0.29298544321E+03  0.14289770053E+04  0.00000000000E+00 0. -1.
<mgrwt>
<rscale>  0 0.29671050E+04</rscale>
<asrwt>0</asrwt>
<pdfrwt beam="1">  1        2 0.19922788E+00 0.29671050E+04</pdfrwt>
<pdfrwt beam="2">  1       -2 0.26147431E+00 0.29671050E+04</pdfrwt>
<totfact> 0.78063871E-01</totfact>
</mgrwt>
</event>
<event>
 6    1  0.1028026E-006  0.2017724E+04  0.7818608E-02  0.8598379E-01
          2   -1    0    0  501    0  0.00000000000E+00  0.00000000000E+00  0.33867855753E+04  0.33867855753E+04  0.00000000000E+00 0. -1.
         -2   -1    0    0    0  501 -0.00000000000E+00 -0.00000000000E+00 -0.30052168738E+03  0.30052168738E+03  0.00000000000E+00 0.  1.
         23    2    1    2    0    0 -0.82802734307E+03 -0.52958091259E+03  0.19446040369E+04  0.21808304327E+04  0.91930908641E+02 0.  0.
         11    1    3    3    0    0 -0.43369201134E+03 -0.33122416023E+03  0.10626814416E+04  0.11946087441E+04  0.00000000000E+00 0. -1.
        -11    1    3    3    0    0 -0.39433533173E+03 -0.19835675236E+03  0.88192259526E+03  0.98622168861E+03  0.00000000000E+00 0.  1.
         22    1    1    2    0    0  0.82802734307E+03  0.52958091259E+03  0.11416598510E+04  0.15064768300E+04  0.00000000000E+00 0.  1.
<mgrwt>
<rscale>  0 0.20177240E+04</rscale>
<asrwt>0</asrwt>
<pdfrwt beam="1">  1        2 0.52104391E+00 0.20177240E+04</pdfrwt>
<pdfrwt beam="2">  1       -2 0.46234108E-01 0.20177240E+04</pdfrwt>
<totfact> 0.40239993E+00</totfact>
</mgrwt>
</event>
<event>
 6    1  0.1028026E-006  0.1334719E+04  0.7818608E-02  0.9002477E-01
         -1   -1    0    0    0  501 -0.00000000000E+00  0.00000000000E+00  0.65193128680E+03  0.65193128680E+03  0.00000000000E+00 0.  1.
          1   -1    0    0  501    0  0.00000000000E+00 -0.00000000000E+00 -0.68315328376E+03  0.68315328376E+03  0.00000000000E+00 0. -1.
         23    2    1    2    0    0  0.11927413742E+02  0.39103205597E+03 -0.55260000477E+03  0.68325379573E+03  0.91764111198E+02 0.  0.
         13    1    3    3    0    0  0.48778162961E+02  0.26852177797E+03 -0.39802226705E+03  0.48260229951E+03  0.00000000000E+00 0.  1.
        -13    1    3    3    0    0 -0.36850749219E+02  0.12251027800E+03 -0.15457773772E+03  0.20065149621E+03  0.00000000000E+00 0. -1.
         22    1    1    2    0    0 -0.11927413742E+02 -0.39103205597E+03  0.52137800782E+03  0.65183077484E+03  0.00000000000E+00 0.  1.
<mgrwt>
<rscale>  0 0.13347194E+04</rscale>
<asrwt>0</asrwt>
<pdfrwt beam="1">  1        1 0.10510050E+00 0.13347194E+04</pdfrwt>
<pdfrwt beam="2">  1       -1 0.10029712E+00 0.13347194E+04</pdfrwt>
<totfact> 0.26238290E+01</totfact>
</mgrwt>
</event>
<event>
 6    1  0.1028026E-006  0.2238252E+04  0.7818608E-02  0.8502673E-01
         -2   -1    0    0    0  501 -0.00000000000E+00  0.00000000000E+00  0.66116375013E+03  0.66116375013E+03  0.00000000000E+00 0.  1.
          2   -1    0    0  501    0  0.00000000000E+00 -0.00000000000E+00 -0.18943010892E+04  0.18943010892E+04  0.00000000000E+00 0. -1.
         23    2    1    2    0    0  0.16921896222E+03  0.98532573400E+03 -0.48032375073E+02  0.10049889011E+04  0.90519186342E+02 0.  0.
         13    1    3    3    0    0  0.77975282880E+02  0.30522439855E+03  0.18541303039E+02  0.31557227085E+03  0.00000000000E+00 0.  1.
        -13    1    3    3    0    0  0.91243679340E+02  0.68010133545E+03 -0.66573678112E+02  0.68941663028E+03  0.00000000000E+00 0. -1.
         22    1    1    2    0    0 -0.16921896222E+03 -0.98532573400E+03 -0.11851049640E+04  0.15504759382E+04  0.00000000000E+00 0.  1.
<mgrwt>
<rscale>  0 0.22382522E+04</rscale>
<asrwt>0</asrwt>
<pdfrwt beam="1">  1        2 0.29143094E+00 0.22382522E+04</pdfrwt>
<pdfrwt beam="2">  1       -2 0.10171750E+00 0.22382522E+04</pdfrwt>
<totfact> 0.55280279E+00</totfact>
</mgrwt>
</event>
<event>
 6    1  0.1028026E-006  0.4404280E+04  0.7818608E-02  0.7927612E-01
         -1   -1    0    0    0  501 -0.00000000000E+00  0.00000000000E+00  0.13568892507E+04  0.13568892507E+04  0.00000000000E+00 0.  1.
          1   -1    0    0  501    0  0.00000000000E+00 -0.00000000000E+00 -0.35739251928E+04  0.35739251928E+04  0.00000000000E+00 0. -1.
         23    2    1    2    0    0  0.19446201457E+04  0.10312004117E+04 -0.10979348002E+04  0.24615414400E+04  0.93827689641E+02 0.  0.
         11    1    3    3    0    0  0.12882619398E+04  0.65975208921E+03 -0.76564492694E+03  0.16374076459E+04  0.00000000000E+00 0.  1.
        -11    1    3    3    0    0  0.65635820587E+03  0.37144832249E+03 -0.33228987329E+03  0.82413379411E+03  0.00000000000E+00 0. -1.
         22    1    1    2    0    0 -0.19446201457E+04 -0.10312004117E+04 -0.11191011418E+04  0.24692730035E+04  0.00000000000E+00 0. -1.
<mgrwt>
<rscale>  0 0.44042800E+04</rscale>
<asrwt>0</asrwt>
<pdfrwt beam="1">  1        1 0.54983465E+00 0.44042800E+04</pdfrwt>
<pdfrwt beam="2">  1       -1 0.20875219E+00 0.44042800E+04</pdfrwt>
<totfact> 0.21635074E-02</totfact>
</mgrwt>
</event>
<event>
 6    1  0.1028026E-006  0.1744382E+04  0.7818608E-02  0.8736449E-01
          1   -1    0    0  501    0  0.00000000000E+00  0.00000000000E+00  0.20308653349E+04  0.20308653349E+04  0.00000000000E+00 0. -1.
         -1   -1    0    0    0  501 -0.00000000000E+00 -0.00000000000E+00 -0.37457768317E+03  0.37457768317E+03  0.00000000000E+00 0.  1.
         23    2    1    2    0    0 -0.50520948503E+03  0.70390131733E+03  0.93560136307E+03  0.12784548127E+04  0.91559321000E+02 0.  0.
         11    1    3    3    0    0 -0.22300600061E+03  0.23490506007E+03  0.35019118961E+03  0.47701774897E+03  0.00000000000E+00 0. -1.
        -11    1    3    3    0    0 -0.28220348442E+03  0.46899625726E+03  0.58541017346E+03  0.80143706374E+03  0.00000000000E+00 0.  1.
         22    1    1    2    0    0  0.50520948503E+03 -0.70390131733E+03  0.72068628863E+03  0.11269882053E+04  0.00000000000E+00 0.  1.
<mgrwt>
<rscale>  0 0.17443816E+04</rscale>
<asrwt>0</asrwt>
<pdfrwt beam="1">  1        1 0.31244081E+00 0.17443816E+04</pdfrwt>
<pdfrwt beam="2">  1       -1 0.57627337E-01 0.17443816E+04</pdfrwt>
<totfact> 0.82129733E+00</totfact>
</mgrwt>
</event>
<event>
 6    1  0.1610296E-006  0.2778851E+04  0.7818608E-02  0.8309865E-01
         -2   -1    0    0    0  501 -0.00000000000E+00  0.00000000000E+00  0.69487024103E+03  0.69487024103E+03  0.00000000000E+00 0.  1.
          2   -1    0    0  501    0  0.00000000000E+00 -0.00000000000E+00 -0.27782209933E+04  0.27782209933E+04  0.00000000000E+00 0. -1.
         23    2    1    2    0    0  0.69848006184E+03 -0.83704402230E+03 -0.21163650793E+04  0.23824001516E+04  0.91171496129E+02 0.  0.
         11    1    3    3    0    0  0.44922330324E+03 -0.46888023537E+03 -0.12669488692E+04  0.14236606648E+04  0.00000000000E+00 0. -1.
        -11    1    3    3    0    0  0.24925675860E+03 -0.36816378693E+03 -0.84941621006E+03  0.95873948684E+03  0.00000000000E+00 0.  1.
         22    1    1    2    0    0 -0.69848006184E+03  0.83704402230E+03  0.33014327001E+02  0.10906910827E+04  0.00000000000E+00 0.  1.
<mgrwt>
<rscale>  0 0.27788509E+04</rscale>
<asrwt>0</asrwt>
<pdfrwt beam="1">  1        2 0.42741862E+00 0.27788509E+04</pdfrwt>
<pdfrwt beam="2">  1       -2 0.10690311E+00 0.27788509E+04</pdfrwt>
<totfact> 0.14621206E+00</totfact>
</mgrwt>
</event>
<event>
 6    1  0.1028026E-006  0.4542246E+04  0.7818608E-02  0.7903282E-01
          2   -1    0    0  501    0  0.00000000000E+00  0.00000000000E+00  0.37826279617E+04  0.37826279617E+04  0.00000000000E+00 0. -1.
         -2   -1    0    0    0  501 -0.00000000000E+00 -0.00000000000E+00 -0.13636022755E+04  0.13636022755E+04  0.00000000000E+00 0.  1.
         23    2    1    2    0    0 -0.11758594044E+04 -0.21560545306E+03 -0.97725453185E+03  0.15456955033E+04  0.70831621626E+02 0.  0.
         13    1    3    3    0    0 -0.10520621929E+04 -0.18797565353E+03 -0.84476893026E+03  0.13622790645E+04  0.00000000000E+00 0. -1.
        -13    1    3    3    0    0 -0.12379721156E+03 -0.27629799531E+02 -0.13248560159E+03  0.18341643885E+03  0.00000000000E+00 0.  1.
         22    1    1    2    0    0  0.11758594044E+04  0.21560545306E+03  0.33962802180E+04  0.36005347339E+04  0.00000000000E+00 0. -1.
<mgrwt>
<rscale>  0 0.45422462E+04</rscale>
<asrwt>0</asrwt>
<pdfrwt beam="1">  1        2 0.58194276E+00 0.45422462E+04</pdfrwt>
<pdfrwt beam="2">  1       -2 0.20978497E+00 0.45422462E+04</pdfrwt>
<totfact> 0.43780228E-02</totfact>
</mgrwt>
</event>
<event>
 6    1  0.1028026E-006  0.7082886E+03  0.7818608E-02  0.9703162E-01
         -2   -1    0    0    0  501 -0.00000000000E+00  0.00000000000E+00  0.11028318374E+03  0.11028318374E+03  0.00000000000E+00 0.  1.
          2   -1    0    0  501    0  0.00000000000E+00 -0.00000000000E+00 -0.11372377156E+04  0.11372377156E+04  0.00000000000E+00 0. -1.
         23    2    1    2    0    0  0.15946453520E+03 -0.30131696199E+03 -0.64848644313E+03  0.73814977359E+03  0.90053160755E+02 0.  0.
         11    1    3    3    0    0  0.96975394673E+02 -0.17467046189E+03 -0.28375266641E+03  0.34702964300E+03  0.00000000000E+00 0.  1.
        -11    1    3    3    0    0  0.62489140527E+02 -0.12664650010E+03 -0.36473377672E+03  0.39112013059E+03  0.00000000000E+00 0. -1.
         22    1    1    2    0    0 -0.15946453520E+03  0.30131696199E+03 -0.37846808875E+03  0.50937112577E+03  0.00000000000E+00 0. -1.
<mgrwt>
<rscale>  0 0.70828863E+03</rscale>
<asrwt>0</asrwt>
<pdfrwt beam="1">  1        2 0.17495964E+00 0.70828863E+03</pdfrwt>
<pdfrwt beam="2">  1       -2 0.16966645E-01 0.70828863E+03</pdfrwt>
<totfact> 0.59179464E+02</totfact>
</mgrwt>
</event>
<event>
 6    1  0.1028026E-006  0.1747626E+04  0.7818608E-02  0.8734658E-01
          2   -1    0    0  501    0  0.00000000000E+00  0.00000000000E+00  0.12202867239E+04  0.12202867239E+04  0.00000000000E+00 0. -1.
         -2   -1    0    0    0  501 -0.00000000000E+00 -0.00000000000E+00 -0.62571316352E+03  0.62571316352E+03  0.00000000000E+00 0.  1.
         23    2    1    2    0    0  0.21679855110E+02 -0.58388591431E+03 -0.38484355569E+03  0.70553916284E+03  0.91039392052E+02 0.  0.
         13    1    3    3    0    0 -0.45630456911E+01 -0.23571738740E+03 -0.10504251488E+03  0.25810354131E+03  0.00000000000E+00 0. -1.
        -13    1    3    3    0    0  0.26242900801E+02 -0.34816852691E+03 -0.27980104081E+03  0.44743562153E+03  0.00000000000E+00 0.  1.
         22    1    1    2    0    0 -0.21679855110E+02  0.58388591431E+03  0.97941711610E+03  0.11404607246E+04  0.00000000000E+00 0. -1.
<mgrwt>
<rscale>  0 0.17476264E+04</rscale>
<asrwt>0</asrwt>
<pdfrwt beam="1">  1        2 0.18773642E+00 0.17476264E+04</pdfrwt>
<pdfrwt beam="2">  1       -2 0.96263564E-01 0.17476264E+04</pdfrwt>
<totfact> 0.15781368E+01</totfact>
</mgrwt>
</event>
<event>
 6    1  0.1068777E-006  0.1940275E+04  0.7818608E-02  0.8635065E-01
         -2   -1    0    0    0  501 -0.00000000000E+00  0.00000000000E+00  0.80830238612E+03  0.80830238612E+03  0.00000000000E+00 0.  1.
          2   -1    0    0  501    0  0.00000000000E+00 -0.00000000000E+00 -0.11643746142E+04  0.11643746142E+04  0.00000000000E+00 0. -1.
         23    2    1    2    0    0  0.91617302895E+03 -0.28347690754E+03 -0.31246608831E+03  0.10126594633E+04  0.90066398170E+02 0.  0.
         11    1    3    3    0    0  0.46051505339E+03 -0.97870476945E+02 -0.16803124843E+03  0.49988723239E+03  0.00000000000E+00 0.  1.
        -11    1    3    3    0    0  0.45565797556E+03 -0.18560643060E+03 -0.14443483988E+03  0.51277223086E+03  0.00000000000E+00 0. -1.
         22    1    1    2    0    0 -0.91617302895E+03  0.28347690754E+03 -0.43606139790E+02  0.96001753709E+03  0.00000000000E+00 0.  1.
<mgrwt>
<rscale>  0 0.19402750E+04</rscale>
<asrwt>0</asrwt>
<pdfrwt beam="1">  1        2 0.17913456E+00 0.19402750E+04</pdfrwt>
<pdfrwt beam="2">  1       -2 0.12435421E+00 0.19402750E+04</pdfrwt>
<totfact> 0.90250013E+00</totfact>
</mgrwt>
</event>
<event>
 6    1  0.1028026E-006  0.2090646E+04  0.7818608E-02  0.8565375E-01
          1   -1    0    0  501    0  0.00000000000E+00  0.00000000000E+00  0.84441374738E+03  0.84441374738E+03  0.00000000000E+00 0. -1.
         -1   -1    0    0    0  501 -0.00000000000E+00 -0.00000000000E+00 -0.12940345480E+04  0.12940345480E+04  0.00000000000E+00 0.  1.
         23    2    1    2    0    0 -0.17489762417E+03  0.73168510462E+03  0.51405209815E+03  0.91590270231E+03  0.93144668310E+02 0.  0.
         13    1    3    3    0    0 -0.46082665235E+02  0.35752704213E+03  0.21320318569E+03  0.41881355789E+03  0.00000000000E+00 0.  1.
        -13    1    3    3    0    0 -0.12881495894E+03  0.37415806249E+03  0.30084891246E+03  0.49708914442E+03  0.00000000000E+00 0. -1.
         22    1    1    2    0    0  0.17489762417E+03 -0.73168510462E+03 -0.96367289872E+03  0.12225455930E+04  0.00000000000E+00 0.  1.
<mgrwt>
<rscale>  0 0.20906464E+04</rscale>
<asrwt>0</asrwt>
<pdfrwt beam="1">  1        1 0.12990981E+00 0.20906464E+04</pdfrwt>
<pdfrwt beam="2">  1       -1 0.19908224E+00 0.20906464E+04</pdfrwt>
<totfact> 0.28458005E+00</totfact>
</mgrwt>
</event>
<event>
 6    1  0.1028026E-006  0.1723537E+04  0.7818608E-02  0.8748053E-01
          2   -1    0    0  501    0  0.00000000000E+00  0.00000000000E+00  0.97817932140E+03  0.97817932140E+03  0.00000000000E+00 0. -1.
         -2   -1    0    0    0  501 -0.00000000000E+00 -0.00000000000E+00 -0.75921148403E+03  0.75921148403E+03  0.00000000000E+00 0.  1.
         23    2    1    2    0    0 -0.14227295420E+03  0.48859955821E+03 -0.58828148703E+03  0.78312533214E+03  0.90769246261E+02 0.  0.
         13    1    3    3    0    0 -0.23812860791E+02  0.12620239484E+03 -0.95371176620E+02  0.15996799096E+03  0.00000000000E+00 0.  1.
        -13    1    3    3    0    0 -0.11846009341E+03  0.36239716338E+03 -0.49291031041E+03  0.62315734118E+03  0.00000000000E+00 0. -1.
         22    1    1    2    0    0  0.14227295420E+03 -0.48859955821E+03  0.80724932440E+03  0.95426547330E+03  0.00000000000E+00 0. -1.
<mgrwt>
<rscale>  0 0.17235370E+04</rscale>
<asrwt>0</asrwt>
<pdfrwt beam="1">  1        2 0.15048913E+00 0.17235370E+04</pdfrwt>
<pdfrwt beam="2">  1       -2 0.11680177E+00 0.17235370E+04</pdfrwt>
<totfact> 0.14029706E+01</totfact>
</mgrwt>
</event>
<event>
 6    1  0.1028026E-006  0.2527270E+04  0.7818608E-02  0.8393334E-01
          1   -1    0    0  501    0  0.00000000000E+00  0.00000000000E+00  0.22686506053E+04  0.22686506053E+04  0.00000000000E+00 0. -1.
         -1   -1    0    0    0  501 -0.00000000000E+00 -0.00000000000E+00 -0.70384263531E+03  0.70384263531E+03  0.00000000000E+00 0.  1.
         23    2    1    2    0    0 -0.74854225855E+02  0.12329549393E+04  0.47633460440E+03  0.13261168240E+04  0.76877423890E+02 0.  0.
         13    1    3    3    0    0 -0.69455577991E+02  0.61300197727E+03  0.21505409817E+03  0.65333281457E+03  0.00000000000E+00 0.  1.
        -13    1    3    3    0    0 -0.53986478637E+01  0.61995296199E+03  0.26128050622E+03  0.67278400948E+03  0.00000000000E+00 0. -1.
         22    1    1    2    0    0  0.74854225855E+02 -0.12329549393E+04  0.10884733656E+04  0.16463764165E+04  0.00000000000E+00 0. -1.
<mgrwt>
<rscale>  0 0.25272697E+04</rscale>
<asrwt>0</asrwt>
<pdfrwt beam="1">  1        1 0.34902317E+00 0.25272697E+04</pdfrwt>
<pdfrwt beam="2">  1       -1 0.10828348E+00 0.25272697E+04</pdfrwt>
<totfact> 0.13723669E+00</totfact>
</mgrwt>
</event>
<event>
 6    1  0.1028026E-006  0.3733455E+04  0.7818608E-02  0.8060588E-01
          1   -1    0    0  501    0  0.00000000000E+00  0.00000000000E+00  0.10568404060E+04  0.10568404060E+04  0.00000000000E+00 0. -1.
         -1   -1    0    0    0  501 -0.00000000000E+00 -0.00000000000E+00 -0.32972543752E+04  0.32972543752E+04  0.00000000000E+00 0.  1.
         23    2    1    2    0    0  0.50551633812E+03 -0.47238571068E+03 -0.31414450139E+04  0.32180701462E+04  0.92755928487E+02 0.  0.
         13    1    3    3    0    0  0.30006899851E+03 -0.21830628540E+03 -0.17125836907E+04  0.17523247232E+04  0.00000000000E+00 0. -1.
        -13    1    3    3    0    0  0.20544733961E+03 -0.25407942528E+03 -0.14288613233E+04  0.14657454230E+04  0.00000000000E+00 0.  1.
         22    1    1    2    0    0 -0.50551633812E+03  0.47238571068E+03  0.90103104478E+03  0.11360246350E+04  0.00000000000E+00 0. -1.
<mgrwt>
<rscale>  0 0.37334551E+04</rscale>
<asrwt>0</asrwt>
<pdfrwt beam="1">  1        1 0.16259083E+00 0.37334551E+04</pdfrwt>
<pdfrwt beam="2">  1       -1 0.50726990E+00 0.37334551E+04</pdfrwt>
<totfact> 0.14643662E-02</totfact>
</mgrwt>
</event>
<event>
 6    1  0.1028026E-006  0.2483701E+04  0.7818608E-02  0.8408815E-01
          2   -1    0    0  501    0  0.00000000000E+00  0.00000000000E+00  0.22728599859E+04  0.22728599859E+04  0.00000000000E+00 0. -1.
         -2   -1    0    0    0  501 -0.00000000000E+00 -0.00000000000E+00 -0.67852516913E+03  0.67852516913E+03  0.00000000000E+00 0.  1.
         23    2    1    2    0    0 -0.68853867710E+03  0.99313681306E+03  0.11302353277E+04  0.16568603097E+04  0.85720189019E+02 0.  0.
         13    1    3    3    0    0 -0.16391244737E+03  0.30137353730E+03  0.33524960606E+03  0.47967238586E+03  0.00000000000E+00 0.  1.
        -13    1    3    3    0    0 -0.52462622973E+03  0.69176327576E+03  0.79498572160E+03  0.11771879239E+04  0.00000000000E+00 0. -1.
         22    1    1    2    0    0  0.68853867710E+03 -0.99313681306E+03  0.46409948914E+03  0.12945248453E+04  0.00000000000E+00 0.  1.
<mgrwt>
<rscale>  0 0.24837010E+04</rscale>
<asrwt>0</asrwt>
<pdfrwt beam="1">  1        2 0.34967077E+00 0.24837010E+04</pdfrwt>
<pdfrwt beam="2">  1       -2 0.10438849E+00 0.24837010E+04</pdfrwt>
<totfact> 0.31266918E+00</totfact>
</mgrwt>
</event>
<event>
 6    1  0.1028026E-006  0.7194739E+03  0.7818608E-02  0.9684497E-01
         -2   -1    0    0    0  501 -0.00000000000E+00  0.00000000000E+00  0.77982184992E+03  0.77982184992E+03  0.00000000000E+00 0.  1.
          2   -1    0    0  501    0  0.00000000000E+00 -0.00000000000E+00 -0.16594902273E+03  0.16594902273E+03  0.00000000000E+00 0. -1.
         23    2    1    2    0    0 -0.24462373388E+03 -0.22005600134E+03  0.14089008900E+03  0.36959547788E+03  0.92116150526E+02 0.  0.
         13    1    3    3    0    0  0.47339029212E+01  0.39571756544E+01  0.48107540962E+01  0.78238373578E+01  0.00000000000E+00 0. -1.
        -13    1    3    3    0    0 -0.24935763680E+03 -0.22401317699E+03  0.13607933490E+03  0.36177164052E+03  0.00000000000E+00 0.  1.
         22    1    1    2    0    0  0.24462373388E+03  0.22005600134E+03  0.47298273819E+03  0.57617539476E+03  0.00000000000E+00 0.  1.
<mgrwt>
<rscale>  0 0.71947390E+03</rscale>
<asrwt>0</asrwt>
<pdfrwt beam="1">  1        2 0.25530619E-01 0.71947390E+03</pdfrwt>
<pdfrwt beam="2">  1       -2 0.11997259E+00 0.71947390E+03</pdfrwt>
<totfact> 0.11483358E+02</totfact>
</mgrwt>
</event>
<event>
 6    1  0.1028026E-006  0.3857704E+03  0.7818608E-02  0.1048821E+00
          2   -1    0    0  501    0  0.00000000000E+00  0.00000000000E+00  0.46866793991E+03  0.46866793991E+03  0.00000000000E+00 0. -1.
         -2   -1    0    0    0  501 -0.00000000000E+00 -0.00000000000E+00 -0.79383918939E+02  0.79383918939E+02  0.00000000000E+00 0.  1.
         23    2    1    2    0    0  0.81726016023E+02  0.16001196279E+03  0.24760818839E+03  0.31923968376E+03  0.91220561293E+02 0.  0.
         11    1    3    3    0    0  0.56281124727E+02  0.13987742465E+03  0.13613583006E+03  0.20314089483E+03  0.00000000000E+00 0. -1.
        -11    1    3    3    0    0  0.25444891296E+02  0.20134538131E+02  0.11147235833E+03  0.11609878893E+03  0.00000000000E+00 0.  1.
         22    1    1    2    0    0 -0.81726016023E+02 -0.16001196279E+03  0.14167583258E+03  0.22881217509E+03  0.00000000000E+00 0.  1.
<mgrwt>
<rscale>  0 0.38577039E+03</rscale>
<asrwt>0</asrwt>
<pdfrwt beam="1">  1        2 0.72102758E-01 0.38577039E+03</pdfrwt>
<pdfrwt beam="2">  1       -2 0.12212911E-01 0.38577039E+03</pdfrwt>
<totfact> 0.32345628E+03</totfact>
</mgrwt>
</event>
<event>
 6    1  0.1028026E-006  0.3920303E+04  0.7818608E-02  0.8020820E-01
          2   -1    0    0  501    0  0.00000000000E+00  0.00000000000E+00  0.22430246784E+04  0.22430246784E+04  0.00000000000E+00 0. -1.
         -2   -1    0    0    0  501 -0.00000000000E+00 -0.00000000000E+00 -0.17129525332E+04  0.17129525332E+04  0.00000000000E+00 0.  1.
         23    2    1    2    0    0 -0.13657570020E+04  0.17017249322E+03 -0.11417037497E+04  0.17905475755E+04  0.91226652012E+02 0.  0.
         11    1    3    3    0    0 -0.49411188785E+03  0.82137497282E+02 -0.36540387957E+03  0.62001058166E+03  0.00000000000E+00 0.  1.
        -11    1    3    3    0    0 -0.87164511413E+03  0.88034995935E+02 -0.77629987015E+03  0.11705369938E+04  0.00000000000E+00 0. -1.
         22    1    1    2    0    0  0.13657570020E+04 -0.17017249322E+03  0.16717758949E+04  0.21654296361E+04  0.00000000000E+00 0. -1.
<mgrwt>
<rscale>  0 0.39203035E+04</rscale>
<asrwt>0</asrwt>
<pdfrwt beam="1">  1        2 0.34508072E+00 0.39203035E+04</pdfrwt>
<pdfrwt beam="2">  1       -2 0.26353116E+00 0.39203035E+04</pdfrwt>
<totfact> 0.20583713E-01</totfact>
</mgrwt>
</event>
<event>
 6    1  0.1028026E-006  0.3609699E+04  0.7818608E-02  0.8088274E-01
         -2   -1    0    0    0  501 -0.00000000000E+00  0.00000000000E+00  0.18830902885E+04  0.18830902885E+04  0.00000000000E+00 0.  1.
          2   -1    0    0  501    0  0.00000000000E+00 -0.00000000000E+00 -0.17298590958E+04  0.17298590958E+04  0.00000000000E+00 0. -1.
         23    2    1    2    0    0 -0.58392477931E+03 -0.98922023776E+03 -0.13151692658E+04  0.17486198177E+04  0.92066509914E+02 0.  0.
         11    1    3    3    0    0 -0.17093733532E+03 -0.23115856512E+03 -0.36982721402E+03  0.46842931491E+03  0.00000000000E+00 0. -1.
        -11    1    3    3    0    0 -0.41298744399E+03 -0.75806167265E+03 -0.94534205180E+03  0.12801905027E+04  0.00000000000E+00 0.  1.
         22    1    1    2    0    0  0.58392477931E+03  0.98922023776E+03  0.14684004585E+04  0.18643295667E+04  0.00000000000E+00 0.  1.
<mgrwt>
<rscale>  0 0.36096985E+04</rscale>
<asrwt>0</asrwt>
<pdfrwt beam="1">  1        2 0.26613217E+00 0.36096985E+04</pdfrwt>
<pdfrwt beam="2">  1       -2 0.28970620E+00 0.36096985E+04</pdfrwt>
<totfact> 0.28241838E-01</totfact>
</mgrwt>
</event>
<event>
 6    1  0.1028026E-006  0.1690799E+04  0.7818608E-02  0.8766630E-01
         -2   -1    0    0    0  501 -0.00000000000E+00  0.00000000000E+00  0.12999184622E+04  0.12999184622E+04  0.00000000000E+00 0.  1.
          2   -1    0    0  501    0  0.00000000000E+00 -0.00000000000E+00 -0.54980378587E+03  0.54980378587E+03  0.00000000000E+00 0. -1.
         23    2    1    2    0    0  0.38558667948E+03 -0.68725762707E+03  0.70346607415E+03  0.10603071320E+04  0.91578181843E+02 0.  0.
         13    1    3    3    0    0  0.35590129474E+03 -0.56687281203E+03  0.59137277726E+03  0.89315859639E+03  0.00000000000E+00 0.  1.
        -13    1    3    3    0    0  0.29685384746E+02 -0.12038481504E+03  0.11209329689E+03  0.16714853564E+03  0.00000000000E+00 0. -1.
         22    1    1    2    0    0 -0.38558667948E+03  0.68725762707E+03  0.46648602188E+02  0.78941511605E+03  0.00000000000E+00 0. -1.
<mgrwt>
<rscale>  0 0.16907987E+04</rscale>
<asrwt>0</asrwt>
<pdfrwt beam="1">  1        2 0.84585198E-01 0.16907987E+04</pdfrwt>
<pdfrwt beam="2">  1       -2 0.19998745E+00 0.16907987E+04</pdfrwt>
<totfact> 0.69699751E+00</totfact>
</mgrwt>
</event>
<event>
 6    1  0.1028026E-006  0.2832532E+04  0.7818608E-02  0.8293239E-01
          1   -1    0    0  501    0  0.00000000000E+00  0.00000000000E+00  0.19194910023E+04  0.19194910023E+04  0.00000000000E+00 0. -1.
         -1   -1    0    0    0  501 -0.00000000000E+00 -0.00000000000E+00 -0.10449695080E+04  0.10449695080E+04  0.00000000000E+00 0.  1.
         23    2    1    2    0    0  0.54972288807E+03  0.31693425869E+03 -0.88569075248E+03  0.10933673187E+04  0.91440726839E+02 0.  0.
         11    1    3    3    0    0  0.30273407824E+03  0.12879791670E+03 -0.49443310204E+03  0.59388628362E+03  0.00000000000E+00 0.  1.
        -11    1    3    3    0    0  0.24698880982E+03  0.18813634199E+03 -0.39125765044E+03  0.49948103506E+03  0.00000000000E+00 0. -1.
         22    1    1    2    0    0 -0.54972288807E+03 -0.31693425869E+03  0.17602122468E+04  0.18710931916E+04  0.00000000000E+00 0. -1.
<mgrwt>
<rscale>  0 0.28325321E+04</rscale>
<asrwt>0</asrwt>
<pdfrwt beam="1">  1        1 0.29530631E+00 0.28325321E+04</pdfrwt>
<pdfrwt beam="2">  1       -1 0.16076454E+00 0.28325321E+04</pdfrwt>
<totfact> 0.84132880E-01</totfact>
</mgrwt>
</event>
<event>
 6    1  0.1028026E-006  0.3482281E+04  0.7818608E-02  0.8118002E-01
          2   -1    0    0  501    0  0.00000000000E+00  0.00000000000E+00  0.23725130624E+04  0.23725130624E+04  0.00000000000E+00 0. -1.
         -2   -1    0    0    0  501 -0.00000000000E+00 -0.00000000000E+00 -0.12777889374E+04  0.12777889374E+04  0.00000000000E+00 0.  1.
         23    2    1    2    0    0 -0.10208403434E+04 -0.13429036055E+04  0.99540574185E+03  0.19605182144E+04  0.85404786108E+02 0.  0.
         13    1    3    3    0    0 -0.90301803465E+02 -0.15059078165E+03  0.12440969453E+03  0.21519705230E+03  0.00000000000E+00 0.  1.
        -13    1    3    3    0    0 -0.93053853996E+03 -0.11923128239E+04  0.87099604733E+03  0.17453211621E+04  0.00000000000E+00 0. -1.
         22    1    1    2    0    0  0.10208403434E+04  0.13429036055E+04  0.99318383140E+02  0.16897837855E+04  0.00000000000E+00 0. -1.
<mgrwt>
<rscale>  0 0.34822814E+04</rscale>
<asrwt>0</asrwt>
<pdfrwt beam="1">  1        2 0.36500201E+00 0.34822814E+04</pdfrwt>
<pdfrwt beam="2">  1       -2 0.19658291E+00 0.34822814E+04</pdfrwt>
<totfact> 0.47518243E-01</totfact>
</mgrwt>
</event>
<event>
 6    1  0.1028026E-006  0.3090803E+04  0.7818608E-02  0.8218266E-01
         -2   -1    0    0    0  501 -0.00000000000E+00  0.00000000000E+00  0.71306498105E+03  0.71306498105E+03  0.00000000000E+00 0.  1.
          2   -1    0    0  501    0  0.00000000000E+00 -0.00000000000E+00 -0.33492969447E+04  0.33492969447E+04  0.00000000000E+00 0. -1.
         23    2    1    2    0    0  0.13470790828E+04  0.68098645626E+03 -0.89176302983E+03  0.17555163587E+04  0.90729132623E+02 0.  0.
         11    1    3    3    0    0  0.63271109830E+03  0.34628604851E+03 -0.47089382844E+03  0.86138165697E+03  0.00000000000E+00 0.  1.
        -11    1    3    3    0    0  0.71436798451E+03  0.33470040775E+03 -0.42086920138E+03  0.89413470177E+03  0.00000000000E+00 0. -1.
         22    1    1    2    0    0 -0.13470790828E+04 -0.68098645626E+03 -0.17444689338E+04  0.23068455670E+04  0.00000000000E+00 0. -1.
<mgrwt>
<rscale>  0 0.30908034E+04</rscale>
<asrwt>0</asrwt>
<pdfrwt beam="1">  1        2 0.51527645E+00 0.30908034E+04</pdfrwt>
<pdfrwt beam="2">  1       -2 0.10970230E+00 0.30908034E+04</pdfrwt>
<totfact> 0.57940978E-01</totfact>
</mgrwt>
</event>
<event>
 6    1  0.1028026E-006  0.3116387E+04  0.7818608E-02  0.8211255E-01
          2   -1    0    0  501    0  0.00000000000E+00  0.00000000000E+00  0.11168984438E+04  0.11168984438E+04  0.00000000000E+00 0. -1.
         -2   -1    0    0    0  501 -0.00000000000E+00 -0.00000000000E+00 -0.21738473390E+04  0.21738473390E+04  0.00000000000E+00 0.  1.
         23    2    1    2    0    0  0.18749568923E+02  0.44489085785E+03  0.10463561183E+04  0.11408222024E+04  0.91294848300E+02 0.  0.
         13    1    3    3    0    0 -0.36684948826E+02  0.16670931364E+03  0.40958642162E+03  0.44373282221E+03  0.00000000000E+00 0. -1.
        -13    1    3    3    0    0  0.55434517749E+02  0.27818154421E+03  0.63676969671E+03  0.69708938017E+03  0.00000000000E+00 0.  1.
         22    1    1    2    0    0 -0.18749568923E+02 -0.44489085785E+03 -0.21033050135E+04  0.21499235804E+04  0.00000000000E+00 0.  1.
<mgrwt>
<rscale>  0 0.31163868E+04</rscale>
<asrwt>0</asrwt>
<pdfrwt beam="1">  1        2 0.17183053E+00 0.31163868E+04</pdfrwt>
<pdfrwt beam="2">  1       -2 0.33443805E+00 0.31163868E+04</pdfrwt>
<totfact> 0.35120003E-01</totfact>
</mgrwt>
</event>
<event>
 6    1  0.1692063E-006  0.2853303E+04  0.7818608E-02  0.8286908E-01
         -2   -1    0    0    0  501 -0.00000000000E+00  0.00000000000E+00  0.18141049648E+04  0.18141049648E+04  0.00000000000E+00 0.  1.
          2   -1    0    0  501    0  0.00000000000E+00 -0.00000000000E+00 -0.11219498522E+04  0.11219498522E+04  0.00000000000E+00 0. -1.
         23    2    1    2    0    0  0.44908564854E+03 -0.27877769737E+03 -0.10163876424E+04  0.11476160370E+04  0.67703800975E+02 0.  0.
         11    1    3    3    0    0  0.18660621683E+03 -0.11257072363E+03 -0.34891977236E+03  0.41138674689E+03  0.00000000000E+00 0. -1.
        -11    1    3    3    0    0  0.26247943171E+03 -0.16620697375E+03 -0.66746787001E+03  0.73622929016E+03  0.00000000000E+00 0.  1.
         22    1    1    2    0    0 -0.44908564854E+03  0.27877769737E+03  0.17085427550E+04  0.17884387800E+04  0.00000000000E+00 0.  1.
<mgrwt>
<rscale>  0 0.28533032E+04</rscale>
<asrwt>0</asrwt>
<pdfrwt beam="1">  1        2 0.17260767E+00 0.28533032E+04</pdfrwt>
<pdfrwt beam="2">  1       -2 0.27909307E+00 0.28533032E+04</pdfrwt>
<totfact> 0.78037258E-01</totfact>
</mgrwt>
</event>
<event>
 6    1  0.1028026E-006  0.3573521E+04  0.7818608E-02  0.8096584E-01
         -3   -1    0    0    0  501 -0.00000000000E+00  0.00000000000E+00  0.11436005199E+04  0.11436005199E+04  0.00000000000E+00 0.  1.
          3   -1    0    0  501    0  0.00000000000E+00 -0.00000000000E+00 -0.27916338836E+04  0.27916338836E+04  0.00000000000E+00 0. -1.
         23    2    1    2    0    0  0.14705973106E+04 -0.65312236183E+03  0.27747137030E+02  0.16119897853E+04  0.92281606360E+02 0.  0.
         13    1    3    3    0    0  0.19214967801E+03 -0.54232517372E+02  0.14086569002E+02  0.20015268203E+03  0.00000000000E+00 0. -1.
        -13    1    3    3    0    0  0.12784476326E+04 -0.59888984446E+03  0.13660568028E+02  0.14118371033E+04  0.00000000000E+00 0.  1.
         22    1    1    2    0    0 -0.14705973106E+04  0.65312236183E+03 -0.16757805008E+04  0.23232446182E+04  0.00000000000E+00 0. -1.
<mgrwt>
<rscale>  0 0.35735215E+04</rscale>
<asrwt>0</asrwt>
<pdfrwt beam="1">  1        3 0.42948214E+00 0.35735215E+04</pdfrwt>
<pdfrwt beam="2">  1       -3 0.17593854E+00 0.35735215E+04</pdfrwt>
<totfact> 0.34633357E-03</totfact>
</mgrwt>
</event>
<event>
 6    1  0.1028026E-006  0.1707491E+04  0.7818608E-02  0.8757104E-01
          2   -1    0    0  501    0  0.00000000000E+00  0.00000000000E+00  0.22035399623E+04  0.22035399623E+04  0.00000000000E+00 0. -1.
         -2   -1    0    0    0  501 -0.00000000000E+00 -0.00000000000E+00 -0.33077730361E+03  0.33077730361E+03  0.00000000000E+00 0.  1.
         23    2    1    2    0    0  0.29158778837E+03 -0.54553023294E+03  0.18071447071E+04  0.19122783692E+04  0.91705483521E+02 0.  0.
         13    1    3    3    0    0  0.86506234811E+02 -0.18955742787E+03  0.48740965684E+03  0.53007878726E+03  0.00000000000E+00 0.  1.
        -13    1    3    3    0    0  0.20508155356E+03 -0.35597280507E+03  0.13197350502E+04  0.13821995820E+04  0.00000000000E+00 0. -1.
         22    1    1    2    0    0 -0.29158778837E+03  0.54553023294E+03  0.65617951585E+02  0.62203889665E+03  0.00000000000E+00 0.  1.
<mgrwt>
<rscale>  0 0.17074906E+04</rscale>
<asrwt>0</asrwt>
<pdfrwt beam="1">  1        2 0.33900614E+00 0.17074906E+04</pdfrwt>
<pdfrwt beam="2">  1       -2 0.50888817E-01 0.17074906E+04</pdfrwt>
<totfact> 0.17852274E+01</totfact>
</mgrwt>
</event>
<event>
 6    1  0.1028026E-006  0.1411686E+04  0.7818608E-02  0.8945403E-01
          1   -1    0    0  501    0  0.00000000000E+00  0.00000000000E+00  0.70361638601E+03  0.70361638601E+03  0.00000000000E+00 0. -1.
         -1   -1    0    0    0  501 -0.00000000000E+00 -0.00000000000E+00 -0.70807648242E+03  0.70807648242E+03  0.00000000000E+00 0.  1.
         23    2    1    2    0    0  0.53517069955E+03 -0.34959989148E+03  0.29036503134E+03  0.70774001651E+03  0.89198193718E+02 0.  0.
         11    1    3    3    0    0  0.33079991018E+03 -0.16669056937E+03  0.18354019503E+03  0.41340214040E+03  0.00000000000E+00 0. -1.
        -11    1    3    3    0    0  0.20437078937E+03 -0.18290932210E+03  0.10682483631E+03  0.29433787611E+03  0.00000000000E+00 0.  1.
         22    1    1    2    0    0 -0.53517069955E+03  0.34959989148E+03 -0.29482512775E+03  0.70395285192E+03  0.00000000000E+00 0.  1.
<mgrwt>
<rscale>  0 0.14116858E+04</rscale>
<asrwt>0</asrwt>
<pdfrwt beam="1">  1        1 0.10824868E+00 0.14116858E+04</pdfrwt>
<pdfrwt beam="2">  1       -1 0.10893484E+00 0.14116858E+04</pdfrwt>
<totfact> 0.20572893E+01</totfact>
</mgrwt>
</event>
<event>
 6    1  0.1028026E-006  0.1794211E+04  0.7818608E-02  0.8709384E-01
          2   -1    0    0  501    0  0.00000000000E+00  0.00000000000E+00  0.10756864043E+04  0.10756864043E+04  0.00000000000E+00 0. -1.
         -2   -1    0    0    0  501 -0.00000000000E+00 -0.00000000000E+00 -0.74817161351E+03  0.74817161351E+03  0.00000000000E+00 0.  1.
         23    2    1    2    0    0 -0.85324945927E+03  0.11981933801E+03  0.40940328807E+03  0.95835409552E+03  0.91870597141E+02 0.  0.
         13    1    3    3    0    0 -0.56488048619E+03  0.50480341055E+02  0.30488093819E+03  0.64388711354E+03  0.00000000000E+00 0.  1.
        -13    1    3    3    0    0 -0.28836897307E+03  0.69338996952E+02  0.10452234988E+03  0.31446698198E+03  0.00000000000E+00 0. -1.
         22    1    1    2    0    0  0.85324945927E+03 -0.11981933801E+03 -0.81888497294E+02  0.86550392228E+03  0.00000000000E+00 0. -1.
<mgrwt>
<rscale>  0 0.17942107E+04</rscale>
<asrwt>0</asrwt>
<pdfrwt beam="1">  1        2 0.16549022E+00 0.17942107E+04</pdfrwt>
<pdfrwt beam="2">  1       -2 0.11510333E+00 0.17942107E+04</pdfrwt>
<totfact> 0.12536444E+01</totfact>
</mgrwt>
</event>
<event>
 6    1  0.1028026E-006  0.3074450E+04  0.7818608E-02  0.8222785E-01
         -1   -1    0    0    0  501 -0.00000000000E+00  0.00000000000E+00  0.20845069185E+04  0.20845069185E+04  0.00000000000E+00 0.  1.
          1   -1    0    0  501    0  0.00000000000E+00 -0.00000000000E+00 -0.11336306003E+04  0.11336306003E+04  0.00000000000E+00 0. -1.
         23    2    1    2    0    0  0.43916285801E+03  0.14622501998E+04  0.30150792570E+03  0.15590055253E+04  0.92474514842E+02 0.  0.
         11    1    3    3    0    0  0.31993267467E+03  0.11652570030E+04  0.21353042246E+03  0.12271006645E+04  0.00000000000E+00 0. -1.
        -11    1    3    3    0    0  0.11923018334E+03  0.29699319680E+03  0.87977503235E+02  0.33190486082E+03  0.00000000000E+00 0.  1.
         22    1    1    2    0    0 -0.43916285801E+03 -0.14622501998E+04  0.64936839252E+03  0.16591319935E+04  0.00000000000E+00 0.  1.
<mgrwt>
<rscale>  0 0.30744501E+04</rscale>
<asrwt>0</asrwt>
<pdfrwt beam="1">  1        1 0.17440471E+00 0.30744501E+04</pdfrwt>
<pdfrwt beam="2">  1       -1 0.32069337E+00 0.30744501E+04</pdfrwt>
<totfact> 0.24499975E-01</totfact>
</mgrwt>
</event>
<event>
 6    1  0.1028026E-006  0.2164531E+04  0.7818608E-02  0.8533338E-01
         -2   -1    0    0    0  501 -0.00000000000E+00  0.00000000000E+00  0.53262902962E+03  0.53262902962E+03  0.00000000000E+00 0.  1.
          2   -1    0    0  501    0  0.00000000000E+00 -0.00000000000E+00 -0.21990896049E+04  0.21990896049E+04  0.00000000000E+00 0. -1.
         23    2    1    2    0    0 -0.50433283733E+03 -0.48284633967E+02  0.36973310409E+03  0.63344131334E+03  0.88669681954E+02 0.  0.
         13    1    3    3    0    0 -0.37557549332E+03 -0.74090451217E+02  0.26736623093E+03  0.46693794832E+03  0.00000000000E+00 0.  1.
        -13    1    3    3    0    0 -0.12875734401E+03  0.25805817249E+02  0.10236687316E+03  0.16650336502E+03  0.00000000000E+00 0. -1.
         22    1    1    2    0    0  0.50433283733E+03  0.48284633967E+02 -0.20361936793E+04  0.20982773212E+04  0.00000000000E+00 0. -1.
<mgrwt>
<rscale>  0 0.21645313E+04</rscale>
<asrwt>0</asrwt>
<pdfrwt beam="1">  1        2 0.33832147E+00 0.21645313E+04</pdfrwt>
<pdfrwt beam="2">  1       -2 0.81942930E-01 0.21645313E+04</pdfrwt>
<totfact> 0.62051003E+00</totfact>
</mgrwt>
</event>
<event>
 6    1  0.1028026E-006  0.3735506E+04  0.7818608E-02  0.8060138E-01
         -2   -1    0    0    0  501 -0.00000000000E+00  0.00000000000E+00  0.23441814647E+04  0.23441814647E+04  0.00000000000E+00 0.  1.
          2   -1    0    0  501    0  0.00000000000E+00 -0.00000000000E+00 -0.14881534082E+04  0.14881534082E+04  0.00000000000E+00 0. -1.
         23    2    1    2    0    0 -0.15651382565E+04  0.31992656942E+03  0.14189521884E+04  0.21385537920E+04  0.89309778929E+02 0.  0.
         13    1    3    3    0    0 -0.81355056885E+03  0.19569498657E+03  0.69716572756E+03  0.10891286001E+04  0.00000000000E+00 0. -1.
        -13    1    3    3    0    0 -0.75158768762E+03  0.12423158285E+03  0.72178646088E+03  0.10494251919E+04  0.00000000000E+00 0.  1.
         22    1    1    2    0    0  0.15651382565E+04 -0.31992656942E+03 -0.56292413190E+03  0.16937810809E+04  0.00000000000E+00 0. -1.
<mgrwt>
<rscale>  0 0.37355062E+04</rscale>
<asrwt>0</asrwt>
<pdfrwt beam="1">  1        2 0.22894668E+00 0.37355062E+04</pdfrwt>
<pdfrwt beam="2">  1       -2 0.36064330E+00 0.37355062E+04</pdfrwt>
<totfact> 0.13836035E-01</totfact>
</mgrwt>
</event>
<event>
 6    1  0.1028026E-006  0.4982691E+04  0.7818608E-02  0.7831183E-01
         -2   -1    0    0    0  501 -0.00000000000E+00  0.00000000000E+00  0.12475253861E+04  0.12475253861E+04  0.00000000000E+00 0.  1.
          2   -1    0    0  501    0  0.00000000000E+00 -0.00000000000E+00 -0.49752921189E+04  0.49752921189E+04  0.00000000000E+00 0. -1.
         23    2    1    2    0    0  0.85047748540E+03 -0.23367569530E+04 -0.20370984266E+04  0.32158083044E+04  0.88927165163E+02 0.  0.
         11    1    3    3    0    0  0.32913930392E+03 -0.78112211907E+03 -0.69435575132E+03  0.10957254928E+04  0.00000000000E+00 0. -1.
        -11    1    3    3    0    0  0.52133818148E+03 -0.15556348339E+04 -0.13427426753E+04  0.21200828116E+04  0.00000000000E+00 0.  1.
         22    1    1    2    0    0 -0.85047748540E+03  0.23367569530E+04 -0.16906683062E+04  0.30070092005E+04  0.00000000000E+00 0.  1.
<mgrwt>
<rscale>  0 0.49826913E+04</rscale>
<asrwt>0</asrwt>
<pdfrwt beam="1">  1        2 0.76542957E+00 0.49826913E+04</pdfrwt>
<pdfrwt beam="2">  1       -2 0.19192698E+00 0.49826913E+04</pdfrwt>
<totfact> 0.39771975E-03</totfact>
</mgrwt>
</event>
<event>
 6    1  0.1028026E-006  0.1762278E+04  0.7818608E-02  0.8726621E-01
          1   -1    0    0  501    0  0.00000000000E+00  0.00000000000E+00  0.55989684117E+03  0.55989684117E+03  0.00000000000E+00 0. -1.
         -1   -1    0    0    0  501 -0.00000000000E+00 -0.00000000000E+00 -0.13866940428E+04  0.13866940428E+04  0.00000000000E+00 0.  1.
         23    2    1    2    0    0 -0.80457592922E+03 -0.35336661405E+03 -0.43017165558E+03  0.98247356044E+03  0.89421775328E+02 0.  0.
         11    1    3    3    0    0 -0.14262477272E+03 -0.10111021927E+03 -0.80005844242E+02  0.19226553864E+03  0.00000000000E+00 0. -1.
        -11    1    3    3    0    0 -0.66195115650E+03 -0.25225639477E+03 -0.35016581134E+03  0.79020802180E+03  0.00000000000E+00 0.  1.
         22    1    1    2    0    0  0.80457592922E+03  0.35336661405E+03 -0.39662554608E+03  0.96411732357E+03  0.00000000000E+00 0. -1.
<mgrwt>
<rscale>  0 0.17622776E+04</rscale>
<asrwt>0</asrwt>
<pdfrwt beam="1">  1        1 0.86137977E-01 0.17622776E+04</pdfrwt>
<pdfrwt beam="2">  1       -1 0.21333754E+00 0.17622776E+04</pdfrwt>
<totfact> 0.43683806E+00</totfact>
</mgrwt>
</event>
<event>
 6    1  0.1028026E-006  0.4413575E+04  0.7818608E-02  0.7925944E-01
          1   -1    0    0  501    0  0.00000000000E+00  0.00000000000E+00  0.17847579311E+04  0.17847579311E+04  0.00000000000E+00 0. -1.
         -1   -1    0    0    0  501 -0.00000000000E+00 -0.00000000000E+00 -0.27286109625E+04  0.27286109625E+04  0.00000000000E+00 0.  1.
         23    2    1    2    0    0 -0.20107845757E+04  0.90112607765E+03 -0.36850831065E+03  0.22360229899E+04  0.93368190683E+02 0.  0.
         13    1    3    3    0    0 -0.83278470178E+03  0.32343619231E+03 -0.14305569260E+03  0.90476862302E+03  0.00000000000E+00 0. -1.
        -13    1    3    3    0    0 -0.11779998739E+04  0.57768988534E+03 -0.22545261805E+03  0.13312543669E+04  0.00000000000E+00 0.  1.
         22    1    1    2    0    0  0.20107845757E+04 -0.90112607765E+03 -0.57534472072E+03  0.22773459037E+04  0.00000000000E+00 0.  1.
<mgrwt>
<rscale>  0 0.44135745E+04</rscale>
<asrwt>0</asrwt>
<pdfrwt beam="1">  1        1 0.27457814E+00 0.44135745E+04</pdfrwt>
<pdfrwt beam="2">  1       -1 0.41978630E+00 0.44135745E+04</pdfrwt>
<totfact> 0.16517086E-02</totfact>
</mgrwt>
</event>
<event>
 6    1  0.1028026E-006  0.2705704E+04  0.7818608E-02  0.8333157E-01
         -2   -1    0    0    0  501 -0.00000000000E+00  0.00000000000E+00  0.58841304638E+03  0.58841304638E+03  0.00000000000E+00 0.  1.
          2   -1    0    0  501    0  0.00000000000E+00 -0.00000000000E+00 -0.31104150828E+04  0.31104150828E+04  0.00000000000E+00 0. -1.
         23    2    1    2    0    0  0.95519191820E+03 -0.91964799935E+03 -0.90619153226E+03  0.16086157886E+04  0.91200980666E+02 0.  0.
         13    1    3    3    0    0  0.87152527870E+02 -0.55174851005E+02 -0.55363831596E+02  0.11706827558E+03  0.00000000000E+00 0. -1.
        -13    1    3    3    0    0  0.86803939033E+03 -0.86447314834E+03 -0.85082770067E+03  0.14915475130E+04  0.00000000000E+00 0.  1.
         22    1    1    2    0    0 -0.95519191820E+03  0.91964799935E+03 -0.16158105041E+04  0.20902123405E+04  0.00000000000E+00 0.  1.
<mgrwt>
<rscale>  0 0.27057042E+04</rscale>
<asrwt>0</asrwt>
<pdfrwt beam="1">  1        2 0.47852540E+00 0.27057042E+04</pdfrwt>
<pdfrwt beam="2">  1       -2 0.90525083E-01 0.27057042E+04</pdfrwt>
<totfact> 0.13546318E+00</totfact>
</mgrwt>
</event>
<event>
 6    1  0.1028026E-006  0.1580517E+04  0.7818608E-02  0.8832607E-01
         -1   -1    0    0    0  501 -0.00000000000E+00  0.00000000000E+00  0.23020062714E+03  0.23020062714E+03  0.00000000000E+00 0.  1.
          1   -1    0    0  501    0  0.00000000000E+00 -0.00000000000E+00 -0.27128890127E+04  0.27128890127E+04  0.00000000000E+00 0. -1.
         23    2    1    2    0    0  0.10993525320E+02 -0.25235683126E+03 -0.26346212583E+04  0.26483212126E+04  0.92581005993E+02 0.  0.
         11    1    3    3    0    0  0.72359149518E+01 -0.23033850191E+03 -0.25619683092E+04  0.25723121509E+04  0.00000000000E+00 0.  1.
        -11    1    3    3    0    0  0.37576103679E+01 -0.22018329343E+02 -0.72652949063E+02  0.76009061764E+02  0.00000000000E+00 0. -1.
         22    1    1    2    0    0 -0.10993525320E+02  0.25235683126E+03  0.15193287272E+03  0.29476842723E+03  0.00000000000E+00 0.  1.
<mgrwt>
<rscale>  0 0.15805173E+04</rscale>
<asrwt>0</asrwt>
<pdfrwt beam="1">  1        1 0.41736753E+00 0.15805173E+04</pdfrwt>
<pdfrwt beam="2">  1       -1 0.35415482E-01 0.15805173E+04</pdfrwt>
<totfact> 0.70393702E+00</totfact>
</mgrwt>
</event>
<event>
 6    1  0.1028026E-006  0.2702264E+04  0.7818608E-02  0.8334271E-01
          2   -1    0    0  501    0  0.00000000000E+00  0.00000000000E+00  0.24015279059E+04  0.24015279059E+04  0.00000000000E+00 0. -1.
         -2   -1    0    0    0  501 -0.00000000000E+00 -0.00000000000E+00 -0.76016494528E+03  0.76016494528E+03  0.00000000000E+00 0.  1.
         23    2    1    2    0    0 -0.77399652924E+03 -0.43537840715E+01 -0.47193738419E+03  0.91110894249E+03  0.91131925039E+02 0.  0.
         11    1    3    3    0    0 -0.45806094593E+03  0.41671393371E+02 -0.28681160183E+03  0.54204910309E+03  0.00000000000E+00 0.  1.
        -11    1    3    3    0    0 -0.31593558331E+03 -0.46025177443E+02 -0.18512578236E+03  0.36905983940E+03  0.00000000000E+00 0. -1.
         22    1    1    2    0    0  0.77399652924E+03  0.43537840715E+01  0.21133003448E+04  0.22505839087E+04  0.00000000000E+00 0. -1.
<mgrwt>
<rscale>  0 0.27022637E+04</rscale>
<asrwt>0</asrwt>
<pdfrwt beam="1">  1        2 0.36946583E+00 0.27022637E+04</pdfrwt>
<pdfrwt beam="2">  1       -2 0.11694845E+00 0.27022637E+04</pdfrwt>
<totfact> 0.19689353E+00</totfact>
</mgrwt>
</event>
<event>
 6    1  0.1028026E-006  0.4000718E+04  0.7818608E-02  0.8004402E-01
         -2   -1    0    0    0  501 -0.00000000000E+00  0.00000000000E+00  0.15756534570E+04  0.15756534570E+04  0.00000000000E+00 0.  1.
          2   -1    0    0  501    0  0.00000000000E+00 -0.00000000000E+00 -0.25395406932E+04  0.25395406932E+04  0.00000000000E+00 0. -1.
         23    2    1    2    0    0 -0.10834797824E+04  0.11530377055E+04 -0.17395347323E+04  0.23530779714E+04  0.87008422970E+02 0.  0.
         13    1    3    3    0    0 -0.56308252130E+03  0.65792961400E+03 -0.92685159195E+03  0.12684585828E+04  0.00000000000E+00 0.  1.
        -13    1    3    3    0    0 -0.52039726110E+03  0.49510809148E+03 -0.81268314036E+03  0.10846193886E+04  0.00000000000E+00 0. -1.
         22    1    1    2    0    0  0.10834797824E+04 -0.11530377055E+04  0.77564749606E+03  0.17621161787E+04  0.00000000000E+00 0.  1.
<mgrwt>
<rscale>  0 0.40007180E+04</rscale>
<asrwt>0</asrwt>
<pdfrwt beam="1">  1        2 0.39069857E+00 0.40007180E+04</pdfrwt>
<pdfrwt beam="2">  1       -2 0.24240822E+00 0.40007180E+04</pdfrwt>
<totfact> 0.18641071E-01</totfact>
</mgrwt>
</event>
<event>
 6    1  0.1028026E-006  0.1962518E+04  0.7818608E-02  0.8624348E-01
         -2   -1    0    0    0  501 -0.00000000000E+00  0.00000000000E+00  0.37516733103E+03  0.37516733103E+03  0.00000000000E+00 0.  1.
          2   -1    0    0  501    0  0.00000000000E+00 -0.00000000000E+00 -0.25665068741E+04  0.25665068741E+04  0.00000000000E+00 0. -1.
         23    2    1    2    0    0 -0.49286491319E+02  0.96989336225E+03 -0.91163526279E+03  0.13351981433E+04  0.92482090466E+02 0.  0.
         13    1    3    3    0    0 -0.12818438187E+02  0.27840052988E+03 -0.20607427103E+03  0.34660896206E+03  0.00000000000E+00 0. -1.
        -13    1    3    3    0    0 -0.36468053133E+02  0.69149283237E+03 -0.70556099176E+03  0.98858918121E+03  0.00000000000E+00 0.  1.
         22    1    1    2    0    0  0.49286491319E+02 -0.96989336225E+03 -0.12797042802E+04  0.16064760618E+04  0.00000000000E+00 0. -1.
<mgrwt>
<rscale>  0 0.19625183E+04</rscale>
<asrwt>0</asrwt>
<pdfrwt beam="1">  1        2 0.39484721E+00 0.19625183E+04</pdfrwt>
<pdfrwt beam="2">  1       -2 0.57718051E-01 0.19625183E+04</pdfrwt>
<totfact> 0.83464200E+00</totfact>
</mgrwt>
</event>
<event>
 6    1  0.1028026E-006  0.1840836E+04  0.7818608E-02  0.8684880E-01
         -1   -1    0    0    0  501 -0.00000000000E+00  0.00000000000E+00  0.61400275580E+03  0.61400275580E+03  0.00000000000E+00 0.  1.
          1   -1    0    0  501    0  0.00000000000E+00 -0.00000000000E+00 -0.13797484859E+04  0.13797484859E+04  0.00000000000E+00 0. -1.
         23    2    1    2    0    0  0.15479018644E+03  0.21480845951E+03  0.56828443125E+03  0.63370008550E+03  0.92335948905E+02 0.  0.
         11    1    3    3    0    0  0.83919016941E+02  0.18008770881E+03  0.36383936863E+03  0.41455164989E+03  0.00000000000E+00 0. -1.
        -11    1    3    3    0    0  0.70871169500E+02  0.34720750708E+02  0.20444506262E+03  0.21914843560E+03  0.00000000000E+00 0.  1.
         22    1    1    2    0    0 -0.15479018644E+03 -0.21480845951E+03 -0.13340301614E+04  0.13600511562E+04  0.00000000000E+00 0. -1.
<mgrwt>
<rscale>  0 0.18408361E+04</rscale>
<asrwt>0</asrwt>
<pdfrwt beam="1">  1        1 0.21226900E+00 0.18408361E+04</pdfrwt>
<pdfrwt beam="2">  1       -1 0.94461964E-01 0.18408361E+04</pdfrwt>
<totfact> 0.80966038E+00</totfact>
</mgrwt>
</event>
<event>
 6    1  0.1028026E-006  0.1110315E+04  0.7818608E-02  0.9195196E-01
          2   -1    0    0  501    0  0.00000000000E+00  0.00000000000E+00  0.30642936996E+04  0.30642936996E+04  0.00000000000E+00 0. -1.
         -2   -1    0    0    0  501 -0.00000000000E+00 -0.00000000000E+00 -0.10057778354E+03  0.10057778354E+03  0.00000000000E+00 0.  1.
         23    2    1    2    0    0 -0.14188682606E+03 -0.49464511680E+03  0.92846361762E+03  0.10655721759E+04  0.92702264636E+02 0.  0.
         13    1    3    3    0    0 -0.12035941860E+03 -0.25805672851E+03  0.48140554017E+03  0.55931293466E+03  0.00000000000E+00 0. -1.
        -13    1    3    3    0    0 -0.21527407461E+02 -0.23658838829E+03  0.44705807745E+03  0.50625924126E+03  0.00000000000E+00 0.  1.
         22    1    1    2    0    0  0.14188682606E+03  0.49464511680E+03  0.20352522984E+04  0.20992993072E+04  0.00000000000E+00 0. -1.
<mgrwt>
<rscale>  0 0.11103150E+04</rscale>
<asrwt>0</asrwt>
<pdfrwt beam="1">  1        2 0.47142973E+00 0.11103150E+04</pdfrwt>
<pdfrwt beam="2">  1       -2 0.15473507E-01 0.11103150E+04</pdfrwt>
<totfact> 0.53461282E+01</totfact>
</mgrwt>
</event>
<event>
 6    1  0.1209558E-006  0.2106943E+04  0.7818608E-02  0.8558191E-01
         -1   -1    0    0    0  501 -0.00000000000E+00  0.00000000000E+00  0.38106908863E+03  0.38106908863E+03  0.00000000000E+00 0.  1.
          1   -1    0    0  501    0  0.00000000000E+00 -0.00000000000E+00 -0.29123383050E+04  0.29123383050E+04  0.00000000000E+00 0. -1.
         23    2    1    2    0    0 -0.95622268237E+03 -0.40432131714E+03 -0.15292344693E+04  0.18505244531E+04  0.89694724796E+02 0.  0.
         13    1    3    3    0    0 -0.34426711756E+03 -0.16051728805E+03 -0.48793231677E+03  0.61835555609E+03  0.00000000000E+00 0.  1.
        -13    1    3    3    0    0 -0.61195556481E+03 -0.24380402909E+03 -0.10413021525E+04  0.12321688970E+04  0.00000000000E+00 0. -1.
         22    1    1    2    0    0  0.95622268237E+03  0.40432131714E+03 -0.10020347471E+04  0.14428829406E+04  0.00000000000E+00 0. -1.
<mgrwt>
<rscale>  0 0.21069429E+04</rscale>
<asrwt>0</asrwt>
<pdfrwt beam="1">  1        1 0.44805205E+00 0.21069429E+04</pdfrwt>
<pdfrwt beam="2">  1       -1 0.58626014E-01 0.21069429E+04</pdfrwt>
<totfact> 0.18778055E+00</totfact>
</mgrwt>
</event>
<event>
 6    1  0.1028026E-006  0.2157056E+04  0.7818608E-02  0.8536518E-01
         -2   -1    0    0    0  501 -0.00000000000E+00  0.00000000000E+00  0.10609910773E+04  0.10609910773E+04  0.00000000000E+00 0.  1.
          2   -1    0    0  501    0  0.00000000000E+00 -0.00000000000E+00 -0.10963547417E+04  0.10963547417E+04  0.00000000000E+00 0. -1.
         23    2    1    2    0    0  0.96376274403E+03  0.23016668389E+03 -0.43869945139E+03  0.10875350478E+04  0.91977945090E+02 0.  0.
         11    1    3    3    0    0  0.49231570971E+03  0.91493158222E+02 -0.26331778849E+03  0.56575791092E+03  0.00000000000E+00 0.  1.
        -11    1    3    3    0    0  0.47144703432E+03  0.13867352566E+03 -0.17538166290E+03  0.52177713688E+03  0.00000000000E+00 0. -1.
         22    1    1    2    0    0 -0.96376274403E+03 -0.23016668389E+03  0.40333578705E+03  0.10698107712E+04  0.00000000000E+00 0.  1.
<mgrwt>
<rscale>  0 0.21570560E+04</rscale>
<asrwt>0</asrwt>
<pdfrwt beam="1">  1        2 0.16866996E+00 0.21570560E+04</pdfrwt>
<pdfrwt beam="2">  1       -2 0.16322940E+00 0.21570560E+04</pdfrwt>
<totfact> 0.47905181E+00</totfact>
</mgrwt>
</event>
<event>
 6    1  0.1028026E-006  0.2845607E+04  0.7818608E-02  0.8289247E-01
         -1   -1    0    0    0  501 -0.00000000000E+00  0.00000000000E+00  0.93353428289E+03  0.93353428289E+03  0.00000000000E+00 0.  1.
          1   -1    0    0  501    0  0.00000000000E+00 -0.00000000000E+00 -0.21685013108E+04  0.21685013108E+04  0.00000000000E+00 0. -1.
         23    2    1    2    0    0 -0.11451388530E+04  0.59782756319E+03  0.28211999586E+02  0.12952810327E+04  0.90643526665E+02 0.  0.
         11    1    3    3    0    0 -0.23846550983E+03  0.97410832652E+02  0.32754638989E+02  0.25966812679E+03  0.00000000000E+00 0.  1.
        -11    1    3    3    0    0 -0.90667334316E+03  0.50041673054E+03 -0.45426394031E+01  0.10356129060E+04  0.00000000000E+00 0. -1.
         22    1    1    2    0    0  0.11451388530E+04 -0.59782756319E+03 -0.12631790275E+04  0.18067545609E+04  0.00000000000E+00 0. -1.
<mgrwt>
<rscale>  0 0.28456074E+04</rscale>
<asrwt>0</asrwt>
<pdfrwt beam="1">  1        1 0.33361558E+00 0.28456074E+04</pdfrwt>
<pdfrwt beam="2">  1       -1 0.14362066E+00 0.28456074E+04</pdfrwt>
<totfact> 0.77343091E-01</totfact>
</mgrwt>
</event>
<event>
 6    1  0.1028026E-006  0.2331632E+04  0.7818608E-02  0.8465552E-01
          2   -1    0    0  501    0  0.00000000000E+00  0.00000000000E+00  0.10268295213E+04  0.10268295213E+04  0.00000000000E+00 0. -1.
         -2   -1    0    0    0  501 -0.00000000000E+00 -0.00000000000E+00 -0.13236153459E+04  0.13236153459E+04  0.00000000000E+00 0.  1.
         23    2    1    2    0    0  0.83863799847E+03  0.69714749642E+03 -0.55893350524E+03  0.12288167065E+04  0.90859841266E+02 0.  0.
         13    1    3    3    0    0  0.83370989064E+03  0.69042607478E+03 -0.54346335393E+03  0.12112443038E+04  0.00000000000E+00 0. -1.
        -13    1    3    3    0    0  0.49281078288E+01  0.67214216385E+01 -0.15470151308E+02  0.17572402713E+02  0.00000000000E+00 0.  1.
         22    1    1    2    0    0 -0.83863799847E+03 -0.69714749642E+03  0.26214768066E+03  0.11216281606E+04  0.00000000000E+00 0. -1.
<mgrwt>
<rscale>  0 0.23316323E+04</rscale>
<asrwt>0</asrwt>
<pdfrwt beam="1">  1        2 0.15797377E+00 0.23316323E+04</pdfrwt>
<pdfrwt beam="2">  1       -2 0.20363313E+00 0.23316323E+04</pdfrwt>
<totfact> 0.27562812E+00</totfact>
</mgrwt>
</event>
<event>
 6    1  0.1028026E-006  0.3833099E+04  0.7818608E-02  0.8039089E-01
          4   -1    0    0  501    0  0.00000000000E+00  0.00000000000E+00  0.17942797902E+04  0.17942797902E+04  0.00000000000E+00 0. -1.
         -4   -1    0    0    0  501 -0.00000000000E+00 -0.00000000000E+00 -0.20471509358E+04  0.20471509358E+04  0.00000000000E+00 0.  1.
         23    2    1    2    0    0 -0.43911673318E+03  0.90660260452E+03  0.15062859073E+04  0.18142688368E+04  0.89007806246E+02 0.  0.
         13    1    3    3    0    0 -0.33444040632E+03  0.73828536750E+03  0.12593161115E+04  0.14975956523E+04  0.00000000000E+00 0. -1.
        -13    1    3    3    0    0 -0.10467632685E+03  0.16831723703E+03  0.24696979589E+03  0.31667318447E+03  0.00000000000E+00 0.  1.
         22    1    1    2    0    0  0.43911673318E+03 -0.90660260452E+03 -0.17591570530E+04  0.20271618892E+04  0.00000000000E+00 0.  1.
<mgrwt>
<rscale>  0 0.38330988E+04</rscale>
<asrwt>0</asrwt>
<pdfrwt beam="1">  1        4 0.27604304E+00 0.38330988E+04</pdfrwt>
<pdfrwt beam="2">  1       -4 0.31494630E+00 0.38330988E+04</pdfrwt>
<totfact> 0.16995453E-03</totfact>
</mgrwt>
</event>
<event>
 6    1  0.1028026E-006  0.1882728E+04  0.7818608E-02  0.8663502E-01
          1   -1    0    0  501    0  0.00000000000E+00  0.00000000000E+00  0.13140553899E+04  0.13140553899E+04  0.00000000000E+00 0. -1.
         -1   -1    0    0    0  501 -0.00000000000E+00 -0.00000000000E+00 -0.67437490571E+03  0.67437490571E+03  0.00000000000E+00 0.  1.
         23    2    1    2    0    0  0.37125757723E+03  0.21313898366E+03  0.12033669977E+04  0.12806147119E+04  0.92852001365E+02 0.  0.
         11    1    3    3    0    0  0.18504194466E+03  0.14387687231E+03  0.74603358362E+03  0.78198924772E+03  0.00000000000E+00 0. -1.
        -11    1    3    3    0    0  0.18621563257E+03  0.69262111348E+02  0.45733341406E+03  0.49862546415E+03  0.00000000000E+00 0.  1.
         22    1    1    2    0    0 -0.37125757723E+03 -0.21313898366E+03 -0.56368651352E+03  0.70781558370E+03  0.00000000000E+00 0.  1.
<mgrwt>
<rscale>  0 0.18827278E+04</rscale>
<asrwt>0</asrwt>
<pdfrwt beam="1">  1        1 0.20216237E+00 0.18827278E+04</pdfrwt>
<pdfrwt beam="2">  1       -1 0.10374999E+00 0.18827278E+04</pdfrwt>
<totfact> 0.72505878E+00</totfact>
</mgrwt>
</event>
<event>
 6    1  0.1028026E-006  0.1171458E+04  0.7818608E-02  0.9138213E-01
         -2   -1    0    0    0  501 -0.00000000000E+00  0.00000000000E+00  0.26739190419E+03  0.26739190419E+03  0.00000000000E+00 0.  1.
          2   -1    0    0  501    0  0.00000000000E+00 -0.00000000000E+00 -0.12830537118E+04  0.12830537118E+04  0.00000000000E+00 0. -1.
         23    2    1    2    0    0 -0.53766299090E+03  0.56913097529E+02 -0.79668297681E+03  0.96711696007E+03  0.91054140243E+02 0.  0.
         13    1    3    3    0    0 -0.16566809828E+03 -0.13848429949E+02 -0.29430642515E+03  0.33801474773E+03  0.00000000000E+00 0. -1.
        -13    1    3    3    0    0 -0.37199489262E+03  0.70761527478E+02 -0.50237655166E+03  0.62910221234E+03  0.00000000000E+00 0.  1.
         22    1    1    2    0    0  0.53766299090E+03 -0.56913097529E+02 -0.21897883078E+03  0.58332865590E+03  0.00000000000E+00 0. -1.
<mgrwt>
<rscale>  0 0.11714575E+04</rscale>
<asrwt>0</asrwt>
<pdfrwt beam="1">  1        2 0.19739288E+00 0.11714575E+04</pdfrwt>
<pdfrwt beam="2">  1       -2 0.41137216E-01 0.11714575E+04</pdfrwt>
<totfact> 0.93521601E+01</totfact>
</mgrwt>
</event>
<event>
 6    1  0.1028026E-006  0.2352735E+04  0.7818608E-02  0.8457414E-01
         -2   -1    0    0    0  501 -0.00000000000E+00  0.00000000000E+00  0.85377194719E+03  0.85377194719E+03  0.00000000000E+00 0.  1.
          2   -1    0    0  501    0  0.00000000000E+00 -0.00000000000E+00 -0.16208553883E+04  0.16208553883E+04  0.00000000000E+00 0. -1.
         23    2    1    2    0    0 -0.47067098074E+03  0.80490813907E+03 -0.11354314030E+04  0.14720863111E+04  0.91789716891E+02 0.  0.
         13    1    3    3    0    0 -0.14891256461E+03  0.31961042649E+03 -0.47609806869E+03  0.59244843457E+03  0.00000000000E+00 0.  1.
        -13    1    3    3    0    0 -0.32175841613E+03  0.48529771258E+03 -0.65933333430E+03  0.87963787658E+03  0.00000000000E+00 0. -1.
         22    1    1    2    0    0  0.47067098074E+03 -0.80490813907E+03  0.36834796188E+03  0.10025410243E+04  0.00000000000E+00 0.  1.
<mgrwt>
<rscale>  0 0.23527353E+04</rscale>
<asrwt>0</asrwt>
<pdfrwt beam="1">  1        2 0.24936236E+00 0.23527353E+04</pdfrwt>
<pdfrwt beam="2">  1       -2 0.13134953E+00 0.23527353E+04</pdfrwt>
<totfact> 0.41467633E+00</totfact>
</mgrwt>
</event>
<event>
 6    1  0.1028026E-006  0.8697724E+03  0.7818608E-02  0.9464177E-01
          2   -1    0    0  501    0  0.00000000000E+00  0.00000000000E+00  0.32094060020E+03  0.32094060020E+03  0.00000000000E+00 0. -1.
         -2   -1    0    0    0  501 -0.00000000000E+00 -0.00000000000E+00 -0.58928664027E+03  0.58928664027E+03  0.00000000000E+00 0.  1.
         23    2    1    2    0    0  0.22356337617E+03  0.10434775964E+03 -0.50442184869E+03  0.56875861011E+03  0.90420777666E+02 0.  0.
         13    1    3    3    0    0  0.18156714910E+03  0.42186852464E+02 -0.33257370510E+03  0.38125008784E+03  0.00000000000E+00 0.  1.
        -13    1    3    3    0    0  0.41996227064E+02  0.62160907176E+02 -0.17184814359E+03  0.18750852227E+03  0.00000000000E+00 0. -1.
         22    1    1    2    0    0 -0.22356337617E+03 -0.10434775964E+03  0.23607580861E+03  0.34146863036E+03  0.00000000000E+00 0. -1.
<mgrwt>
<rscale>  0 0.86977240E+03</rscale>
<asrwt>0</asrwt>
<pdfrwt beam="1">  1        2 0.49375478E-01 0.86977240E+03</pdfrwt>
<pdfrwt beam="2">  1       -2 0.90659482E-01 0.86977240E+03</pdfrwt>
<totfact> 0.10632694E+02</totfact>
</mgrwt>
</event>
<event>
 6    1  0.1028026E-006  0.3669778E+04  0.7818608E-02  0.8074693E-01
          1   -1    0    0  501    0  0.00000000000E+00  0.00000000000E+00  0.15936146596E+04  0.15936146596E+04  0.00000000000E+00 0. -1.
         -1   -1    0    0    0  501 -0.00000000000E+00 -0.00000000000E+00 -0.21126923020E+04  0.21126923020E+04  0.00000000000E+00 0.  1.
         23    2    1    2    0    0  0.10834614757E+04 -0.11037044619E+04  0.73539520106E+03  0.17148867590E+04  0.89320691254E+02 0.  0.
         11    1    3    3    0    0  0.41712370662E+03 -0.48465311413E+03  0.31856104861E+03  0.71439622714E+03  0.00000000000E+00 0.  1.
        -11    1    3    3    0    0  0.66633776911E+03 -0.61905134777E+03  0.41683415245E+03  0.10004905319E+04  0.00000000000E+00 0. -1.
         22    1    1    2    0    0 -0.10834614757E+04  0.11037044619E+04 -0.12544728434E+04  0.19914202026E+04  0.00000000000E+00 0.  1.
<mgrwt>
<rscale>  0 0.36697779E+04</rscale>
<asrwt>0</asrwt>
<pdfrwt beam="1">  1        1 0.24517149E+00 0.36697779E+04</pdfrwt>
<pdfrwt beam="2">  1       -1 0.32502959E+00 0.36697779E+04</pdfrwt>
<totfact> 0.10285287E-01</totfact>
</mgrwt>
</event>
<event>
 6    1  0.1028026E-006  0.7181199E+03  0.7818608E-02  0.9686737E-01
          2   -1    0    0  501    0  0.00000000000E+00  0.00000000000E+00  0.17797189054E+04  0.17797189054E+04  0.00000000000E+00 0. -1.
         -2   -1    0    0    0  501 -0.00000000000E+00 -0.00000000000E+00 -0.72440686544E+02  0.72440686544E+02  0.00000000000E+00 0.  1.
         23    2    1    2    0    0  0.37370629169E+02  0.22602807166E+03  0.15600304466E+04  0.15798231097E+04  0.98289422967E+02 0.  0.
         11    1    3    3    0    0 -0.24015952309E+02  0.12800785067E+03  0.95471001053E+03  0.96355279046E+03  0.00000000000E+00 0.  1.
        -11    1    3    3    0    0  0.61386581478E+02  0.98020220989E+02  0.60532043607E+03  0.61627031929E+03  0.00000000000E+00 0. -1.
         22    1    1    2    0    0 -0.37370629169E+02 -0.22602807166E+03  0.14724777225E+03  0.27233648220E+03  0.00000000000E+00 0.  1.
<mgrwt>
<rscale>  0 0.71811993E+03</rscale>
<asrwt>0</asrwt>
<pdfrwt beam="1">  1        2 0.27380288E+00 0.71811993E+03</pdfrwt>
<pdfrwt beam="2">  1       -2 0.11144722E-01 0.71811993E+03</pdfrwt>
<totfact> 0.51942034E+02</totfact>
</mgrwt>
</event>
<event>
 6    1  0.1028026E-006  0.1021120E+04  0.7818608E-02  0.9285679E-01
         -1   -1    0    0    0  501 -0.00000000000E+00  0.00000000000E+00  0.11186037593E+03  0.11186037593E+03  0.00000000000E+00 0.  1.
          1   -1    0    0  501    0  0.00000000000E+00 -0.00000000000E+00 -0.23303307833E+04  0.23303307833E+04  0.00000000000E+00 0. -1.
         23    2    1    2    0    0 -0.13045188825E+03 -0.22860618764E+00 -0.22886206238E+04  0.22940736374E+04  0.89284639028E+02 0.  0.
         11    1    3    3    0    0  0.40127802878E+01 -0.21532238049E+02 -0.33444198993E+03  0.33515844657E+03  0.00000000000E+00 0. -1.
        -11    1    3    3    0    0 -0.13446466854E+03  0.21303631862E+02 -0.19541786339E+04  0.19589151908E+04  0.00000000000E+00 0.  1.
         22    1    1    2    0    0  0.13045188825E+03  0.22860618764E+00  0.70150216426E+02  0.14811752183E+03  0.00000000000E+00 0.  1.
<mgrwt>
<rscale>  0 0.10211203E+04</rscale>
<asrwt>0</asrwt>
<pdfrwt beam="1">  1        1 0.35851242E+00 0.10211203E+04</pdfrwt>
<pdfrwt beam="2">  1       -1 0.17209289E-01 0.10211203E+04</pdfrwt>
<totfact> 0.47076166E+01</totfact>
</mgrwt>
</event>
<event>
 6    1  0.1028026E-006  0.4525400E+04  0.7818608E-02  0.7906205E-01
         -2   -1    0    0    0  501 -0.00000000000E+00  0.00000000000E+00  0.17707397180E+04  0.17707397180E+04  0.00000000000E+00 0.  1.
          2   -1    0    0  501    0  0.00000000000E+00 -0.00000000000E+00 -0.28913405692E+04  0.28913405692E+04  0.00000000000E+00 0. -1.
         23    2    1    2    0    0 -0.74498553184E+03  0.16185753285E+03 -0.27542545971E+04  0.28592974757E+04  0.91991117944E+02 0.  0.
         13    1    3    3    0    0 -0.45180424675E+03  0.14239085265E+03 -0.17419913313E+04  0.18052523454E+04  0.00000000000E+00 0. -1.
        -13    1    3    3    0    0 -0.29318128509E+03  0.19466680201E+02 -0.10122632658E+04  0.10540451303E+04  0.00000000000E+00 0.  1.
         22    1    1    2    0    0  0.74498553184E+03 -0.16185753285E+03  0.16336537459E+04  0.18027828114E+04  0.00000000000E+00 0.  1.
<mgrwt>
<rscale>  0 0.45254001E+04</rscale>
<asrwt>0</asrwt>
<pdfrwt beam="1">  1        2 0.44482162E+00 0.45254001E+04</pdfrwt>
<pdfrwt beam="2">  1       -2 0.27242150E+00 0.45254001E+04</pdfrwt>
<totfact> 0.72018329E-02</totfact>
</mgrwt>
</event>
<event>
 6    1  0.1028026E-006  0.1962773E+04  0.7818608E-02  0.8624226E-01
         -2   -1    0    0    0  501 -0.00000000000E+00  0.00000000000E+00  0.87925324214E+03  0.87925324214E+03  0.00000000000E+00 0.  1.
          2   -1    0    0  501    0  0.00000000000E+00 -0.00000000000E+00 -0.10953830463E+04  0.10953830463E+04  0.00000000000E+00 0. -1.
         23    2    1    2    0    0  0.32475086619E+02 -0.86876811366E+03  0.34531754232E+03  0.93972769855E+03  0.89617385682E+02 0.  0.
         11    1    3    3    0    0  0.41269686892E+02 -0.65668674634E+03  0.29766538841E+03  0.72218096993E+03  0.00000000000E+00 0.  1.
        -11    1    3    3    0    0 -0.87946002734E+01 -0.21208136732E+03  0.47652153912E+02  0.21754672862E+03  0.00000000000E+00 0. -1.
         22    1    1    2    0    0 -0.32475086619E+02  0.86876811366E+03 -0.56144734651E+03  0.10349085899E+04  0.00000000000E+00 0. -1.
<mgrwt>
<rscale>  0 0.19627726E+04</rscale>
<asrwt>0</asrwt>
<pdfrwt beam="1">  1        2 0.16852047E+00 0.19627726E+04</pdfrwt>
<pdfrwt beam="2">  1       -2 0.13526973E+00 0.19627726E+04</pdfrwt>
<totfact> 0.80214698E+00</totfact>
</mgrwt>
</event>
<event>
 6    1  0.1028026E-006  0.1837007E+04  0.7818608E-02  0.8686863E-01
         -2   -1    0    0    0  501 -0.00000000000E+00  0.00000000000E+00  0.35071744740E+03  0.35071744740E+03  0.00000000000E+00 0.  1.
          2   -1    0    0  501    0  0.00000000000E+00 -0.00000000000E+00 -0.24054950145E+04  0.24054950145E+04  0.00000000000E+00 0. -1.
         23    2    1    2    0    0 -0.71790855903E+03  0.47176872127E+03 -0.15075167666E+04  0.17376581878E+04  0.94290776713E+02 0.  0.
         13    1    3    3    0    0 -0.32629450733E+03  0.15934308848E+03 -0.61980043079E+03  0.71833898639E+03  0.00000000000E+00 0. -1.
        -13    1    3    3    0    0 -0.39161405171E+03  0.31242563279E+03 -0.88771633584E+03  0.10193192014E+04  0.00000000000E+00 0.  1.
         22    1    1    2    0    0  0.71790855903E+03 -0.47176872127E+03 -0.54726080051E+03  0.10185542741E+04  0.00000000000E+00 0. -1.
<mgrwt>
<rscale>  0 0.18370074E+04</rscale>
<asrwt>0</asrwt>
<pdfrwt beam="1">  1        2 0.37007614E+00 0.18370074E+04</pdfrwt>
<pdfrwt beam="2">  1       -2 0.53956532E-01 0.18370074E+04</pdfrwt>
<totfact> 0.12027379E+01</totfact>
</mgrwt>
</event>
<event>
 6    1  0.1028026E-006  0.2461785E+04  0.7818608E-02  0.8416728E-01
         -2   -1    0    0    0  501 -0.00000000000E+00  0.00000000000E+00  0.70507335900E+03  0.70507335900E+03  0.00000000000E+00 0.  1.
          2   -1    0    0  501    0  0.00000000000E+00 -0.00000000000E+00 -0.21488499325E+04  0.21488499325E+04  0.00000000000E+00 0. -1.
         23    2    1    2    0    0 -0.37520650435E+03  0.11623728970E+04 -0.88311236047E+03  0.15099608544E+04  0.90574103282E+02 0.  0.
         13    1    3    3    0    0 -0.15565227847E+03  0.60614277143E+03 -0.48178320879E+03  0.78977955875E+03  0.00000000000E+00 0.  1.
        -13    1    3    3    0    0 -0.21955422588E+03  0.55623012555E+03 -0.40132915168E+03  0.72018129569E+03  0.00000000000E+00 0. -1.
         22    1    1    2    0    0  0.37520650435E+03 -0.11623728970E+04 -0.56066421308E+03  0.13439624371E+04  0.00000000000E+00 0. -1.
<mgrwt>
<rscale>  0 0.24617854E+04</rscale>
<asrwt>0</asrwt>
<pdfrwt beam="1">  1        2 0.33059229E+00 0.24617854E+04</pdfrwt>
<pdfrwt beam="2">  1       -2 0.10847283E+00 0.24617854E+04</pdfrwt>
<totfact> 0.33544065E+00</totfact>
</mgrwt>
</event>
<event>
 6    1  0.1028026E-006  0.9694510E+03  0.7818608E-02  0.9342700E-01
         -2   -1    0    0    0  501 -0.00000000000E+00  0.00000000000E+00  0.17427689151E+04  0.17427689151E+04  0.00000000000E+00 0.  1.
          2   -1    0    0  501    0  0.00000000000E+00 -0.00000000000E+00 -0.13481926114E+03  0.13481926114E+03  0.00000000000E+00 0. -1.
         23    2    1    2    0    0 -0.43402436402E+03 -0.20328720692E+03  0.87784054974E+03  0.10042256277E+04  0.90345135853E+02 0.  0.
         11    1    3    3    0    0 -0.25842165265E+03 -0.73619484630E+02  0.45706368523E+03  0.53019693646E+03  0.00000000000E+00 0. -1.
        -11    1    3    3    0    0 -0.17560271136E+03 -0.12966772229E+03  0.42077686451E+03  0.47402869128E+03  0.00000000000E+00 0.  1.
         22    1    1    2    0    0  0.43402436402E+03  0.20328720692E+03  0.73010910420E+03  0.87336254849E+03  0.00000000000E+00 0. -1.
<mgrwt>
<rscale>  0 0.96945101E+03</rscale>
<asrwt>0</asrwt>
<pdfrwt beam="1">  1        2 0.20741426E-01 0.96945101E+03</pdfrwt>
<pdfrwt beam="2">  1       -2 0.26811828E+00 0.96945101E+03</pdfrwt>
<totfact> 0.13712869E+01</totfact>
</mgrwt>
</event>
<event>
 6    1  0.1028026E-006  0.1763321E+04  0.7818608E-02  0.8726052E-01
          2   -1    0    0  501    0  0.00000000000E+00  0.00000000000E+00  0.13475519191E+04  0.13475519191E+04  0.00000000000E+00 0. -1.
         -2   -1    0    0    0  501 -0.00000000000E+00 -0.00000000000E+00 -0.57684280665E+03  0.57684280665E+03  0.00000000000E+00 0.  1.
         23    2    1    2    0    0  0.36502071291E+03  0.79792731771E+03  0.31799179784E+03  0.93703405600E+03  0.83581776754E+02 0.  0.
         13    1    3    3    0    0  0.10573623038E+03  0.21948605598E+03  0.49409739574E+02  0.24858721116E+03  0.00000000000E+00 0.  1.
        -13    1    3    3    0    0  0.25928448253E+03  0.57844126173E+03  0.26858205827E+03  0.68844684484E+03  0.00000000000E+00 0. -1.
         22    1    1    2    0    0 -0.36502071291E+03 -0.79792731771E+03  0.45271731459E+03  0.98736066973E+03  0.00000000000E+00 0. -1.
<mgrwt>
<rscale>  0 0.17633214E+04</rscale>
<asrwt>0</asrwt>
<pdfrwt beam="1">  1        2 0.20731568E+00 0.17633214E+04</pdfrwt>
<pdfrwt beam="2">  1       -2 0.88745048E-01 0.17633214E+04</pdfrwt>
<totfact> 0.16034269E+01</totfact>
</mgrwt>
</event>
<event>
 6    1  0.1028026E-006  0.7590063E+03  0.7818608E-02  0.9621326E-01
          1   -1    0    0  501    0  0.00000000000E+00  0.00000000000E+00  0.62294274648E+03  0.62294274648E+03  0.00000000000E+00 0. -1.
         -1   -1    0    0    0  501 -0.00000000000E+00 -0.00000000000E+00 -0.23119722170E+03  0.23119722170E+03  0.00000000000E+00 0.  1.
         23    2    1    2    0    0  0.25061892949E+03 -0.36714600739E+02  0.50828865043E+03  0.57532083351E+03  0.92080940402E+02 0.  0.
         11    1    3    3    0    0  0.93374349356E+02  0.29885016816E+02  0.16572536498E+03  0.19255331715E+03  0.00000000000E+00 0. -1.
        -11    1    3    3    0    0  0.15724458013E+03 -0.66599617554E+02  0.34256328545E+03  0.38276751636E+03  0.00000000000E+00 0.  1.
         22    1    1    2    0    0 -0.25061892949E+03  0.36714600739E+02 -0.11654312565E+03  0.27881913468E+03  0.00000000000E+00 0.  1.
<mgrwt>
<rscale>  0 0.75900628E+03</rscale>
<asrwt>0</asrwt>
<pdfrwt beam="1">  1        1 0.95837345E-01 0.75900628E+03</pdfrwt>
<pdfrwt beam="2">  1       -1 0.35568803E-01 0.75900628E+03</pdfrwt>
<totfact> 0.24717963E+02</totfact>
</mgrwt>
</event>
<event>
 6    1  0.1028026E-006  0.2021737E+04  0.7818608E-02  0.8596525E-01
         -2   -1    0    0    0  501 -0.00000000000E+00  0.00000000000E+00  0.85994878890E+03  0.85994878890E+03  0.00000000000E+00 0.  1.
          2   -1    0    0  501    0  0.00000000000E+00 -0.00000000000E+00 -0.11882748548E+04  0.11882748548E+04  0.00000000000E+00 0. -1.
         23    2    1    2    0    0 -0.48880516611E+03  0.87769553128E+03 -0.24866609549E+03  0.10404411042E+04  0.10678449408E+03 0.  0.
         13    1    3    3    0    0 -0.33981169134E+03  0.70005386908E+03 -0.18149509750E+03  0.79905436336E+03  0.00000000000E+00 0. -1.
        -13    1    3    3    0    0 -0.14899347478E+03  0.17764166220E+03 -0.67170997990E+02  0.24138674083E+03  0.00000000000E+00 0.  1.
         22    1    1    2    0    0  0.48880516611E+03 -0.87769553128E+03 -0.79659970387E+02  0.10077825395E+04  0.00000000000E+00 0.  1.
<mgrwt>
<rscale>  0 0.20217374E+04</rscale>
<asrwt>0</asrwt>
<pdfrwt beam="1">  1        2 0.18281151E+00 0.20217374E+04</pdfrwt>
<pdfrwt beam="2">  1       -2 0.13229981E+00 0.20217374E+04</pdfrwt>
<totfact> 0.74167402E+00</totfact>
</mgrwt>
</event>
<event>
 6    1  0.1028026E-006  0.3000884E+04  0.7818608E-02  0.8243479E-01
          2   -1    0    0  501    0  0.00000000000E+00  0.00000000000E+00  0.87038944905E+03  0.87038944905E+03  0.00000000000E+00 0. -1.
         -2   -1    0    0    0  501 -0.00000000000E+00 -0.00000000000E+00 -0.25865730293E+04  0.25865730293E+04  0.00000000000E+00 0.  1.
         23    2    1    2    0    0 -0.11430221939E+03 -0.51869645467E+03  0.75612302163E+03  0.92824522584E+03  0.88352509880E+02 0.  0.
         11    1    3    3    0    0 -0.56449296162E+02 -0.94448467431E+02  0.14375769190E+03  0.18103400238E+03  0.00000000000E+00 0.  1.
        -11    1    3    3    0    0 -0.57852923227E+02 -0.42424798724E+03  0.61236532973E+03  0.74721122345E+03  0.00000000000E+00 0. -1.
         22    1    1    2    0    0  0.11430221939E+03  0.51869645467E+03 -0.24723066018E+04  0.25287172525E+04  0.00000000000E+00 0.  1.
<mgrwt>
<rscale>  0 0.30008838E+04</rscale>
<asrwt>0</asrwt>
<pdfrwt beam="1">  1        2 0.13390607E+00 0.30008838E+04</pdfrwt>
<pdfrwt beam="2">  1       -2 0.39793431E+00 0.30008838E+04</pdfrwt>
<totfact> 0.20120319E-01</totfact>
</mgrwt>
</event>
<event>
 6    1  0.1028026E-006  0.1120474E+04  0.7818608E-02  0.9185463E-01
          2   -1    0    0  501    0  0.00000000000E+00  0.00000000000E+00  0.67196099597E+03  0.67196099597E+03  0.00000000000E+00 0. -1.
         -2   -1    0    0    0  501 -0.00000000000E+00 -0.00000000000E+00 -0.46708892245E+03  0.46708892245E+03  0.00000000000E+00 0.  1.
         23    2    1    2    0    0  0.25430057457E+03  0.21649006945E+03 -0.34947992507E+03  0.49186920892E+03  0.90897570187E+02 0.  0.
         13    1    3    3    0    0  0.17044987969E+03  0.90208534081E+02 -0.17139734399E+03  0.25800734609E+03  0.00000000000E+00 0.  1.
        -13    1    3    3    0    0  0.83850694876E+02  0.12628153537E+03 -0.17808258108E+03  0.23386186283E+03  0.00000000000E+00 0. -1.
         22    1    1    2    0    0 -0.25430057457E+03 -0.21649006945E+03  0.55435199859E+03  0.64718070949E+03  0.00000000000E+00 0. -1.
<mgrwt>
<rscale>  0 0.11204741E+04</rscale>
<asrwt>0</asrwt>
<pdfrwt beam="1">  1        2 0.10337862E+00 0.11204741E+04</pdfrwt>
<pdfrwt beam="2">  1       -2 0.71859834E-01 0.11204741E+04</pdfrwt>
<totfact> 0.75124778E+01</totfact>
</mgrwt>
</event>
<event>
 6    1  0.1028026E-006  0.6243382E+04  0.7818608E-02  0.7660937E-01
         -2   -1    0    0    0  501 -0.00000000000E+00  0.00000000000E+00  0.28861377989E+04  0.28861377989E+04  0.00000000000E+00 0.  1.
          2   -1    0    0  501    0  0.00000000000E+00 -0.00000000000E+00 -0.33764691012E+04  0.33764691012E+04  0.00000000000E+00 0. -1.
         23    2    1    2    0    0  0.23832054542E+04  0.17274143701E+04 -0.12862497635E+04  0.32134898411E+04  0.91923128885E+02 0.  0.
         13    1    3    3    0    0  0.18796823347E+04  0.13899743234E+04 -0.10536449416E+04  0.25642546601E+04  0.00000000000E+00 0. -1.
        -13    1    3    3    0    0  0.50352311953E+03  0.33744004669E+03 -0.23260482190E+03  0.64923518095E+03  0.00000000000E+00 0.  1.
         22    1    1    2    0    0 -0.23832054542E+04 -0.17274143701E+04  0.79591846117E+03  0.30491170591E+04  0.00000000000E+00 0.  1.
<mgrwt>
<rscale>  0 0.62433821E+04</rscale>
<asrwt>0</asrwt>
<pdfrwt beam="1">  1        2 0.51945678E+00 0.62433821E+04</pdfrwt>
<pdfrwt beam="2">  1       -2 0.44402120E+00 0.62433821E+04</pdfrwt>
<totfact> 0.24919930E-03</totfact>
</mgrwt>
</event>
<event>
 6    1  0.1782074E-006  0.2188473E+04  0.7818608E-02  0.8523241E-01
         -2   -1    0    0    0  501 -0.00000000000E+00  0.00000000000E+00  0.92998152228E+03  0.92998152228E+03  0.00000000000E+00 0.  1.
          2   -1    0    0  501    0  0.00000000000E+00 -0.00000000000E+00 -0.12875030636E+04  0.12875030636E+04  0.00000000000E+00 0. -1.
         23    2    1    2    0    0  0.10337055891E+04  0.14819049194E+03 -0.50523409167E+03  0.11628156026E+04  0.79818365369E+02 0.  0.
         13    1    3    3    0    0  0.70710014924E+03  0.80435834635E+02 -0.30931504159E+03  0.77597444513E+03  0.00000000000E+00 0. -1.
        -13    1    3    3    0    0  0.32660543986E+03  0.67754657302E+02 -0.19591905008E+03  0.38684115747E+03  0.00000000000E+00 0.  1.
         22    1    1    2    0    0 -0.10337055891E+04 -0.14819049194E+03  0.14771255031E+03  0.10546689833E+04  0.00000000000E+00 0.  1.
<mgrwt>
<rscale>  0 0.21884735E+04</rscale>
<asrwt>0</asrwt>
<pdfrwt beam="1">  1        2 0.19807739E+00 0.21884735E+04</pdfrwt>
<pdfrwt beam="2">  1       -2 0.14307408E+00 0.21884735E+04</pdfrwt>
<totfact> 0.52207412E+00</totfact>
</mgrwt>
</event>
<event>
 6    1  0.1028026E-006  0.2156270E+04  0.7818608E-02  0.8536853E-01
         -2   -1    0    0    0  501 -0.00000000000E+00  0.00000000000E+00  0.61935622295E+03  0.61935622295E+03  0.00000000000E+00 0.  1.
          2   -1    0    0  501    0  0.00000000000E+00 -0.00000000000E+00 -0.18767479022E+04  0.18767479022E+04  0.00000000000E+00 0. -1.
         23    2    1    2    0    0 -0.69286821673E+03 -0.67300371448E+03 -0.11791215378E+04  0.15270186900E+04  0.91968001621E+02 0.  0.
         13    1    3    3    0    0 -0.20449587202E+03 -0.21763459310E+03 -0.30280525575E+03  0.42529331137E+03  0.00000000000E+00 0. -1.
        -13    1    3    3    0    0 -0.48837234472E+03 -0.45536912138E+03 -0.87631628205E+03  0.11017253787E+04  0.00000000000E+00 0.  1.
         22    1    1    2    0    0  0.69286821673E+03  0.67300371448E+03 -0.78270141407E+02  0.96908543509E+03  0.00000000000E+00 0.  1.
<mgrwt>
<rscale>  0 0.21562704E+04</rscale>
<asrwt>0</asrwt>
<pdfrwt beam="1">  1        2 0.28873045E+00 0.21562704E+04</pdfrwt>
<pdfrwt beam="2">  1       -2 0.95285572E-01 0.21562704E+04</pdfrwt>
<totfact> 0.66408378E+00</totfact>
</mgrwt>
</event>
<event>
 6    1  0.1028026E-006  0.1928903E+04  0.7818608E-02  0.8640602E-01
          2   -1    0    0  501    0  0.00000000000E+00  0.00000000000E+00  0.80168175417E+03  0.80168175417E+03  0.00000000000E+00 0. -1.
         -2   -1    0    0    0  501 -0.00000000000E+00 -0.00000000000E+00 -0.11602692794E+04  0.11602692794E+04  0.00000000000E+00 0.  1.
         23    2    1    2    0    0 -0.45640201845E+03 -0.63610995207E+02 -0.10388725685E+04  0.11402838860E+04  0.92962174653E+02 0.  0.
         13    1    3    3    0    0 -0.32315020737E+03 -0.73080146574E+02 -0.65878370343E+03  0.73740269341E+03  0.00000000000E+00 0. -1.
        -13    1    3    3    0    0 -0.13325181107E+03  0.94691513671E+01 -0.38008886509E+03  0.40288119260E+03  0.00000000000E+00 0.  1.
         22    1    1    2    0    0  0.45640201845E+03  0.63610995207E+02  0.68028504333E+03  0.82166714753E+03  0.00000000000E+00 0. -1.
<mgrwt>
<rscale>  0 0.19289030E+04</rscale>
<asrwt>0</asrwt>
<pdfrwt beam="1">  1        2 0.12333565E+00 0.19289030E+04</pdfrwt>
<pdfrwt beam="2">  1       -2 0.17850297E+00 0.19289030E+04</pdfrwt>
<totfact> 0.59576119E+00</totfact>
</mgrwt>
</event>
<event>
 6    1  0.1028026E-006  0.1026289E+04  0.7818608E-02  0.9280172E-01
          2   -1    0    0  501    0  0.00000000000E+00  0.00000000000E+00  0.23568080476E+04  0.23568080476E+04  0.00000000000E+00 0. -1.
         -2   -1    0    0    0  501 -0.00000000000E+00 -0.00000000000E+00 -0.11172632492E+03  0.11172632492E+03  0.00000000000E+00 0.  1.
         23    2    1    2    0    0 -0.27068377661E+02  0.35691008711E+03  0.20031642976E+04  0.20365140629E+04  0.81270030787E+02 0.  0.
         13    1    3    3    0    0 -0.30166395358E+02  0.45379627369E+02  0.24823446175E+03  0.25414497828E+03  0.00000000000E+00 0. -1.
        -13    1    3    3    0    0  0.30980176972E+01  0.31153045974E+03  0.17549298359E+04  0.17823690846E+04  0.00000000000E+00 0.  1.
         22    1    1    2    0    0  0.27068377661E+02 -0.35691008711E+03  0.24191742505E+03  0.43202030958E+03  0.00000000000E+00 0.  1.
<mgrwt>
<rscale>  0 0.10262894E+04</rscale>
<asrwt>0</asrwt>
<pdfrwt beam="1">  1        2 0.36258582E+00 0.10262894E+04</pdfrwt>
<pdfrwt beam="2">  1       -2 0.17188667E-01 0.10262894E+04</pdfrwt>
<totfact> 0.11774738E+02</totfact>
</mgrwt>
</event>
<event>
 6    1  0.1028026E-006  0.1830244E+04  0.7818608E-02  0.8690379E-01
          2   -1    0    0  501    0  0.00000000000E+00  0.00000000000E+00  0.78592849854E+03  0.78592849854E+03  0.00000000000E+00 0. -1.
         -2   -1    0    0    0  501 -0.00000000000E+00 -0.00000000000E+00 -0.10655525733E+04  0.10655525733E+04  0.00000000000E+00 0.  1.
         23    2    1    2    0    0 -0.41107452341E+03  0.98452091946E+02 -0.95898169880E+03  0.10513549196E+04  0.83822372035E+02 0.  0.
         11    1    3    3    0    0 -0.26292760876E+03  0.10056956098E+03 -0.66567578198E+03  0.72275127863E+03  0.00000000000E+00 0. -1.
        -11    1    3    3    0    0 -0.14814691465E+03 -0.21174690314E+01 -0.29330591683E+03  0.32860364094E+03  0.00000000000E+00 0.  1.
         22    1    1    2    0    0  0.41107452341E+03 -0.98452091946E+02  0.67935762405E+03  0.80012615228E+03  0.00000000000E+00 0. -1.
<mgrwt>
<rscale>  0 0.18302438E+04</rscale>
<asrwt>0</asrwt>
<pdfrwt beam="1">  1        2 0.12091208E+00 0.18302438E+04</pdfrwt>
<pdfrwt beam="2">  1       -2 0.16393116E+00 0.18302438E+04</pdfrwt>
<totfact> 0.78247721E+00</totfact>
</mgrwt>
</event>
<event>
 6    1  0.1028026E-006  0.2006202E+04  0.7818608E-02  0.8603726E-01
          1   -1    0    0  501    0  0.00000000000E+00  0.00000000000E+00  0.67228478029E+03  0.67228478029E+03  0.00000000000E+00 0. -1.
         -1   -1    0    0    0  501 -0.00000000000E+00 -0.00000000000E+00 -0.14967047884E+04  0.14967047884E+04  0.00000000000E+00 0.  1.
         23    2    1    2    0    0 -0.10176205789E+03  0.98815984712E+03 -0.27891375195E+03  0.10356791631E+04  0.89571468237E+02 0.  0.
         11    1    3    3    0    0 -0.24537874323E+02  0.65336048081E+03 -0.18133127874E+03  0.67850059529E+03  0.00000000000E+00 0.  1.
        -11    1    3    3    0    0 -0.77224183566E+02  0.33479936631E+03 -0.97582473207E+02  0.35717856779E+03  0.00000000000E+00 0. -1.
         22    1    1    2    0    0  0.10176205789E+03 -0.98815984712E+03 -0.54550625612E+03  0.11333104056E+04  0.00000000000E+00 0.  1.
<mgrwt>
<rscale>  0 0.20062022E+04</rscale>
<asrwt>0</asrwt>
<pdfrwt beam="1">  1        1 0.10342843E+00 0.20062022E+04</pdfrwt>
<pdfrwt beam="2">  1       -1 0.23026227E+00 0.20062022E+04</pdfrwt>
<totfact> 0.25241191E+00</totfact>
</mgrwt>
</event>
<event>
 6    1  0.1028026E-006  0.2722232E+04  0.7818608E-02  0.8327827E-01
          1   -1    0    0  501    0  0.00000000000E+00  0.00000000000E+00  0.28190848527E+04  0.28190848527E+04  0.00000000000E+00 0. -1.
         -1   -1    0    0    0  501 -0.00000000000E+00 -0.00000000000E+00 -0.65717679107E+03  0.65717679107E+03  0.00000000000E+00 0.  1.
         23    2    1    2    0    0 -0.10143769958E+04 -0.50872313430E+02  0.22363258709E+04  0.24578871095E+04  0.92233184167E+02 0.  0.
         13    1    3    3    0    0 -0.60343027492E+03  0.14962510054E+02  0.13327141890E+04  0.14630376219E+04  0.00000000000E+00 0. -1.
        -13    1    3    3    0    0 -0.41094672086E+03 -0.65834823485E+02  0.90361168185E+03  0.99484948758E+03  0.00000000000E+00 0.  1.
         22    1    1    2    0    0  0.10143769958E+04  0.50872313430E+02 -0.74417809232E+02  0.10183745343E+04  0.00000000000E+00 0.  1.
<mgrwt>
<rscale>  0 0.27222323E+04</rscale>
<asrwt>0</asrwt>
<pdfrwt beam="1">  1        1 0.43370536E+00 0.27222323E+04</pdfrwt>
<pdfrwt beam="2">  1       -1 0.10110412E+00 0.27222323E+04</pdfrwt>
<totfact> 0.65379897E-01</totfact>
</mgrwt>
</event>
<event>
 6    1  0.1028026E-006  0.1988928E+04  0.7818608E-02  0.8611815E-01
         -2   -1    0    0    0  501 -0.00000000000E+00  0.00000000000E+00  0.44105467135E+03  0.44105467135E+03  0.00000000000E+00 0.  1.
          2   -1    0    0  501    0  0.00000000000E+00 -0.00000000000E+00 -0.22422594688E+04  0.22422594688E+04  0.00000000000E+00 0. -1.
         23    2    1    2    0    0  0.98039240557E+03 -0.10908088083E+03 -0.10481010472E+04  0.14422528338E+04  0.92247081703E+02 0.  0.
         11    1    3    3    0    0  0.45154784286E+03 -0.23806149067E+02 -0.53490692044E+03  0.70041958900E+03  0.00000000000E+00 0. -1.
        -11    1    3    3    0    0  0.52884456271E+03 -0.85274731761E+02 -0.51319412673E+03  0.74183324480E+03  0.00000000000E+00 0.  1.
         22    1    1    2    0    0 -0.98039240557E+03  0.10908088083E+03 -0.75310375031E+03  0.12410613064E+04  0.00000000000E+00 0.  1.
<mgrwt>
<rscale>  0 0.19889284E+04</rscale>
<asrwt>0</asrwt>
<pdfrwt beam="1">  1        2 0.34496300E+00 0.19889284E+04</pdfrwt>
<pdfrwt beam="2">  1       -2 0.67854565E-01 0.19889284E+04</pdfrwt>
<totfact> 0.90434632E+00</totfact>
</mgrwt>
</event>
<event>
 6    1  0.1028026E-006  0.1827323E+04  0.7818608E-02  0.8691903E-01
         -2   -1    0    0    0  501 -0.00000000000E+00  0.00000000000E+00  0.14739520081E+04  0.14739520081E+04  0.00000000000E+00 0.  1.
          2   -1    0    0  501    0  0.00000000000E+00 -0.00000000000E+00 -0.56635327093E+03  0.56635327093E+03  0.00000000000E+00 0. -1.
         23    2    1    2    0    0 -0.89751184291E+01  0.87586060822E+03  0.17387237528E+03  0.89769128827E+03  0.91682541179E+02 0.  0.
         13    1    3    3    0    0  0.33586435769E+02  0.42566331099E+03  0.11063271145E+03  0.44108604584E+03  0.00000000000E+00 0. -1.
        -13    1    3    3    0    0 -0.42561554198E+02  0.45019729723E+03  0.63239663829E+02  0.45660524243E+03  0.00000000000E+00 0.  1.
         22    1    1    2    0    0  0.89751184291E+01 -0.87586060822E+03  0.73372636194E+03  0.11426139908E+04  0.00000000000E+00 0.  1.
<mgrwt>
<rscale>  0 0.18273232E+04</rscale>
<asrwt>0</asrwt>
<pdfrwt beam="1">  1        2 0.87131273E-01 0.18273232E+04</pdfrwt>
<pdfrwt beam="2">  1       -2 0.22676185E+00 0.18273232E+04</pdfrwt>
<totfact> 0.44841463E+00</totfact>
</mgrwt>
</event>
<event>
 6    1  0.1028026E-006  0.3289938E+03  0.7818608E-02  0.1071583E+00
         -2   -1    0    0    0  501 -0.00000000000E+00  0.00000000000E+00  0.36238138495E+02  0.36238138495E+02  0.00000000000E+00 0.  1.
          2   -1    0    0  501    0  0.00000000000E+00 -0.00000000000E+00 -0.74670586868E+03  0.74670586868E+03  0.00000000000E+00 0. -1.
         23    2    1    2    0    0  0.17470936188E+02  0.88018035636E+02 -0.67400580508E+03  0.68608390088E+03  0.91514400837E+02 0.  0.
         11    1    3    3    0    0  0.54980230500E+02  0.55276916085E+02 -0.43779544815E+03  0.44468327788E+03  0.00000000000E+00 0.  1.
        -11    1    3    3    0    0 -0.37509294312E+02  0.32741119551E+02 -0.23621035693E+03  0.24140062301E+03  0.00000000000E+00 0. -1.
         22    1    1    2    0    0 -0.17470936188E+02 -0.88018035636E+02 -0.36461925102E+02  0.96860106291E+02  0.00000000000E+00 0.  1.
<mgrwt>
<rscale>  0 0.32899380E+03</rscale>
<asrwt>0</asrwt>
<pdfrwt beam="1">  1        2 0.11487782E+00 0.32899380E+03</pdfrwt>
<pdfrwt beam="2">  1       -2 0.55750986E-02 0.32899380E+03</pdfrwt>
<totfact> 0.64349482E+03</totfact>
</mgrwt>
</event>
<event>
 6    1  0.1028026E-006  0.1637146E+04  0.7818608E-02  0.8798047E-01
         -1   -1    0    0    0  501 -0.00000000000E+00  0.00000000000E+00  0.49058730903E+03  0.49058730903E+03  0.00000000000E+00 0.  1.
          1   -1    0    0  501    0  0.00000000000E+00 -0.00000000000E+00 -0.13658361025E+04  0.13658361025E+04  0.00000000000E+00 0. -1.
         23    2    1    2    0    0 -0.27301196115E+03  0.62776708936E+03  0.64932452989E+02  0.69342391644E+03  0.89406124152E+02 0.  0.
         11    1    3    3    0    0 -0.27515089248E+03  0.57582031583E+03  0.64473281483E+02  0.64143109823E+03  0.00000000000E+00 0.  1.
        -11    1    3    3    0    0  0.21389313316E+01  0.51946773525E+02  0.45917150641E+00  0.51992818210E+02  0.00000000000E+00 0. -1.
         22    1    1    2    0    0  0.27301196115E+03 -0.62776708936E+03 -0.94018124650E+03  0.11629994951E+04  0.00000000000E+00 0.  1.
<mgrwt>
<rscale>  0 0.16371461E+04</rscale>
<asrwt>0</asrwt>
<pdfrwt beam="1">  1        1 0.21012863E+00 0.16371461E+04</pdfrwt>
<pdfrwt beam="2">  1       -1 0.75474972E-01 0.16371461E+04</pdfrwt>
<totfact> 0.13706869E+01</totfact>
</mgrwt>
</event>
<event>
 6    1  0.1028026E-006  0.2567795E+04  0.7818608E-02  0.8379223E-01
         -2   -1    0    0    0  501 -0.00000000000E+00  0.00000000000E+00  0.82822250952E+03  0.82822250952E+03  0.00000000000E+00 0.  1.
          2   -1    0    0  501    0  0.00000000000E+00 -0.00000000000E+00 -0.19902782787E+04  0.19902782787E+04  0.00000000000E+00 0. -1.
         23    2    1    2    0    0 -0.11386849665E+04 -0.45301827387E+03 -0.16726732693E+03  0.12400733891E+04  0.89300852400E+02 0.  0.
         13    1    3    3    0    0 -0.57937400509E+03 -0.18759101385E+03 -0.62662437795E+02  0.61220193348E+03  0.00000000000E+00 0.  1.
        -13    1    3    3    0    0 -0.55931096143E+03 -0.26542726002E+03 -0.10460488913E+03  0.62787145561E+03  0.00000000000E+00 0. -1.
         22    1    1    2    0    0  0.11386849665E+04  0.45301827387E+03 -0.99478844224E+03  0.15784273991E+04  0.00000000000E+00 0.  1.
<mgrwt>
<rscale>  0 0.25677954E+04</rscale>
<asrwt>0</asrwt>
<pdfrwt beam="1">  1        2 0.30619666E+00 0.25677954E+04</pdfrwt>
<pdfrwt beam="2">  1       -2 0.12741885E+00 0.25677954E+04</pdfrwt>
<totfact> 0.27414187E+00</totfact>
</mgrwt>
</event>
<event>
 6    1  0.1028026E-006  0.6099672E+03  0.7818608E-02  0.9884940E-01
          1   -1    0    0  501    0  0.00000000000E+00  0.00000000000E+00  0.33724551589E+04  0.33724551589E+04  0.00000000000E+00 0. -1.
         -1   -1    0    0    0  501 -0.00000000000E+00 -0.00000000000E+00 -0.27580795874E+02  0.27580795874E+02  0.00000000000E+00 0.  1.
         23    2    1    2    0    0  0.42049564271E+02 -0.15079274106E+03  0.31236740595E+04  0.31290448278E+04  0.95264305461E+02 0.  0.
         13    1    3    3    0    0  0.35241253497E+02 -0.25675678863E+02  0.37681285634E+03  0.37932718745E+03  0.00000000000E+00 0. -1.
        -13    1    3    3    0    0  0.68083107737E+01 -0.12511706220E+03  0.27468612031E+04  0.27497176403E+04  0.00000000000E+00 0.  1.
         22    1    1    2    0    0 -0.42049564271E+02  0.15079274106E+03  0.22120030356E+03  0.27099112699E+03  0.00000000000E+00 0.  1.
<mgrwt>
<rscale>  0 0.60996720E+03</rscale>
<asrwt>0</asrwt>
<pdfrwt beam="1">  1        1 0.51883893E+00 0.60996720E+03</pdfrwt>
<pdfrwt beam="2">  1       -1 0.42432020E-02 0.60996720E+03</pdfrwt>
<totfact> 0.81838891E+01</totfact>
</mgrwt>
</event>
<event>
 6    1  0.1028026E-006  0.4595303E+04  0.7818608E-02  0.7894161E-01
          2   -1    0    0  501    0  0.00000000000E+00  0.00000000000E+00  0.30539839268E+04  0.30539839268E+04  0.00000000000E+00 0. -1.
         -2   -1    0    0    0  501 -0.00000000000E+00 -0.00000000000E+00 -0.17286282488E+04  0.17286282488E+04  0.00000000000E+00 0.  1.
         23    2    1    2    0    0  0.45522734479E+03 -0.87273883420E+03  0.28226597557E+04  0.29907348056E+04  0.90452048999E+02 0.  0.
         13    1    3    3    0    0  0.21367889951E+03 -0.43804883319E+03  0.12663051282E+04  0.13568618684E+04  0.00000000000E+00 0.  1.
        -13    1    3    3    0    0  0.24154844528E+03 -0.43469000101E+03  0.15563546275E+04  0.16338729372E+04  0.00000000000E+00 0. -1.
         22    1    1    2    0    0 -0.45522734479E+03  0.87273883420E+03 -0.14973040776E+04  0.17918773700E+04  0.00000000000E+00 0.  1.
<mgrwt>
<rscale>  0 0.45953032E+04</rscale>
<asrwt>0</asrwt>
<pdfrwt beam="1">  1        2 0.46984368E+00 0.45953032E+04</pdfrwt>
<pdfrwt beam="2">  1       -2 0.26594281E+00 0.45953032E+04</pdfrwt>
<totfact> 0.62075948E-02</totfact>
</mgrwt>
</event>
<event>
 6    1  0.1028026E-006  0.2261030E+04  0.7818608E-02  0.8493447E-01
         -2   -1    0    0    0  501 -0.00000000000E+00  0.00000000000E+00  0.49804225763E+03  0.49804225763E+03  0.00000000000E+00 0.  1.
          2   -1    0    0  501    0  0.00000000000E+00 -0.00000000000E+00 -0.25661756399E+04  0.25661756399E+04  0.00000000000E+00 0. -1.
         23    2    1    2    0    0  0.68250043871E+03  0.52786624057E+03 -0.51162923082E+02  0.87044957567E+03  0.10303010395E+03 0.  0.
         13    1    3    3    0    0  0.15361768992E+03  0.14285204842E+03 -0.52595435815E+02  0.21626692365E+03  0.00000000000E+00 0. -1.
        -13    1    3    3    0    0  0.52888274878E+03  0.38501419215E+03  0.14325127327E+01  0.65418265202E+03  0.00000000000E+00 0.  1.
         22    1    1    2    0    0 -0.68250043871E+03 -0.52786624057E+03 -0.20169704592E+04  0.21937683219E+04  0.00000000000E+00 0. -1.
<mgrwt>
<rscale>  0 0.22610298E+04</rscale>
<asrwt>0</asrwt>
<pdfrwt beam="1">  1        2 0.39479626E+00 0.22610298E+04</pdfrwt>
<pdfrwt beam="2">  1       -2 0.76621885E-01 0.22610298E+04</pdfrwt>
<totfact> 0.44115259E+00</totfact>
</mgrwt>
</event>
<event>
 6    1  0.1028026E-006  0.2774466E+04  0.7818608E-02  0.8311240E-01
          1   -1    0    0  501    0  0.00000000000E+00  0.00000000000E+00  0.20654690942E+04  0.20654690942E+04  0.00000000000E+00 0. -1.
         -1   -1    0    0    0  501 -0.00000000000E+00 -0.00000000000E+00 -0.93170844780E+03  0.93170844780E+03  0.00000000000E+00 0.  1.
         23    2    1    2    0    0 -0.62552767325E+03  0.90118925072E+03 -0.34708993504E+03  0.11542599149E+04  0.91747439138E+02 0.  0.
         11    1    3    3    0    0 -0.34348626270E+03  0.42868255373E+03 -0.20074819142E+03  0.58485158877E+03  0.00000000000E+00 0. -1.
        -11    1    3    3    0    0 -0.28204141055E+03  0.47250669699E+03 -0.14634174362E+03  0.56940832615E+03  0.00000000000E+00 0.  1.
         22    1    1    2    0    0  0.62552767325E+03 -0.90118925072E+03  0.14808505814E+04  0.18429176270E+04  0.00000000000E+00 0. -1.
<mgrwt>
<rscale>  0 0.27744657E+04</rscale>
<asrwt>0</asrwt>
<pdfrwt beam="1">  1        1 0.31776447E+00 0.27744657E+04</pdfrwt>
<pdfrwt beam="2">  1       -1 0.14333976E+00 0.27744657E+04</pdfrwt>
<totfact> 0.91926045E-01</totfact>
</mgrwt>
</event>
<event>
 6    1  0.1028026E-006  0.2237926E+04  0.7818608E-02  0.8502806E-01
         -2   -1    0    0    0  501 -0.00000000000E+00  0.00000000000E+00  0.22056328196E+04  0.22056328196E+04  0.00000000000E+00 0.  1.
          2   -1    0    0  501    0  0.00000000000E+00 -0.00000000000E+00 -0.56767324139E+03  0.56767324139E+03  0.00000000000E+00 0. -1.
         23    2    1    2    0    0  0.16303557606E+03  0.69610381644E+03 -0.24340170687E+03  0.76068055997E+03  0.90826213662E+02 0.  0.
         13    1    3    3    0    0  0.15235684946E+03  0.47242618657E+03 -0.15641821829E+03  0.52044766340E+03  0.00000000000E+00 0. -1.
        -13    1    3    3    0    0  0.10678726605E+02  0.22367762988E+03 -0.86983488578E+02  0.24023289657E+03  0.00000000000E+00 0.  1.
         22    1    1    2    0    0 -0.16303557606E+03 -0.69610381644E+03  0.18813612851E+04  0.20126255010E+04  0.00000000000E+00 0.  1.
<mgrwt>
<rscale>  0 0.22379265E+04</rscale>
<asrwt>0</asrwt>
<pdfrwt beam="1">  1        2 0.87334346E-01 0.22379265E+04</pdfrwt>
<pdfrwt beam="2">  1       -2 0.33932812E+00 0.22379265E+04</pdfrwt>
<totfact> 0.87807023E-01</totfact>
</mgrwt>
</event>
<event>
 6    1  0.1028026E-006  0.2422911E+04  0.7818608E-02  0.8430975E-01
         -2   -1    0    0    0  501 -0.00000000000E+00  0.00000000000E+00  0.92575649807E+03  0.92575649807E+03  0.00000000000E+00 0.  1.
          2   -1    0    0  501    0  0.00000000000E+00 -0.00000000000E+00 -0.15853249873E+04  0.15853249873E+04  0.00000000000E+00 0. -1.
         23    2    1    2    0    0  0.78692191594E+03 -0.82466743126E+03 -0.75012301347E+03  0.13676119423E+04  0.91407961566E+02 0.  0.
         13    1    3    3    0    0  0.67061931446E+03 -0.65757937727E+03 -0.59742933618E+03  0.11131319392E+04  0.00000000000E+00 0. -1.
        -13    1    3    3    0    0  0.11630260147E+03 -0.16708805400E+03 -0.15269367728E+03  0.25448000310E+03  0.00000000000E+00 0.  1.
         22    1    1    2    0    0 -0.78692191594E+03  0.82466743126E+03  0.90554524267E+02  0.11434695430E+04  0.00000000000E+00 0.  1.
<mgrwt>
<rscale>  0 0.24229114E+04</rscale>
<asrwt>0</asrwt>
<pdfrwt beam="1">  1        2 0.24389615E+00 0.24229114E+04</pdfrwt>
<pdfrwt beam="2">  1       -2 0.14242408E+00 0.24229114E+04</pdfrwt>
<totfact> 0.35038767E+00</totfact>
</mgrwt>
</event>
<event>
 6    1  0.1028026E-006  0.2893304E+04  0.7818608E-02  0.8274873E-01
          2   -1    0    0  501    0  0.00000000000E+00  0.00000000000E+00  0.19251034941E+04  0.19251034941E+04  0.00000000000E+00 0. -1.
         -2   -1    0    0    0  501 -0.00000000000E+00 -0.00000000000E+00 -0.10871114196E+04  0.10871114196E+04  0.00000000000E+00 0.  1.
         23    2    1    2    0    0  0.60730396745E+03  0.11072104665E+04  0.11511864372E+04  0.17111292767E+04  0.89443067161E+02 0.  0.
         13    1    3    3    0    0  0.32665037953E+03  0.53750675693E+03  0.62005583995E+03  0.88322320443E+03  0.00000000000E+00 0. -1.
        -13    1    3    3    0    0  0.28065358791E+03  0.56970370952E+03  0.53113059729E+03  0.82790607223E+03  0.00000000000E+00 0.  1.
         22    1    1    2    0    0 -0.60730396745E+03 -0.11072104665E+04 -0.31319436274E+03  0.13010856370E+04  0.00000000000E+00 0.  1.
<mgrwt>
<rscale>  0 0.28933040E+04</rscale>
<asrwt>0</asrwt>
<pdfrwt beam="1">  1        2 0.29616977E+00 0.28933040E+04</pdfrwt>
<pdfrwt beam="2">  1       -2 0.16724791E+00 0.28933040E+04</pdfrwt>
<totfact> 0.14163557E+00</totfact>
</mgrwt>
</event>
<event>
 6    1  0.1028026E-006  0.8718657E+03  0.7818608E-02  0.9461451E-01
         -1   -1    0    0    0  501 -0.00000000000E+00  0.00000000000E+00  0.52868685779E+02  0.52868685779E+02  0.00000000000E+00 0.  1.
          1   -1    0    0  501    0  0.00000000000E+00 -0.00000000000E+00 -0.35945179696E+04  0.35945179696E+04  0.00000000000E+00 0. -1.
         23    2    1    2    0    0  0.38412548766E+03  0.14540589118E+02 -0.26080043713E+04  0.26377051999E+04  0.89655459975E+02 0.  0.
         11    1    3    3    0    0  0.23816255857E+03  0.49850362219E+02 -0.15100736692E+04  0.15295518786E+04  0.00000000000E+00 0. -1.
        -11    1    3    3    0    0  0.14596292909E+03 -0.35309773101E+02 -0.10979307022E+04  0.11081533213E+04  0.00000000000E+00 0.  1.
         22    1    1    2    0    0 -0.38412548766E+03 -0.14540589118E+02 -0.93364491252E+03  0.10096814555E+04  0.00000000000E+00 0.  1.
<mgrwt>
<rscale>  0 0.87186568E+03</rscale>
<asrwt>0</asrwt>
<pdfrwt beam="1">  1        1 0.55300271E+00 0.87186568E+03</pdfrwt>
<pdfrwt beam="2">  1       -1 0.81336447E-02 0.87186568E+03</pdfrwt>
<totfact> 0.19466313E+01</totfact>
</mgrwt>
</event>
<event>
 6    1  0.1028026E-006  0.2577578E+04  0.7818608E-02  0.8375857E-01
         -2   -1    0    0    0  501 -0.00000000000E+00  0.00000000000E+00  0.16612061518E+04  0.16612061518E+04  0.00000000000E+00 0.  1.
          2   -1    0    0  501    0  0.00000000000E+00 -0.00000000000E+00 -0.99986230553E+03  0.99986230553E+03  0.00000000000E+00 0. -1.
         23    2    1    2    0    0 -0.25305639636E+03  0.99438746348E+03  0.11334352258E+04  0.15315932527E+04  0.90876363032E+02 0.  0.
         11    1    3    3    0    0 -0.53238398342E+02  0.38015786240E+03  0.44095022834E+03  0.58462931100E+03  0.00000000000E+00 0. -1.
        -11    1    3    3    0    0 -0.19981799802E+03  0.61422960107E+03  0.69248499747E+03  0.94696394171E+03  0.00000000000E+00 0.  1.
         22    1    1    2    0    0  0.25305639636E+03 -0.99438746348E+03 -0.47209137953E+03  0.11294752046E+04  0.00000000000E+00 0. -1.
<mgrwt>
<rscale>  0 0.25775783E+04</rscale>
<asrwt>0</asrwt>
<pdfrwt beam="1">  1        2 0.15382497E+00 0.25775783E+04</pdfrwt>
<pdfrwt beam="2">  1       -2 0.25557018E+00 0.25775783E+04</pdfrwt>
<totfact> 0.13258896E+00</totfact>
</mgrwt>
</event>
<event>
 6    1  0.1028026E-006  0.1546853E+04  0.7818608E-02  0.8853880E-01
         -2   -1    0    0    0  501 -0.00000000000E+00  0.00000000000E+00  0.21396699766E+03  0.21396699766E+03  0.00000000000E+00 0.  1.
          2   -1    0    0  501    0  0.00000000000E+00 -0.00000000000E+00 -0.27957057957E+04  0.27957057957E+04  0.00000000000E+00 0. -1.
         23    2    1    2    0    0  0.50660224118E+03 -0.50010693600E+03 -0.18697437121E+04  0.20028511704E+04  0.93372818785E+02 0.  0.
         11    1    3    3    0    0  0.38533623557E+03 -0.35151454007E+03 -0.12611464334E+04  0.13647478935E+04  0.00000000000E+00 0.  1.
        -11    1    3    3    0    0  0.12126600560E+03 -0.14859239594E+03 -0.60859727872E+03  0.63810327684E+03  0.00000000000E+00 0. -1.
         22    1    1    2    0    0 -0.50660224118E+03  0.50010693600E+03 -0.71199508591E+03  0.10068216230E+04  0.00000000000E+00 0. -1.
<mgrwt>
<rscale>  0 0.15468533E+04</rscale>
<asrwt>0</asrwt>
<pdfrwt beam="1">  1        2 0.43010854E+00 0.15468533E+04</pdfrwt>
<pdfrwt beam="2">  1       -2 0.32918003E-01 0.15468533E+04</pdfrwt>
<totfact> 0.19376557E+01</totfact>
</mgrwt>
</event>
<event>
 6    1  0.1336055E-006  0.2873225E+04  0.7818608E-02  0.8280889E-01
          2   -1    0    0  501    0  0.00000000000E+00  0.00000000000E+00  0.11720147773E+04  0.11720147773E+04  0.00000000000E+00 0. -1.
         -2   -1    0    0    0  501 -0.00000000000E+00 -0.00000000000E+00 -0.17609460490E+04  0.17609460490E+04  0.00000000000E+00 0.  1.
         23    2    1    2    0    0 -0.12538785762E+04  0.61645419972E+03  0.39548682186E+02  0.14008987138E+04  0.93412225447E+02 0.  0.
         11    1    3    3    0    0 -0.54975343234E+03  0.31946391135E+03  0.32626006829E+02  0.63667140924E+03  0.00000000000E+00 0.  1.
        -11    1    3    3    0    0 -0.70412514382E+03  0.29699028837E+03  0.69226753570E+01  0.76422730452E+03  0.00000000000E+00 0. -1.
         22    1    1    2    0    0  0.12538785762E+04 -0.61645419972E+03 -0.62847995390E+03  0.15320621125E+04  0.00000000000E+00 0.  1.
<mgrwt>
<rscale>  0 0.28732245E+04</rscale>
<asrwt>0</asrwt>
<pdfrwt beam="1">  1        2 0.18030997E+00 0.28732245E+04</pdfrwt>
<pdfrwt beam="2">  1       -2 0.27091478E+00 0.28732245E+04</pdfrwt>
<totfact> 0.81481575E-01</totfact>
</mgrwt>
</event>
<event>
 6    1  0.1028026E-006  0.4273211E+04  0.7818608E-02  0.7951590E-01
         -2   -1    0    0    0  501 -0.00000000000E+00  0.00000000000E+00  0.14122670617E+04  0.14122670617E+04  0.00000000000E+00 0.  1.
          2   -1    0    0  501    0  0.00000000000E+00 -0.00000000000E+00 -0.32324505471E+04  0.32324505471E+04  0.00000000000E+00 0. -1.
         23    2    1    2    0    0 -0.11747638226E+04  0.11163883985E+04 -0.24223673134E+04  0.29158398059E+04  0.88686400587E+02 0.  0.
         11    1    3    3    0    0 -0.94796779480E+03  0.85343580105E+03 -0.19250223073E+04  0.23092653572E+04  0.00000000000E+00 0.  1.
        -11    1    3    3    0    0 -0.22679602775E+03  0.26295259741E+03 -0.49734500609E+03  0.60657444867E+03  0.00000000000E+00 0. -1.
         22    1    1    2    0    0  0.11747638226E+04 -0.11163883985E+04  0.60218382796E+03  0.17288778030E+04  0.00000000000E+00 0.  1.
<mgrwt>
<rscale>  0 0.42732112E+04</rscale>
<asrwt>0</asrwt>
<pdfrwt beam="1">  1        2 0.49730009E+00 0.42732112E+04</pdfrwt>
<pdfrwt beam="2">  1       -2 0.21727185E+00 0.42732112E+04</pdfrwt>
<totfact> 0.97908299E-02</totfact>
</mgrwt>
</event>
<event>
 6    1  0.1028026E-006  0.1455142E+04  0.7818608E-02  0.8914844E-01
          2   -1    0    0  501    0  0.00000000000E+00  0.00000000000E+00  0.35092455114E+04  0.35092455114E+04  0.00000000000E+00 0. -1.
         -2   -1    0    0    0  501 -0.00000000000E+00 -0.00000000000E+00 -0.15084708404E+03  0.15084708404E+03  0.00000000000E+00 0.  1.
         23    2    1    2    0    0  0.56311797994E+03 -0.36170584829E+03  0.98591112171E+03  0.11950106505E+04  0.89981858035E+02 0.  0.
         11    1    3    3    0    0  0.18455885408E+03 -0.12807576816E+03  0.25968148270E+03  0.34336546924E+03  0.00000000000E+00 0.  1.
        -11    1    3    3    0    0  0.37855912586E+03 -0.23363008013E+03  0.72622963901E+03  0.85164518121E+03  0.00000000000E+00 0. -1.
         22    1    1    2    0    0 -0.56311797994E+03  0.36170584829E+03  0.23724873057E+04  0.24650819450E+04  0.00000000000E+00 0. -1.
<mgrwt>
<rscale>  0 0.14551419E+04</rscale>
<asrwt>0</asrwt>
<pdfrwt beam="1">  1        2 0.53988386E+00 0.14551419E+04</pdfrwt>
<pdfrwt beam="2">  1       -2 0.23207246E-01 0.14551419E+04</pdfrwt>
<totfact> 0.12941867E+01</totfact>
</mgrwt>
</event>
<event>
 6    1  0.1028026E-006  0.3379639E+04  0.7818608E-02  0.8142922E-01
         -2   -1    0    0    0  501 -0.00000000000E+00  0.00000000000E+00  0.19447066588E+04  0.19447066588E+04  0.00000000000E+00 0.  1.
          2   -1    0    0  501    0  0.00000000000E+00 -0.00000000000E+00 -0.14683392511E+04  0.14683392511E+04  0.00000000000E+00 0. -1.
         23    2    1    2    0    0 -0.53062751312E+03 -0.86540396374E+03  0.16010471451E+04  0.18979901057E+04  0.92330398272E+02 0.  0.
         13    1    3    3    0    0 -0.51490520149E+03 -0.80225844581E+03  0.15176775974E+04  0.17922308082E+04  0.00000000000E+00 0.  1.
        -13    1    3    3    0    0 -0.15722311628E+02 -0.63145517926E+02  0.83369547694E+02  0.10575929746E+03  0.00000000000E+00 0. -1.
         22    1    1    2    0    0  0.53062751312E+03  0.86540396374E+03 -0.11246797374E+04  0.15150558042E+04  0.00000000000E+00 0. -1.
<mgrwt>
<rscale>  0 0.33796385E+04</rscale>
<asrwt>0</asrwt>
<pdfrwt beam="1">  1        2 0.22589835E+00 0.33796385E+04</pdfrwt>
<pdfrwt beam="2">  1       -2 0.29918564E+00 0.33796385E+04</pdfrwt>
<totfact> 0.35289531E-01</totfact>
</mgrwt>
</event>
<event>
 6    1  0.1028026E-006  0.2478775E+04  0.7818608E-02  0.8410586E-01
          1   -1    0    0  501    0  0.00000000000E+00  0.00000000000E+00  0.98287100055E+03  0.98287100055E+03  0.00000000000E+00 0. -1.
         -1   -1    0    0    0  501 -0.00000000000E+00 -0.00000000000E+00 -0.15628519695E+04  0.15628519695E+04  0.00000000000E+00 0.  1.
         23    2    1    2    0    0 -0.81073267333E+03  0.89117501616E+03 -0.58136888022E+03  0.13409481764E+04  0.93122822124E+02 0.  0.
         13    1    3    3    0    0 -0.52583101545E+03  0.54360448961E+03 -0.40721404504E+03  0.85896878663E+03  0.00000000000E+00 0. -1.
        -13    1    3    3    0    0 -0.28490165788E+03  0.34757052655E+03 -0.17415483517E+03  0.48197938981E+03  0.00000000000E+00 0.  1.
         22    1    1    2    0    0  0.81073267333E+03 -0.89117501616E+03  0.13879112462E+01  0.12047747936E+04  0.00000000000E+00 0.  1.
<mgrwt>
<rscale>  0 0.24787754E+04</rscale>
<asrwt>0</asrwt>
<pdfrwt beam="1">  1        1 0.15121093E+00 0.24787754E+04</pdfrwt>
<pdfrwt beam="2">  1       -1 0.24043876E+00 0.24787754E+04</pdfrwt>
<totfact> 0.11186907E+00</totfact>
</mgrwt>
</event>
<event>
 6    1  0.1028026E-006  0.2893681E+04  0.7818608E-02  0.8274760E-01
          2   -1    0    0  501    0  0.00000000000E+00  0.00000000000E+00  0.15200756396E+04  0.15200756396E+04  0.00000000000E+00 0. -1.
         -2   -1    0    0    0  501 -0.00000000000E+00 -0.00000000000E+00 -0.13771337922E+04  0.13771337922E+04  0.00000000000E+00 0.  1.
         23    2    1    2    0    0 -0.85403616944E+03  0.34814200716E+03  0.11858356671E+04  0.15050139875E+04  0.90995809176E+02 0.  0.
         13    1    3    3    0    0 -0.51681623247E+03  0.16707090602E+03  0.66390651217E+03  0.85777827129E+03  0.00000000000E+00 0.  1.
        -13    1    3    3    0    0 -0.33721993697E+03  0.18107110114E+03  0.52192915493E+03  0.64723571619E+03  0.00000000000E+00 0. -1.
         22    1    1    2    0    0  0.85403616944E+03 -0.34814200716E+03 -0.10428938198E+04  0.13921954443E+04  0.00000000000E+00 0.  1.
<mgrwt>
<rscale>  0 0.28936811E+04</rscale>
<asrwt>0</asrwt>
<pdfrwt beam="1">  1        2 0.23385779E+00 0.28936811E+04</pdfrwt>
<pdfrwt beam="2">  1       -2 0.21186674E+00 0.28936811E+04</pdfrwt>
<totfact> 0.11895637E+00</totfact>
</mgrwt>
</event>
<event>
 6    1  0.1028026E-006  0.2364213E+04  0.7818608E-02  0.8453024E-01
         -2   -1    0    0    0  501 -0.00000000000E+00  0.00000000000E+00  0.65780300013E+03  0.65780300013E+03  0.00000000000E+00 0.  1.
          2   -1    0    0  501    0  0.00000000000E+00 -0.00000000000E+00 -0.21243074893E+04  0.21243074893E+04  0.00000000000E+00 0. -1.
         23    2    1    2    0    0  0.76480649994E+03  0.40282111078E+03 -0.16800787375E+04  0.18917129438E+04  0.93378090940E+02 0.  0.
         13    1    3    3    0    0  0.52298979193E+03  0.25034143549E+03 -0.10403670568E+04  0.11910301296E+04  0.00000000000E+00 0. -1.
        -13    1    3    3    0    0  0.24181670800E+03  0.15247967529E+03 -0.63971168074E+03  0.70068281421E+03  0.00000000000E+00 0.  1.
         22    1    1    2    0    0 -0.76480649994E+03 -0.40282111078E+03  0.21357424838E+03  0.89039754560E+03  0.00000000000E+00 0.  1.
<mgrwt>
<rscale>  0 0.23642131E+04</rscale>
<asrwt>0</asrwt>
<pdfrwt beam="1">  1        2 0.32681653E+00 0.23642131E+04</pdfrwt>
<pdfrwt beam="2">  1       -2 0.10120046E+00 0.23642131E+04</pdfrwt>
<totfact> 0.41230493E+00</totfact>
</mgrwt>
</event>
<event>
 6    1  0.1028026E-006  0.3958898E+04  0.7818608E-02  0.8012890E-01
          2   -1    0    0  501    0  0.00000000000E+00  0.00000000000E+00  0.24165174045E+04  0.24165174045E+04  0.00000000000E+00 0. -1.
         -2   -1    0    0    0  501 -0.00000000000E+00 -0.00000000000E+00 -0.16214316243E+04  0.16214316243E+04  0.00000000000E+00 0.  1.
         23    2    1    2    0    0  0.42176539807E+02 -0.74668154526E+03 -0.14706906835E+04  0.16519366285E+04  0.81555794310E+02 0.  0.
         11    1    3    3    0    0  0.54802438519E+02 -0.72208375452E+03 -0.14270404779E+04  0.16002664720E+04  0.00000000000E+00 0. -1.
        -11    1    3    3    0    0 -0.12625898713E+02 -0.24597790739E+02 -0.43650205635E+02  0.51670156566E+02  0.00000000000E+00 0.  1.
         22    1    1    2    0    0 -0.42176539807E+02  0.74668154526E+03  0.22657764637E+04  0.23860124002E+04  0.00000000000E+00 0. -1.
<mgrwt>
<rscale>  0 0.39588977E+04</rscale>
<asrwt>0</asrwt>
<pdfrwt beam="1">  1        2 0.37177191E+00 0.39588977E+04</pdfrwt>
<pdfrwt beam="2">  1       -2 0.24945102E+00 0.39588977E+04</pdfrwt>
<totfact> 0.19939303E-01</totfact>
</mgrwt>
</event>
<event>
 6    1  0.1028026E-006  0.3063883E+04  0.7818608E-02  0.8225720E-01
          2   -1    0    0  501    0  0.00000000000E+00  0.00000000000E+00  0.12015014443E+04  0.12015014443E+04  0.00000000000E+00 0. -1.
         -2   -1    0    0    0  501 -0.00000000000E+00 -0.00000000000E+00 -0.19532596026E+04  0.19532596026E+04  0.00000000000E+00 0.  1.
         23    2    1    2    0    0 -0.75308393367E+03 -0.15728206397E+03  0.98608783375E+03  0.12542396051E+04  0.94205691710E+02 0.  0.
         13    1    3    3    0    0 -0.15322859891E+03 -0.18393402028E+02  0.25873677228E+03  0.30126738637E+03  0.00000000000E+00 0. -1.
        -13    1    3    3    0    0 -0.59985533476E+03 -0.13888866195E+03  0.72735106146E+03  0.95297221873E+03  0.00000000000E+00 0.  1.
         22    1    1    2    0    0  0.75308393367E+03  0.15728206397E+03 -0.17378459920E+04  0.19005214418E+04  0.00000000000E+00 0.  1.
<mgrwt>
<rscale>  0 0.30638827E+04</rscale>
<asrwt>0</asrwt>
<pdfrwt beam="1">  1        2 0.18484638E+00 0.30638827E+04</pdfrwt>
<pdfrwt beam="2">  1       -2 0.30050148E+00 0.30638827E+04</pdfrwt>
<totfact> 0.50792695E-01</totfact>
</mgrwt>
</event>
<event>
 6    1  0.1028026E-006  0.2151384E+04  0.7818608E-02  0.8538940E-01
         -2   -1    0    0    0  501 -0.00000000000E+00  0.00000000000E+00  0.29233582811E+03  0.29233582811E+03  0.00000000000E+00 0.  1.
          2   -1    0    0  501    0  0.00000000000E+00 -0.00000000000E+00 -0.39581662118E+04  0.39581662118E+04  0.00000000000E+00 0. -1.
         23    2    1    2    0    0  0.59962413209E+03  0.88939403102E+03 -0.19319943378E+04  0.22116890823E+04  0.91627687899E+02 0.  0.
         11    1    3    3    0    0  0.44206878463E+03  0.63175050539E+03 -0.14656417158E+04  0.16560915284E+04  0.00000000000E+00 0.  1.
        -11    1    3    3    0    0  0.15755534746E+03  0.25764352563E+03 -0.46635262202E+03  0.55559755388E+03  0.00000000000E+00 0. -1.
         22    1    1    2    0    0 -0.59962413209E+03 -0.88939403102E+03 -0.17338360459E+04  0.20388129576E+04  0.00000000000E+00 0.  1.
<mgrwt>
<rscale>  0 0.21513845E+04</rscale>
<asrwt>0</asrwt>
<pdfrwt beam="1">  1        2 0.60894863E+00 0.21513845E+04</pdfrwt>
<pdfrwt beam="2">  1       -2 0.44974744E-01 0.21513845E+04</pdfrwt>
<totfact> 0.16027377E+00</totfact>
</mgrwt>
</event>
<event>
 6    1  0.1028026E-006  0.9464861E+03  0.7818608E-02  0.9369267E-01
         -2   -1    0    0    0  501 -0.00000000000E+00  0.00000000000E+00  0.10218818152E+03  0.10218818152E+03  0.00000000000E+00 0.  1.
          2   -1    0    0  501    0  0.00000000000E+00 -0.00000000000E+00 -0.21916328888E+04  0.21916328888E+04  0.00000000000E+00 0. -1.
         23    2    1    2    0    0 -0.10799782704E+03 -0.43100427880E+03 -0.14186089210E+04  0.14891789939E+04  0.88173613621E+02 0.  0.
         13    1    3    3    0    0 -0.42259692517E-01 -0.10547644435E+03 -0.43087579144E+03  0.44359804976E+03  0.00000000000E+00 0. -1.
        -13    1    3    3    0    0 -0.10795556735E+03 -0.32552783444E+03 -0.98773312953E+03  0.10455809441E+04  0.00000000000E+00 0.  1.
         22    1    1    2    0    0  0.10799782704E+03  0.43100427880E+03 -0.67083578628E+03  0.80464207642E+03  0.00000000000E+00 0. -1.
<mgrwt>
<rscale>  0 0.94648609E+03</rscale>
<asrwt>0</asrwt>
<pdfrwt beam="1">  1        2 0.33717430E+00 0.94648609E+03</pdfrwt>
<pdfrwt beam="2">  1       -2 0.15721258E-01 0.94648609E+03</pdfrwt>
<totfact> 0.17083129E+02</totfact>
</mgrwt>
</event>
<event>
 6    1  0.1028026E-006  0.1571334E+04  0.7818608E-02  0.8838355E-01
          2   -1    0    0  501    0  0.00000000000E+00  0.00000000000E+00  0.17528327749E+04  0.17528327749E+04  0.00000000000E+00 0. -1.
         -2   -1    0    0    0  501 -0.00000000000E+00 -0.00000000000E+00 -0.35215716343E+03  0.35215716343E+03  0.00000000000E+00 0.  1.
         23    2    1    2    0    0  0.67452192760E+03  0.37931566915E+03  0.54213358879E+03  0.94915491015E+03  0.90144371355E+02 0.  0.
         13    1    3    3    0    0  0.41067360575E+03  0.26309092988E+03  0.38080572173E+03  0.61877511710E+03  0.00000000000E+00 0. -1.
        -13    1    3    3    0    0  0.26384832185E+03  0.11622473927E+03  0.16132786706E+03  0.33037979304E+03  0.00000000000E+00 0.  1.
         22    1    1    2    0    0 -0.67452192760E+03 -0.37931566915E+03  0.85854202267E+03  0.11558350282E+04  0.00000000000E+00 0.  1.
<mgrwt>
<rscale>  0 0.15713340E+04</rscale>
<asrwt>0</asrwt>
<pdfrwt beam="1">  1        2 0.26966658E+00 0.15713340E+04</pdfrwt>
<pdfrwt beam="2">  1       -2 0.54178026E-01 0.15713340E+04</pdfrwt>
<totfact> 0.28252256E+01</totfact>
</mgrwt>
</event>
<event>
 6    1  0.1028026E-006  0.1969005E+04  0.7818608E-02  0.8621250E-01
          2   -1    0    0  501    0  0.00000000000E+00  0.00000000000E+00  0.11810432338E+04  0.11810432338E+04  0.00000000000E+00 0. -1.
         -2   -1    0    0    0  501 -0.00000000000E+00 -0.00000000000E+00 -0.82066903814E+03  0.82066903814E+03  0.00000000000E+00 0.  1.
         23    2    1    2    0    0 -0.11318419514E+03  0.10889826634E+03  0.11664018389E+04  0.11805240743E+04  0.92056210057E+02 0.  0.
         13    1    3    3    0    0 -0.12677411905E+03  0.81052996160E+02  0.92858566786E+03  0.94069793664E+03  0.00000000000E+00 0. -1.
        -13    1    3    3    0    0  0.13589923917E+02  0.27845270179E+02  0.23781617101E+03  0.23982613765E+03  0.00000000000E+00 0.  1.
         22    1    1    2    0    0  0.11318419514E+03 -0.10889826634E+03 -0.80602764318E+03  0.82118819768E+03  0.00000000000E+00 0.  1.
<mgrwt>
<rscale>  0 0.19690054E+04</rscale>
<asrwt>0</asrwt>
<pdfrwt beam="1">  1        2 0.18169896E+00 0.19690054E+04</pdfrwt>
<pdfrwt beam="2">  1       -2 0.12625678E+00 0.19690054E+04</pdfrwt>
<totfact> 0.84686287E+00</totfact>
</mgrwt>
</event>
<event>
 6    1  0.1028026E-006  0.2936857E+04  0.7818608E-02  0.8261995E-01
          1   -1    0    0  501    0  0.00000000000E+00  0.00000000000E+00  0.18422247103E+04  0.18422247103E+04  0.00000000000E+00 0. -1.
         -1   -1    0    0    0  501 -0.00000000000E+00 -0.00000000000E+00 -0.11704774382E+04  0.11704774382E+04  0.00000000000E+00 0.  1.
         23    2    1    2    0    0  0.12188095116E+04  0.81585183817E+03  0.37238984646E+03  0.15157967689E+04  0.88627307676E+02 0.  0.
         13    1    3    3    0    0  0.71033327922E+03  0.51879595608E+03  0.19792964382E+03  0.90160898150E+03  0.00000000000E+00 0.  1.
        -13    1    3    3    0    0  0.50847623234E+03  0.29705588209E+03  0.17446020264E+03  0.61418778744E+03  0.00000000000E+00 0. -1.
         22    1    1    2    0    0 -0.12188095116E+04 -0.81585183817E+03  0.29935742563E+03  0.14969053796E+04  0.00000000000E+00 0.  1.
<mgrwt>
<rscale>  0 0.29368571E+04</rscale>
<asrwt>0</asrwt>
<pdfrwt beam="1">  1        1 0.28341919E+00 0.29368571E+04</pdfrwt>
<pdfrwt beam="2">  1       -1 0.18007345E+00 0.29368571E+04</pdfrwt>
<totfact> 0.67826903E-01</totfact>
</mgrwt>
</event>
<event>
 6    1  0.1262340E-006  0.3922521E+04  0.7818608E-02  0.8020361E-01
          1   -1    0    0  501    0  0.00000000000E+00  0.00000000000E+00  0.20351183634E+04  0.20351183634E+04  0.00000000000E+00 0. -1.
         -1   -1    0    0    0  501 -0.00000000000E+00 -0.00000000000E+00 -0.18900834106E+04  0.18900834106E+04  0.00000000000E+00 0.  1.
         23    2    1    2    0    0 -0.62400691662E+03  0.85767572418E+03  0.17227632784E+04  0.20240918484E+04  0.63578434711E+02 0.  0.
         13    1    3    3    0    0 -0.21777751341E+03  0.34866851324E+03  0.64621784387E+03  0.76589443085E+03  0.00000000000E+00 0.  1.
        -13    1    3    3    0    0 -0.40622940321E+03  0.50900721094E+03  0.10765454346E+04  0.12581974175E+04  0.00000000000E+00 0. -1.
         22    1    1    2    0    0  0.62400691662E+03 -0.85767572418E+03 -0.15777283256E+04  0.19011099256E+04  0.00000000000E+00 0.  1.
<mgrwt>
<rscale>  0 0.39225214E+04</rscale>
<asrwt>0</asrwt>
<pdfrwt beam="1">  1        1 0.31309513E+00 0.39225214E+04</pdfrwt>
<pdfrwt beam="2">  1       -1 0.29078206E+00 0.39225214E+04</pdfrwt>
<totfact> 0.84193429E-02</totfact>
</mgrwt>
</event>
<event>
 6    1  0.1028026E-006  0.3497747E+04  0.7818608E-02  0.8114324E-01
         -2   -1    0    0    0  501 -0.00000000000E+00  0.00000000000E+00  0.95737792588E+03  0.95737792588E+03  0.00000000000E+00 0.  1.
          2   -1    0    0  501    0  0.00000000000E+00 -0.00000000000E+00 -0.31947234770E+04  0.31947234770E+04  0.00000000000E+00 0. -1.
         23    2    1    2    0    0 -0.27374824016E+03  0.45284760371E+03  0.85774295945E+03  0.10121042788E+04  0.92860300530E+02 0.  0.
         11    1    3    3    0    0 -0.26693184786E+02  0.98839546972E+02  0.21092898430E+03  0.23446282984E+03  0.00000000000E+00 0.  1.
        -11    1    3    3    0    0 -0.24705505537E+03  0.35400805674E+03  0.64681397516E+03  0.77764144892E+03  0.00000000000E+00 0. -1.
         22    1    1    2    0    0  0.27374824016E+03 -0.45284760371E+03 -0.30950885106E+04  0.31399971241E+04  0.00000000000E+00 0. -1.
<mgrwt>
<rscale>  0 0.34977466E+04</rscale>
<asrwt>0</asrwt>
<pdfrwt beam="1">  1        2 0.49149593E+00 0.34977466E+04</pdfrwt>
<pdfrwt beam="2">  1       -2 0.14728891E+00 0.34977466E+04</pdfrwt>
<totfact> 0.33743321E-01</totfact>
</mgrwt>
</event>
<event>
 6    1  0.1028026E-006  0.1302613E+04  0.7818608E-02  0.9027495E-01
          2   -1    0    0  501    0  0.00000000000E+00  0.00000000000E+00  0.30054412062E+04  0.30054412062E+04  0.00000000000E+00 0. -1.
         -2   -1    0    0    0  501 -0.00000000000E+00 -0.00000000000E+00 -0.14114413657E+03  0.14114413657E+03  0.00000000000E+00 0.  1.
         23    2    1    2    0    0 -0.30665441447E+03  0.20188909427E+03  0.27293419875E+04  0.27554216808E+04  0.90800977866E+02 0.  0.
         11    1    3    3    0    0 -0.28471760887E+03  0.19595050157E+03  0.26620874550E+04  0.26844311006E+04  0.00000000000E+00 0.  1.
        -11    1    3    3    0    0 -0.21936805596E+02  0.59385926955E+01  0.67254532515E+02  0.70990580127E+02  0.00000000000E+00 0. -1.
         22    1    1    2    0    0  0.30665441447E+03 -0.20188909427E+03  0.13495508209E+03  0.39116366201E+03  0.00000000000E+00 0.  1.
<mgrwt>
<rscale>  0 0.13026134E+04</rscale>
<asrwt>0</asrwt>
<pdfrwt beam="1">  1        2 0.46237552E+00 0.13026134E+04</pdfrwt>
<pdfrwt beam="2">  1       -2 0.21714485E-01 0.13026134E+04</pdfrwt>
<totfact> 0.31646869E+01</totfact>
</mgrwt>
</event>
<event>
 6    1  0.1028026E-006  0.2414483E+04  0.7818608E-02  0.8434101E-01
          1   -1    0    0  501    0  0.00000000000E+00  0.00000000000E+00  0.34808562343E+04  0.34808562343E+04  0.00000000000E+00 0. -1.
         -1   -1    0    0    0  501 -0.00000000000E+00 -0.00000000000E+00 -0.41869927481E+03  0.41869927481E+03  0.00000000000E+00 0.  1.
         23    2    1    2    0    0  0.78710625771E+03  0.13112041393E+03  0.29927231423E+04  0.30985874205E+04  0.90129752818E+02 0.  0.
         13    1    3    3    0    0  0.34068772618E+03  0.21118880843E+02  0.13819327948E+04  0.14234649217E+04  0.00000000000E+00 0. -1.
        -13    1    3    3    0    0  0.44641853153E+03  0.11000153309E+03  0.16107903475E+04  0.16751224989E+04  0.00000000000E+00 0.  1.
         22    1    1    2    0    0 -0.78710625771E+03 -0.13112041393E+03  0.69433817141E+02  0.80096808853E+03  0.00000000000E+00 0.  1.
<mgrwt>
<rscale>  0 0.24144830E+04</rscale>
<asrwt>0</asrwt>
<pdfrwt beam="1">  1        1 0.53551633E+00 0.24144830E+04</pdfrwt>
<pdfrwt beam="2">  1       -1 0.64415275E-01 0.24144830E+04</pdfrwt>
<totfact> 0.56664011E-01</totfact>
</mgrwt>
</event>
<event>
 6    1  0.1028026E-006  0.2096971E+04  0.7818608E-02  0.8562579E-01
         -1   -1    0    0    0  501 -0.00000000000E+00  0.00000000000E+00  0.58512784904E+03  0.58512784904E+03  0.00000000000E+00 0.  1.
          1   -1    0    0  501    0  0.00000000000E+00 -0.00000000000E+00 -0.18787723739E+04  0.18787723739E+04  0.00000000000E+00 0. -1.
         23    2    1    2    0    0 -0.14729186712E+03 -0.85498373790E+03 -0.13357012284E+04  0.15953031630E+04  0.90566683476E+02 0.  0.
         13    1    3    3    0    0 -0.86011023151E+02 -0.59809409806E+03 -0.99690134664E+03  0.11657301322E+04  0.00000000000E+00 0. -1.
        -13    1    3    3    0    0 -0.61280843972E+02 -0.25688963984E+03 -0.33879988172E+03  0.42957303075E+03  0.00000000000E+00 0.  1.
         22    1    1    2    0    0  0.14729186712E+03  0.85498373790E+03  0.42056703545E+02  0.86859705993E+03  0.00000000000E+00 0.  1.
<mgrwt>
<rscale>  0 0.20969712E+04</rscale>
<asrwt>0</asrwt>
<pdfrwt beam="1">  1        1 0.28904191E+00 0.20969712E+04</pdfrwt>
<pdfrwt beam="2">  1       -1 0.90019668E-01 0.20969712E+04</pdfrwt>
<totfact> 0.39997276E+00</totfact>
</mgrwt>
</event>
<event>
 6    1  0.1394101E-006  0.3175849E+04  0.7818608E-02  0.8195225E-01
          2   -1    0    0  501    0  0.00000000000E+00  0.00000000000E+00  0.27290182315E+04  0.27290182315E+04  0.00000000000E+00 0. -1.
         -2   -1    0    0    0  501 -0.00000000000E+00 -0.00000000000E+00 -0.92396024630E+03  0.92396024630E+03  0.00000000000E+00 0.  1.
         23    2    1    2    0    0 -0.32586891506E+03  0.14878682144E+04  0.14143408568E+04  0.20805274459E+04  0.91060531948E+02 0.  0.
         11    1    3    3    0    0 -0.74128417389E+02  0.41685984560E+03  0.34324989580E+03  0.54505746862E+03  0.00000000000E+00 0.  1.
        -11    1    3    3    0    0 -0.25174049767E+03  0.10710083688E+04  0.10710909610E+04  0.15354699773E+04  0.00000000000E+00 0. -1.
         22    1    1    2    0    0  0.32586891506E+03 -0.14878682144E+04  0.39071712837E+03  0.15724510319E+04  0.00000000000E+00 0. -1.
<mgrwt>
<rscale>  0 0.31758491E+04</rscale>
<asrwt>0</asrwt>
<pdfrwt beam="1">  1        2 0.41984896E+00 0.31758491E+04</pdfrwt>
<pdfrwt beam="2">  1       -2 0.14214773E+00 0.31758491E+04</pdfrwt>
<totfact> 0.74283462E-01</totfact>
</mgrwt>
</event>
<event>
 6    1  0.1028026E-006  0.2050768E+04  0.7818608E-02  0.8583246E-01
          1   -1    0    0  501    0  0.00000000000E+00  0.00000000000E+00  0.55367942829E+03  0.55367942829E+03  0.00000000000E+00 0. -1.
         -1   -1    0    0    0  501 -0.00000000000E+00 -0.00000000000E+00 -0.18989559214E+04  0.18989559214E+04  0.00000000000E+00 0.  1.
         23    2    1    2    0    0 -0.63976813826E+03 -0.59189741759E+03 -0.13155671189E+04  0.15805525150E+04  0.88224625716E+02 0.  0.
         11    1    3    3    0    0 -0.28418834718E+03 -0.24647278321E+03 -0.49266090599E+03  0.61986015990E+03  0.00000000000E+00 0. -1.
        -11    1    3    3    0    0 -0.35557979108E+03 -0.34542463438E+03 -0.82290621291E+03  0.96069235508E+03  0.00000000000E+00 0.  1.
         22    1    1    2    0    0  0.63976813826E+03  0.59189741759E+03 -0.29709374211E+02  0.87208283471E+03  0.00000000000E+00 0. -1.
<mgrwt>
<rscale>  0 0.20507685E+04</rscale>
<asrwt>0</asrwt>
<pdfrwt beam="1">  1        1 0.85181449E-01 0.20507685E+04</pdfrwt>
<pdfrwt beam="2">  1       -1 0.29214707E+00 0.20507685E+04</pdfrwt>
<totfact> 0.13184511E+00</totfact>
</mgrwt>
</event>
<event>
 6    1  0.1028026E-006  0.2395710E+04  0.7818608E-02  0.8441111E-01
         -2   -1    0    0    0  501 -0.00000000000E+00  0.00000000000E+00  0.10773282767E+04  0.10773282767E+04  0.00000000000E+00 0.  1.
          2   -1    0    0  501    0  0.00000000000E+00 -0.00000000000E+00 -0.13318656623E+04  0.13318656623E+04  0.00000000000E+00 0. -1.
         23    2    1    2    0    0 -0.95593439589E+03  0.12293215463E+03 -0.83971331626E+03  0.12816507009E+04  0.92667047682E+02 0.  0.
         13    1    3    3    0    0 -0.74470678060E+03  0.59537019422E+02 -0.62859840923E+03  0.97635485651E+03  0.00000000000E+00 0. -1.
        -13    1    3    3    0    0 -0.21122761529E+03  0.63395135206E+02 -0.21111490703E+03  0.30529584439E+03  0.00000000000E+00 0.  1.
         22    1    1    2    0    0  0.95593439589E+03 -0.12293215463E+03  0.58517593068E+03  0.11275432381E+04  0.00000000000E+00 0.  1.
<mgrwt>
<rscale>  0 0.23957099E+04</rscale>
<asrwt>0</asrwt>
<pdfrwt beam="1">  1        2 0.20490241E+00 0.23957099E+04</pdfrwt>
<pdfrwt beam="2">  1       -2 0.16574281E+00 0.23957099E+04</pdfrwt>
<totfact> 0.32586654E+00</totfact>
</mgrwt>
</event>
<event>
 6    1  0.1028026E-006  0.2841268E+04  0.7818608E-02  0.8290570E-01
          2   -1    0    0  501    0  0.00000000000E+00  0.00000000000E+00  0.15324339507E+04  0.15324339507E+04  0.00000000000E+00 0. -1.
         -2   -1    0    0    0  501 -0.00000000000E+00 -0.00000000000E+00 -0.13169901778E+04  0.13169901778E+04  0.00000000000E+00 0.  1.
         23    2    1    2    0    0  0.56095205193E+03 -0.77380415991E+03 -0.94433475005E+03  0.13465847144E+04  0.89901003721E+02 0.  0.
         11    1    3    3    0    0  0.44971046019E+03 -0.66560063098E+03 -0.81811347640E+03  0.11465484544E+04  0.00000000000E+00 0. -1.
        -11    1    3    3    0    0  0.11124159174E+03 -0.10820352892E+03 -0.12622127365E+03  0.20003626003E+03  0.00000000000E+00 0.  1.
         22    1    1    2    0    0 -0.56095205193E+03  0.77380415991E+03  0.11597785229E+04  0.15028394141E+04  0.00000000000E+00 0. -1.
<mgrwt>
<rscale>  0 0.28412676E+04</rscale>
<asrwt>0</asrwt>
<pdfrwt beam="1">  1        2 0.23575907E+00 0.28412676E+04</pdfrwt>
<pdfrwt beam="2">  1       -2 0.20261387E+00 0.28412676E+04</pdfrwt>
<totfact> 0.13495565E+00</totfact>
</mgrwt>
</event>
<event>
 6    1  0.1028026E-006  0.4586893E+04  0.7818608E-02  0.7895599E-01
          2   -1    0    0  501    0  0.00000000000E+00  0.00000000000E+00  0.16203588458E+04  0.16203588458E+04  0.00000000000E+00 0. -1.
         -2   -1    0    0    0  501 -0.00000000000E+00 -0.00000000000E+00 -0.32461308476E+04  0.32461308476E+04  0.00000000000E+00 0.  1.
         23    2    1    2    0    0  0.13984797292E+04 -0.77526110567E+03 -0.25561640380E+04  0.30165154568E+04  0.92820132941E+02 0.  0.
         13    1    3    3    0    0  0.76925020133E+03 -0.37446905485E+03 -0.13820638942E+04  0.16254456475E+04  0.00000000000E+00 0.  1.
        -13    1    3    3    0    0  0.62922952784E+03 -0.40079205082E+03 -0.11741001438E+04  0.13910698093E+04  0.00000000000E+00 0. -1.
         22    1    1    2    0    0 -0.13984797292E+04  0.77526110567E+03  0.93039203630E+03  0.18499742366E+04  0.00000000000E+00 0. -1.
<mgrwt>
<rscale>  0 0.45868930E+04</rscale>
<asrwt>0</asrwt>
<pdfrwt beam="1">  1        2 0.24928598E+00 0.45868930E+04</pdfrwt>
<pdfrwt beam="2">  1       -2 0.49940474E+00 0.45868930E+04</pdfrwt>
<totfact> 0.13657977E-02</totfact>
</mgrwt>
</event>
<event>
 6    1  0.1028026E-006  0.1505265E+04  0.7818608E-02  0.8880959E-01
          2   -1    0    0  501    0  0.00000000000E+00  0.00000000000E+00  0.13321197031E+04  0.13321197031E+04  0.00000000000E+00 0. -1.
         -2   -1    0    0    0  501 -0.00000000000E+00 -0.00000000000E+00 -0.42522906425E+03  0.42522906425E+03  0.00000000000E+00 0.  1.
         23    2    1    2    0    0 -0.55554059548E+03 -0.82437205180E+02 -0.12495348476E+03  0.58256217333E+03  0.91345861492E+02 0.  0.
         11    1    3    3    0    0 -0.27123228819E+03 -0.75915441001E+02 -0.32483604680E+02  0.28352300244E+03  0.00000000000E+00 0.  1.
        -11    1    3    3    0    0 -0.28430830730E+03 -0.65217641797E+01 -0.92469880083E+02  0.29903917089E+03  0.00000000000E+00 0. -1.
         22    1    1    2    0    0  0.55554059548E+03  0.82437205180E+02  0.10318441236E+04  0.11747865940E+04  0.00000000000E+00 0. -1.
<mgrwt>
<rscale>  0 0.15052654E+04</rscale>
<asrwt>0</asrwt>
<pdfrwt beam="1">  1        2 0.20494149E+00 0.15052654E+04</pdfrwt>
<pdfrwt beam="2">  1       -2 0.65419857E-01 0.15052654E+04</pdfrwt>
<totfact> 0.32927459E+01</totfact>
</mgrwt>
</event>
<event>
 6    1  0.1028026E-006  0.1888050E+04  0.7818608E-02  0.8660828E-01
         -2   -1    0    0    0  501 -0.00000000000E+00  0.00000000000E+00  0.48632485512E+03  0.48632485512E+03  0.00000000000E+00 0.  1.
          2   -1    0    0  501    0  0.00000000000E+00 -0.00000000000E+00 -0.18324855993E+04  0.18324855993E+04  0.00000000000E+00 0. -1.
         23    2    1    2    0    0 -0.71739069122E+03 -0.22400421354E+03 -0.13716994999E+04  0.15668267314E+04  0.92515926779E+02 0.  0.
         13    1    3    3    0    0 -0.56477629829E+03 -0.20862116939E+03 -0.11342975116E+04  0.12841829715E+04  0.00000000000E+00 0.  1.
        -13    1    3    3    0    0 -0.15261439292E+03 -0.15383044145E+02 -0.23740198828E+03  0.28264375991E+03  0.00000000000E+00 0. -1.
         22    1    1    2    0    0  0.71739069122E+03  0.22400421354E+03  0.25538755790E+02  0.75198372295E+03  0.00000000000E+00 0.  1.
<mgrwt>
<rscale>  0 0.18880501E+04</rscale>
<asrwt>0</asrwt>
<pdfrwt beam="1">  1        2 0.28192086E+00 0.18880501E+04</pdfrwt>
<pdfrwt beam="2">  1       -2 0.74819208E-01 0.18880501E+04</pdfrwt>
<totfact> 0.12456734E+01</totfact>
</mgrwt>
</event>
<event>
 6    1  0.1028026E-006  0.1009136E+04  0.7818608E-02  0.9298581E-01
          4   -1    0    0  501    0  0.00000000000E+00  0.00000000000E+00  0.18991945768E+04  0.18991945768E+04  0.00000000000E+00 0. -1.
         -4   -1    0    0    0  501 -0.00000000000E+00 -0.00000000000E+00 -0.13405092564E+03  0.13405092564E+03  0.00000000000E+00 0.  1.
         23    2    1    2    0    0  0.15910135775E+03  0.45378706777E+03  0.60973737974E+03  0.78176653860E+03  0.90240255493E+02 0.  0.
         13    1    3    3    0    0  0.15321911796E+02  0.91717791490E+02  0.71311660798E+02  0.11718475678E+03  0.00000000000E+00 0. -1.
        -13    1    3    3    0    0  0.14377944596E+03  0.36206927628E+03  0.53842571894E+03  0.66458178181E+03  0.00000000000E+00 0.  1.
         22    1    1    2    0    0 -0.15910135775E+03 -0.45378706777E+03  0.11554062714E+04  0.12514789639E+04  0.00000000000E+00 0. -1.
<mgrwt>
<rscale>  0 0.10091359E+04</rscale>
<asrwt>0</asrwt>
<pdfrwt beam="1">  1        4 0.29218376E+00 0.10091359E+04</pdfrwt>
<pdfrwt beam="2">  1       -4 0.20623221E-01 0.10091359E+04</pdfrwt>
<totfact> 0.15266119E+00</totfact>
</mgrwt>
</event>
<event>
 6    1  0.1028026E-006  0.2934884E+04  0.7818608E-02  0.8262574E-01
         -1   -1    0    0    0  501 -0.00000000000E+00  0.00000000000E+00  0.24313474236E+04  0.24313474236E+04  0.00000000000E+00 0.  1.
          1   -1    0    0  501    0  0.00000000000E+00 -0.00000000000E+00 -0.88567590129E+03  0.88567590129E+03  0.00000000000E+00 0. -1.
         23    2    1    2    0    0  0.23497694456E+03 -0.41215260419E+03  0.23412849154E+04  0.23906947629E+04  0.93394115380E+02 0.  0.
         11    1    3    3    0    0  0.25212480123E+02 -0.87078888076E+02  0.61079486390E+03  0.61748584410E+03  0.00000000000E+00 0. -1.
        -11    1    3    3    0    0  0.20976446444E+03 -0.32507371611E+03  0.17304900515E+04  0.17732089188E+04  0.00000000000E+00 0.  1.
         22    1    1    2    0    0 -0.23497694456E+03  0.41215260419E+03 -0.79561339304E+03  0.92632856201E+03  0.00000000000E+00 0. -1.
<mgrwt>
<rscale>  0 0.29348839E+04</rscale>
<asrwt>0</asrwt>
<pdfrwt beam="1">  1        1 0.13625783E+00 0.29348839E+04</pdfrwt>
<pdfrwt beam="2">  1       -1 0.37405345E+00 0.29348839E+04</pdfrwt>
<totfact> 0.17165396E-01</totfact>
</mgrwt>
</event>
<event>
 6    1  0.1028026E-006  0.4866130E+04  0.7818608E-02  0.7849496E-01
          2   -1    0    0  501    0  0.00000000000E+00  0.00000000000E+00  0.25631696774E+04  0.25631696774E+04  0.00000000000E+00 0. -1.
         -2   -1    0    0    0  501 -0.00000000000E+00 -0.00000000000E+00 -0.23095648132E+04  0.23095648132E+04  0.00000000000E+00 0.  1.
         23    2    1    2    0    0 -0.24126331813E+04 -0.61259056515E+02 -0.17530381056E+03  0.24215074119E+04  0.91734292185E+02 0.  0.
         13    1    3    3    0    0 -0.13369262252E+04 -0.76228804990E+02 -0.80071409587E+02  0.13414894681E+04  0.00000000000E+00 0.  1.
        -13    1    3    3    0    0 -0.10757069561E+04  0.14969748476E+02 -0.95232400975E+02  0.10800179438E+04  0.00000000000E+00 0. -1.
         22    1    1    2    0    0  0.24126331813E+04  0.61259056515E+02  0.42890867471E+03  0.24512270786E+04  0.00000000000E+00 0.  1.
<mgrwt>
<rscale>  0 0.48661305E+04</rscale>
<asrwt>0</asrwt>
<pdfrwt beam="1">  1        2 0.39433380E+00 0.48661305E+04</pdfrwt>
<pdfrwt beam="2">  1       -2 0.35531766E+00 0.48661305E+04</pdfrwt>
<totfact> 0.33889736E-02</totfact>
</mgrwt>
</event>
<event>
 6    1  0.1028026E-006  0.3175637E+04  0.7818608E-02  0.8195281E-01
         -2   -1    0    0    0  501 -0.00000000000E+00  0.00000000000E+00  0.11502698600E+04  0.11502698600E+04  0.00000000000E+00 0.  1.
          2   -1    0    0  501    0  0.00000000000E+00 -0.00000000000E+00 -0.21918056519E+04  0.21918056519E+04  0.00000000000E+00 0. -1.
         23    2    1    2    0    0  0.74447483939E+03 -0.76720369876E+03  0.71243560438E+03  0.12879917841E+04  0.92271575025E+02 0.  0.
         13    1    3    3    0    0  0.62329559867E+03 -0.61649386795E+03  0.54562740369E+03  0.10326041624E+04  0.00000000000E+00 0. -1.
        -13    1    3    3    0    0  0.12117924072E+03 -0.15070983081E+03  0.16680820069E+03  0.25538762166E+03  0.00000000000E+00 0.  1.
         22    1    1    2    0    0 -0.74447483939E+03  0.76720369876E+03 -0.17539713963E+04  0.20540837278E+04  0.00000000000E+00 0. -1.
<mgrwt>
<rscale>  0 0.31756372E+04</rscale>
<asrwt>0</asrwt>
<pdfrwt beam="1">  1        2 0.33720086E+00 0.31756372E+04</pdfrwt>
<pdfrwt beam="2">  1       -2 0.17696460E+00 0.31756372E+04</pdfrwt>
<totfact> 0.83821438E-01</totfact>
</mgrwt>
</event>
<event>
 6    1  0.1028026E-006  0.4125788E+04  0.7818608E-02  0.7979641E-01
         -1   -1    0    0    0  501 -0.00000000000E+00  0.00000000000E+00  0.17208186789E+04  0.17208186789E+04  0.00000000000E+00 0.  1.
          1   -1    0    0  501    0  0.00000000000E+00 -0.00000000000E+00 -0.24729687745E+04  0.24729687745E+04  0.00000000000E+00 0. -1.
         23    2    1    2    0    0  0.16820530618E+03 -0.13306351430E+04 -0.19680666063E+04  0.23834460851E+04  0.92984756094E+02 0.  0.
         13    1    3    3    0    0  0.62631580357E+02 -0.48076739457E+03 -0.79186602802E+03  0.92849976245E+03  0.00000000000E+00 0. -1.
        -13    1    3    3    0    0  0.10557372582E+03 -0.84986774842E+03 -0.11762005783E+04  0.14549463227E+04  0.00000000000E+00 0.  1.
         22    1    1    2    0    0 -0.16820530618E+03  0.13306351430E+04  0.12159165107E+04  0.18103413683E+04  0.00000000000E+00 0.  1.
<mgrwt>
<rscale>  0 0.41257876E+04</rscale>
<asrwt>0</asrwt>
<pdfrwt beam="1">  1        1 0.38045673E+00 0.41257876E+04</pdfrwt>
<pdfrwt beam="2">  1       -1 0.26474134E+00 0.41257876E+04</pdfrwt>
<totfact> 0.61248958E-02</totfact>
</mgrwt>
</event>
<event>
 6    1  0.1028026E-006  0.4426650E+04  0.7818608E-02  0.7923605E-01
         -2   -1    0    0    0  501 -0.00000000000E+00  0.00000000000E+00  0.10272934187E+04  0.10272934187E+04  0.00000000000E+00 0.  1.
          2   -1    0    0  501    0  0.00000000000E+00 -0.00000000000E+00 -0.47686548369E+04  0.47686548369E+04  0.00000000000E+00 0. -1.
         23    2    1    2    0    0 -0.17215751795E+04 -0.54477010003E+03 -0.35450661975E+04  0.39795982413E+04  0.95458143473E+02 0.  0.
         13    1    3    3    0    0 -0.84591903196E+03 -0.29831171429E+03 -0.16770127529E+04  0.19018256126E+04  0.00000000000E+00 0. -1.
        -13    1    3    3    0    0 -0.87565614758E+03 -0.24645838574E+03 -0.18680534446E+04  0.20777726287E+04  0.00000000000E+00 0.  1.
         22    1    1    2    0    0  0.17215751795E+04  0.54477010003E+03 -0.19629522071E+03  0.18163500143E+04  0.00000000000E+00 0.  1.
<mgrwt>
<rscale>  0 0.44266501E+04</rscale>
<asrwt>0</asrwt>
<pdfrwt beam="1">  1        2 0.73363921E+00 0.44266501E+04</pdfrwt>
<pdfrwt beam="2">  1       -2 0.15804514E+00 0.44266501E+04</pdfrwt>
<totfact> 0.12668227E-02</totfact>
</mgrwt>
</event>
<event>
 6    1  0.1028026E-006  0.2450688E+04  0.7818608E-02  0.8420767E-01
          2   -1    0    0  501    0  0.00000000000E+00  0.00000000000E+00  0.19328890717E+04  0.19328890717E+04  0.00000000000E+00 0. -1.
         -2   -1    0    0    0  501 -0.00000000000E+00 -0.00000000000E+00 -0.77679955170E+03  0.77679955170E+03  0.00000000000E+00 0.  1.
         23    2    1    2    0    0 -0.41924176033E+03 -0.45426481159E+03  0.17464720009E+04  0.18548952878E+04  0.91388762815E+02 0.  0.
         13    1    3    3    0    0 -0.39355357495E+03 -0.43293900706E+03  0.15740777664E+04  0.16792978934E+04  0.00000000000E+00 0.  1.
        -13    1    3    3    0    0 -0.25688185379E+02 -0.21325804534E+02  0.17239423456E+03  0.17559739439E+03  0.00000000000E+00 0. -1.
         22    1    1    2    0    0  0.41924176033E+03  0.45426481159E+03 -0.59038248098E+03  0.85479333556E+03  0.00000000000E+00 0.  1.
<mgrwt>
<rscale>  0 0.24506875E+04</rscale>
<asrwt>0</asrwt>
<pdfrwt beam="1">  1        2 0.29736755E+00 0.24506875E+04</pdfrwt>
<pdfrwt beam="2">  1       -2 0.11950762E+00 0.24506875E+04</pdfrwt>
<totfact> 0.34977436E+00</totfact>
</mgrwt>
</event>
<event>
 6    1  0.1028026E-006  0.4432348E+04  0.7818608E-02  0.7922589E-01
         -2   -1    0    0    0  501 -0.00000000000E+00  0.00000000000E+00  0.13487543028E+04  0.13487543028E+04  0.00000000000E+00 0.  1.
          2   -1    0    0  501    0  0.00000000000E+00 -0.00000000000E+00 -0.36414539611E+04  0.36414539611E+04  0.00000000000E+00 0. -1.
         23    2    1    2    0    0  0.54754144423E+03  0.18323926759E+04 -0.24051120756E+04  0.30744574702E+04  0.10129209347E+03 0.  0.
         13    1    3    3    0    0  0.31573695239E+03  0.88064676244E+03 -0.11828971975E+04  0.15081360427E+04  0.00000000000E+00 0. -1.
        -13    1    3    3    0    0  0.23180449184E+03  0.95174591346E+03 -0.12222148781E+04  0.15663214276E+04  0.00000000000E+00 0.  1.
         22    1    1    2    0    0 -0.54754144423E+03 -0.18323926759E+04  0.11241241730E+03  0.19157507937E+04  0.00000000000E+00 0.  1.
<mgrwt>
<rscale>  0 0.44323478E+04</rscale>
<asrwt>0</asrwt>
<pdfrwt beam="1">  1        2 0.56022367E+00 0.44323478E+04</pdfrwt>
<pdfrwt beam="2">  1       -2 0.20750067E+00 0.44323478E+04</pdfrwt>
<totfact> 0.58196668E-02</totfact>
</mgrwt>
</event>
<event>
 6    1  0.1028026E-006  0.1384856E+04  0.7818608E-02  0.8964854E-01
         -1   -1    0    0    0  501 -0.00000000000E+00  0.00000000000E+00  0.15643806732E+03  0.15643806732E+03  0.00000000000E+00 0.  1.
          1   -1    0    0  501    0  0.00000000000E+00 -0.00000000000E+00 -0.30648316821E+04  0.30648316821E+04  0.00000000000E+00 0. -1.
         23    2    1    2    0    0 -0.39764372843E+03 -0.53935714553E+03 -0.18380009056E+04  0.19584288184E+04  0.90384968725E+02 0.  0.
         11    1    3    3    0    0 -0.31662886820E+03 -0.48169344321E+03 -0.15469825383E+04  0.16508898773E+04  0.00000000000E+00 0. -1.
        -11    1    3    3    0    0 -0.81014860228E+02 -0.57663702320E+02 -0.29101836737E+03  0.30753894109E+03  0.00000000000E+00 0.  1.
         22    1    1    2    0    0  0.39764372843E+03  0.53935714553E+03 -0.10703927092E+04  0.12628409310E+04  0.00000000000E+00 0.  1.
<mgrwt>
<rscale>  0 0.13848557E+04</rscale>
<asrwt>0</asrwt>
<pdfrwt beam="1">  1        1 0.47151258E+00 0.13848557E+04</pdfrwt>
<pdfrwt beam="2">  1       -1 0.24067394E-01 0.13848557E+04</pdfrwt>
<totfact> 0.78896380E+00</totfact>
</mgrwt>
</event>
<event>
 6    1  0.1028026E-006  0.1620663E+04  0.7818608E-02  0.8807953E-01
          2   -1    0    0  501    0  0.00000000000E+00  0.00000000000E+00  0.13723327147E+04  0.13723327147E+04  0.00000000000E+00 0. -1.
         -2   -1    0    0    0  501 -0.00000000000E+00 -0.00000000000E+00 -0.47848259744E+03  0.47848259744E+03  0.00000000000E+00 0.  1.
         23    2    1    2    0    0 -0.28448336753E+03 -0.69912386495E+03  0.77677608632E+03  0.10870016610E+04  0.92122514874E+02 0.  0.
         13    1    3    3    0    0 -0.63385814425E+02 -0.25240510094E+03  0.23242724693E+03  0.34892480790E+03  0.00000000000E+00 0.  1.
        -13    1    3    3    0    0 -0.22109755310E+03 -0.44671876401E+03  0.54434883940E+03  0.73807685309E+03  0.00000000000E+00 0. -1.
         22    1    1    2    0    0  0.28448336753E+03  0.69912386495E+03  0.11707403092E+03  0.76381365114E+03  0.00000000000E+00 0.  1.
<mgrwt>
<rscale>  0 0.16206632E+04</rscale>
<asrwt>0</asrwt>
<pdfrwt beam="1">  1        2 0.21112811E+00 0.16206632E+04</pdfrwt>
<pdfrwt beam="2">  1       -2 0.73612708E-01 0.16206632E+04</pdfrwt>
<totfact> 0.23916412E+01</totfact>
</mgrwt>
</event>
<event>
 6    1  0.1028026E-006  0.2324651E+04  0.7818608E-02  0.8468265E-01
          1   -1    0    0  501    0  0.00000000000E+00  0.00000000000E+00  0.10675899435E+04  0.10675899435E+04  0.00000000000E+00 0. -1.
         -1   -1    0    0    0  501 -0.00000000000E+00 -0.00000000000E+00 -0.12654672494E+04  0.12654672494E+04  0.00000000000E+00 0.  1.
         23    2    1    2    0    0 -0.45335498645E+03  0.34999153542E+03 -0.11118591160E+04  0.12544527392E+04  0.96933804225E+02 0.  0.
         11    1    3    3    0    0 -0.29752379683E+03  0.28000164944E+03 -0.82386091096E+03  0.91960216071E+03  0.00000000000E+00 0. -1.
        -11    1    3    3    0    0 -0.15583118962E+03  0.69989885979E+02 -0.28799820502E+03  0.33485057845E+03  0.00000000000E+00 0.  1.
         22    1    1    2    0    0  0.45335498645E+03 -0.34999153542E+03  0.91398181000E+03  0.10786044537E+04  0.00000000000E+00 0. -1.
<mgrwt>
<rscale>  0 0.23246506E+04</rscale>
<asrwt>0</asrwt>
<pdfrwt beam="1">  1        1 0.16424461E+00 0.23246506E+04</pdfrwt>
<pdfrwt beam="2">  1       -1 0.19468727E+00 0.23246506E+04</pdfrwt>
<totfact> 0.19827193E+00</totfact>
</mgrwt>
</event>
<event>
 6    1  0.1028026E-006  0.1374193E+04  0.7818608E-02  0.8972714E-01
         -2   -1    0    0    0  501 -0.00000000000E+00  0.00000000000E+00  0.35589848316E+03  0.35589848316E+03  0.00000000000E+00 0.  1.
          2   -1    0    0  501    0  0.00000000000E+00 -0.00000000000E+00 -0.13265061183E+04  0.13265061183E+04  0.00000000000E+00 0. -1.
         23    2    1    2    0    0  0.58469347454E+03  0.30244023737E+03 -0.71547664919E+03  0.97641000069E+03  0.90183687860E+02 0.  0.
         11    1    3    3    0    0  0.32071609538E+03  0.11928417363E+03 -0.34279093575E+03  0.48434817388E+03  0.00000000000E+00 0.  1.
        -11    1    3    3    0    0  0.26397737917E+03  0.18315606374E+03 -0.37268571345E+03  0.49206182681E+03  0.00000000000E+00 0. -1.
         22    1    1    2    0    0 -0.58469347454E+03 -0.30244023737E+03 -0.25513098597E+03  0.70599460080E+03  0.00000000000E+00 0.  1.
<mgrwt>
<rscale>  0 0.13741929E+04</rscale>
<asrwt>0</asrwt>
<pdfrwt beam="1">  1        2 0.20407787E+00 0.13741929E+04</pdfrwt>
<pdfrwt beam="2">  1       -2 0.54753612E-01 0.13741929E+04</pdfrwt>
<totfact> 0.48812843E+01</totfact>
</mgrwt>
</event>
<event>
 6    1  0.1028026E-006  0.1325148E+04  0.7818608E-02  0.9009857E-01
          2   -1    0    0  501    0  0.00000000000E+00  0.00000000000E+00  0.12391925122E+04  0.12391925122E+04  0.00000000000E+00 0. -1.
         -2   -1    0    0    0  501 -0.00000000000E+00 -0.00000000000E+00 -0.35426651496E+03  0.35426651496E+03  0.00000000000E+00 0.  1.
         23    2    1    2    0    0 -0.27188877225E+03 -0.24708063613E+03  0.11030176252E+04  0.11662163521E+04  0.91871394802E+02 0.  0.
         11    1    3    3    0    0 -0.20845398914E+03 -0.18128939144E+03  0.69085244728E+03  0.74404033019E+03  0.00000000000E+00 0.  1.
        -11    1    3    3    0    0 -0.63434783107E+02 -0.65791244687E+02  0.41216517795E+03  0.42217602194E+03  0.00000000000E+00 0. -1.
         22    1    1    2    0    0  0.27188877225E+03  0.24708063613E+03 -0.21809162794E+03  0.42724267507E+03  0.00000000000E+00 0.  1.
<mgrwt>
<rscale>  0 0.13251482E+04</rscale>
<asrwt>0</asrwt>
<pdfrwt beam="1">  1        2 0.19064500E+00 0.13251482E+04</pdfrwt>
<pdfrwt beam="2">  1       -2 0.54502541E-01 0.13251482E+04</pdfrwt>
<totfact> 0.55638813E+01</totfact>
</mgrwt>
</event>
<event>
 6    1  0.1028026E-006  0.2451471E+04  0.7818608E-02  0.8420481E-01
         -1   -1    0    0    0  501 -0.00000000000E+00  0.00000000000E+00  0.63946999392E+03  0.63946999392E+03  0.00000000000E+00 0.  1.
          1   -1    0    0  501    0  0.00000000000E+00 -0.00000000000E+00 -0.23494884808E+04  0.23494884808E+04  0.00000000000E+00 0. -1.
         23    2    1    2    0    0  0.23342259022E+03 -0.55603827056E+03 -0.21549826163E+04  0.22395201914E+04  0.88520885394E+02 0.  0.
         13    1    3    3    0    0  0.15758642245E+03 -0.38741774757E+03 -0.13364411910E+04  0.14003574718E+04  0.00000000000E+00 0.  1.
        -13    1    3    3    0    0  0.75836167767E+02 -0.16862052299E+03 -0.81854142527E+03  0.83916271962E+03  0.00000000000E+00 0. -1.
         22    1    1    2    0    0 -0.23342259022E+03  0.55603827056E+03  0.44496412947E+03  0.74943828329E+03  0.00000000000E+00 0.  1.
<mgrwt>
<rscale>  0 0.24514709E+04</rscale>
<asrwt>0</asrwt>
<pdfrwt beam="1">  1        1 0.36145978E+00 0.24514709E+04</pdfrwt>
<pdfrwt beam="2">  1       -1 0.98379997E-01 0.24514709E+04</pdfrwt>
<totfact> 0.15186769E+00</totfact>
</mgrwt>
</event>
<event>
 6    1  0.1028026E-006  0.1088326E+04  0.7818608E-02  0.9216645E-01
         -1   -1    0    0    0  501 -0.00000000000E+00  0.00000000000E+00  0.50715304140E+03  0.50715304140E+03  0.00000000000E+00 0.  1.
          1   -1    0    0  501    0  0.00000000000E+00 -0.00000000000E+00 -0.58387376774E+03  0.58387376774E+03  0.00000000000E+00 0. -1.
         23    2    1    2    0    0 -0.32845787529E+02 -0.16595534813E+03 -0.55327713284E+03  0.58533319448E+03  0.88765643782E+02 0.  0.
         13    1    3    3    0    0 -0.60002240626E+02 -0.12213399373E+03 -0.44625985144E+03  0.46654564226E+03  0.00000000000E+00 0. -1.
        -13    1    3    3    0    0  0.27156453097E+02 -0.43821354400E+02 -0.10701728139E+03  0.11878755222E+03  0.00000000000E+00 0.  1.
         22    1    1    2    0    0  0.32845787529E+02  0.16595534813E+03  0.47655640650E+03  0.50569361466E+03  0.00000000000E+00 0.  1.
<mgrwt>
<rscale>  0 0.10883260E+04</rscale>
<asrwt>0</asrwt>
<pdfrwt beam="1">  1        1 0.89826733E-01 0.10883260E+04</pdfrwt>
<pdfrwt beam="2">  1       -1 0.78023545E-01 0.10883260E+04</pdfrwt>
<totfact> 0.58469884E+01</totfact>
</mgrwt>
</event>
<event>
 6    1  0.1028026E-006  0.3230347E+03  0.7818608E-02  0.1074261E+00
          2   -1    0    0  501    0  0.00000000000E+00  0.00000000000E+00  0.29028282051E+03  0.29028282051E+03  0.00000000000E+00 0. -1.
         -2   -1    0    0    0  501 -0.00000000000E+00 -0.00000000000E+00 -0.89870485531E+02  0.89870485531E+02  0.00000000000E+00 0.  1.
         23    2    1    2    0    0  0.12933241582E+03  0.55873003863E+02  0.16351232684E+03  0.23451582136E+03  0.91720897834E+02 0.  0.
         13    1    3    3    0    0  0.98191420725E+02  0.58016531704E+02  0.16792240173E+03  0.20299114773E+03  0.00000000000E+00 0. -1.
        -13    1    3    3    0    0  0.31140995092E+02 -0.21435278406E+01 -0.44100748915E+01  0.31524673630E+02  0.00000000000E+00 0.  1.
         22    1    1    2    0    0 -0.12933241582E+03 -0.55873003863E+02  0.36900008135E+02  0.14563748467E+03  0.00000000000E+00 0.  1.
<mgrwt>
<rscale>  0 0.32303472E+03</rscale>
<asrwt>0</asrwt>
<pdfrwt beam="1">  1        2 0.44658895E-01 0.32303472E+03</pdfrwt>
<pdfrwt beam="2">  1       -2 0.13826229E-01 0.32303472E+03</pdfrwt>
<totfact> 0.44439921E+03</totfact>
</mgrwt>
</event>
<event>
 6    1  0.1028026E-006  0.1546834E+04  0.7818608E-02  0.8853892E-01
         -1   -1    0    0    0  501 -0.00000000000E+00  0.00000000000E+00  0.54993285087E+03  0.54993285087E+03  0.00000000000E+00 0.  1.
          1   -1    0    0  501    0  0.00000000000E+00 -0.00000000000E+00 -0.10877221312E+04  0.10877221312E+04  0.00000000000E+00 0. -1.
         23    2    1    2    0    0 -0.20040828284E+02  0.26563705097E+03  0.49589882641E+03  0.57019267375E+03  0.90770928824E+02 0.  0.
         11    1    3    3    0    0  0.21377179721E+02  0.14779418824E+03  0.20512523125E+03  0.25372517885E+03  0.00000000000E+00 0.  1.
        -11    1    3    3    0    0 -0.41418008005E+02  0.11784286273E+03  0.29077359517E+03  0.31646749490E+03  0.00000000000E+00 0. -1.
         22    1    1    2    0    0  0.20040828284E+02 -0.26563705097E+03 -0.10336881068E+04  0.10674623083E+04  0.00000000000E+00 0. -1.
<mgrwt>
<rscale>  0 0.15468344E+04</rscale>
<asrwt>0</asrwt>
<pdfrwt beam="1">  1        1 0.16734186E+00 0.15468344E+04</pdfrwt>
<pdfrwt beam="2">  1       -1 0.84605055E-01 0.15468344E+04</pdfrwt>
<totfact> 0.17265971E+01</totfact>
</mgrwt>
</event>
<event>
 6    1  0.1028026E-006  0.2865999E+04  0.7818608E-02  0.8283066E-01
         -1   -1    0    0    0  501 -0.00000000000E+00  0.00000000000E+00  0.78239076541E+03  0.78239076541E+03  0.00000000000E+00 0.  1.
          1   -1    0    0  501    0  0.00000000000E+00 -0.00000000000E+00 -0.26246310555E+04  0.26246310555E+04  0.00000000000E+00 0. -1.
         23    2    1    2    0    0 -0.13546943384E+03  0.46438946761E+03  0.67978057523E+03  0.83902672936E+03  0.88626615553E+02 0.  0.
         13    1    3    3    0    0 -0.56563396955E+02  0.27374280166E+03  0.32558062117E+03  0.42911220003E+03  0.00000000000E+00 0. -1.
        -13    1    3    3    0    0 -0.78906036882E+02  0.19064666595E+03  0.35419995406E+03  0.40991452933E+03  0.00000000000E+00 0.  1.
         22    1    1    2    0    0  0.13546943384E+03 -0.46438946761E+03 -0.25220208653E+04  0.25679950915E+04  0.00000000000E+00 0. -1.
<mgrwt>
<rscale>  0 0.28659987E+04</rscale>
<asrwt>0</asrwt>
<pdfrwt beam="1">  1        1 0.40378940E+00 0.28659987E+04</pdfrwt>
<pdfrwt beam="2">  1       -1 0.12036781E+00 0.28659987E+04</pdfrwt>
<totfact> 0.58625402E-01</totfact>
</mgrwt>
</event>
<event>
 6    1  0.1028026E-006  0.1403289E+04  0.7818608E-02  0.8951442E-01
         -1   -1    0    0    0  501 -0.00000000000E+00  0.00000000000E+00  0.25645054509E+03  0.25645054509E+03  0.00000000000E+00 0.  1.
          1   -1    0    0  501    0  0.00000000000E+00 -0.00000000000E+00 -0.19196866859E+04  0.19196866859E+04  0.00000000000E+00 0. -1.
         23    2    1    2    0    0 -0.73091136587E+02 -0.53233193563E+03 -0.14270377960E+03  0.56345677119E+03  0.91649115419E+02 0.  0.
         13    1    3    3    0    0 -0.36198762160E+02 -0.42987404213E+03 -0.14325093952E+03  0.45455788867E+03  0.00000000000E+00 0. -1.
        -13    1    3    3    0    0 -0.36892374427E+02 -0.10245789350E+03  0.54715992554E+00  0.10889888252E+03  0.00000000000E+00 0.  1.
         22    1    1    2    0    0  0.73091136587E+02  0.53233193563E+03 -0.15205323612E+04  0.16126804598E+04  0.00000000000E+00 0.  1.
<mgrwt>
<rscale>  0 0.14032886E+04</rscale>
<asrwt>0</asrwt>
<pdfrwt beam="1">  1        1 0.29533642E+00 0.14032886E+04</pdfrwt>
<pdfrwt beam="2">  1       -1 0.39453930E-01 0.14032886E+04</pdfrwt>
<totfact> 0.20584785E+01</totfact>
</mgrwt>
</event>
<event>
 6    1  0.1028026E-006  0.2467354E+04  0.7818608E-02  0.8414709E-01
          1   -1    0    0  501    0  0.00000000000E+00  0.00000000000E+00  0.19577754194E+04  0.19577754194E+04  0.00000000000E+00 0. -1.
         -1   -1    0    0    0  501 -0.00000000000E+00 -0.00000000000E+00 -0.77739199881E+03  0.77739199881E+03  0.00000000000E+00 0.  1.
         23    2    1    2    0    0  0.61110274589E+03  0.10435614172E+04  0.33026596262E+03  0.12569364857E+04  0.91360414502E+02 0.  0.
         13    1    3    3    0    0  0.12827638802E+03  0.27664547576E+03  0.55455417251E+02  0.30994008176E+03  0.00000000000E+00 0. -1.
        -13    1    3    3    0    0  0.48282635787E+03  0.76691594148E+03  0.27481054537E+03  0.94699640390E+03  0.00000000000E+00 0.  1.
         22    1    1    2    0    0 -0.61110274589E+03 -0.10435614172E+04  0.85011745796E+03  0.14782309325E+04  0.00000000000E+00 0.  1.
<mgrwt>
<rscale>  0 0.24673540E+04</rscale>
<asrwt>0</asrwt>
<pdfrwt beam="1">  1        1 0.30119622E+00 0.24673540E+04</pdfrwt>
<pdfrwt beam="2">  1       -1 0.11959877E+00 0.24673540E+04</pdfrwt>
<totfact> 0.17699553E+00</totfact>
</mgrwt>
</event>
<event>
 6    1  0.1028026E-006  0.3573287E+04  0.7818608E-02  0.8096638E-01
         -1   -1    0    0    0  501 -0.00000000000E+00  0.00000000000E+00  0.12176066534E+04  0.12176066534E+04  0.00000000000E+00 0.  1.
          1   -1    0    0  501    0  0.00000000000E+00 -0.00000000000E+00 -0.26216140926E+04  0.26216140926E+04  0.00000000000E+00 0. -1.
         23    2    1    2    0    0  0.64753587963E+03 -0.99664075677E+03 -0.21340302027E+04  0.24443986252E+04  0.91674529967E+02 0.  0.
         11    1    3    3    0    0  0.37729291620E+03 -0.60651479034E+03 -0.11935654688E+04  0.13909739982E+04  0.00000000000E+00 0.  1.
        -11    1    3    3    0    0  0.27024296343E+03 -0.39012596642E+03 -0.94046473389E+03  0.10534246269E+04  0.00000000000E+00 0. -1.
         22    1    1    2    0    0 -0.64753587963E+03  0.99664075677E+03  0.73002276355E+03  0.13948221208E+04  0.00000000000E+00 0. -1.
<mgrwt>
<rscale>  0 0.35732869E+04</rscale>
<asrwt>0</asrwt>
<pdfrwt beam="1">  1        1 0.40332524E+00 0.35732869E+04</pdfrwt>
<pdfrwt beam="2">  1       -1 0.18732410E+00 0.35732869E+04</pdfrwt>
<totfact> 0.16669915E-01</totfact>
</mgrwt>
</event>
<event>
 6    1  0.1028026E-006  0.1633265E+04  0.7818608E-02  0.8800369E-01
         -1   -1    0    0    0  501 -0.00000000000E+00  0.00000000000E+00  0.86660429708E+03  0.86660429708E+03  0.00000000000E+00 0.  1.
          1   -1    0    0  501    0  0.00000000000E+00 -0.00000000000E+00 -0.76954255062E+03  0.76954255062E+03  0.00000000000E+00 0. -1.
         23    2    1    2    0    0  0.51948314704E+03  0.55261173390E+03  0.34533085349E+03  0.83809921878E+03  0.88963102781E+02 0.  0.
         13    1    3    3    0    0  0.16294032748E+03  0.23603953004E+03  0.12629072755E+03  0.31339042411E+03  0.00000000000E+00 0. -1.
        -13    1    3    3    0    0  0.35654281955E+03  0.31657220386E+03  0.21904012594E+03  0.52470879467E+03  0.00000000000E+00 0.  1.
         22    1    1    2    0    0 -0.51948314704E+03 -0.55261173390E+03 -0.24826910703E+03  0.79804762891E+03  0.00000000000E+00 0. -1.
<mgrwt>
<rscale>  0 0.16332653E+04</rscale>
<asrwt>0</asrwt>
<pdfrwt beam="1">  1        1 0.11839116E+00 0.16332653E+04</pdfrwt>
<pdfrwt beam="2">  1       -1 0.13332374E+00 0.16332653E+04</pdfrwt>
<totfact> 0.10707446E+01</totfact>
</mgrwt>
</event>
<event>
 6    1  0.1028026E-006  0.1901994E+04  0.7818608E-02  0.8653865E-01
          2   -1    0    0  501    0  0.00000000000E+00  0.00000000000E+00  0.10297769910E+04  0.10297769910E+04  0.00000000000E+00 0. -1.
         -2   -1    0    0    0  501 -0.00000000000E+00 -0.00000000000E+00 -0.87824367956E+03  0.87824367956E+03  0.00000000000E+00 0.  1.
         23    2    1    2    0    0 -0.42422773198E+03 -0.62836568706E+03  0.64826644516E+03  0.10016231797E+04  0.90482069588E+02 0.  0.
         11    1    3    3    0    0 -0.20461756554E+03 -0.33264950627E+03  0.27829087110E+03  0.47955171889E+03  0.00000000000E+00 0.  1.
        -11    1    3    3    0    0 -0.21961016644E+03 -0.29571618079E+03  0.36997557406E+03  0.52207146080E+03  0.00000000000E+00 0. -1.
         22    1    1    2    0    0  0.42422773198E+03  0.62836568706E+03 -0.49673313374E+03  0.90639749085E+03  0.00000000000E+00 0.  1.
<mgrwt>
<rscale>  0 0.19019938E+04</rscale>
<asrwt>0</asrwt>
<pdfrwt beam="1">  1        2 0.15842723E+00 0.19019938E+04</pdfrwt>
<pdfrwt beam="2">  1       -2 0.13511441E+00 0.19019938E+04</pdfrwt>
<totfact> 0.88869611E+00</totfact>
</mgrwt>
</event>
<event>
 6    1  0.1028026E-006  0.2824299E+04  0.7818608E-02  0.8295764E-01
          2   -1    0    0  501    0  0.00000000000E+00  0.00000000000E+00  0.13573150526E+04  0.13573150526E+04  0.00000000000E+00 0. -1.
         -2   -1    0    0    0  501 -0.00000000000E+00 -0.00000000000E+00 -0.14691995356E+04  0.14691995356E+04  0.00000000000E+00 0.  1.
         23    2    1    2    0    0  0.11225252942E+04 -0.30320352090E+03  0.74341867799E+03  0.13830677037E+04  0.90606462732E+02 0.  0.
         11    1    3    3    0    0  0.52152169651E+03 -0.18768492761E+03  0.35079626126E+03  0.65594857184E+03  0.00000000000E+00 0.  1.
        -11    1    3    3    0    0  0.60100359769E+03 -0.11551859329E+03  0.39262241673E+03  0.72711913188E+03  0.00000000000E+00 0. -1.
         22    1    1    2    0    0 -0.11225252942E+04  0.30320352090E+03 -0.85530316091E+03  0.14434468845E+04  0.00000000000E+00 0.  1.
<mgrwt>
<rscale>  0 0.28242993E+04</rscale>
<asrwt>0</asrwt>
<pdfrwt beam="1">  1        2 0.20881770E+00 0.28242993E+04</pdfrwt>
<pdfrwt beam="2">  1       -2 0.22603070E+00 0.28242993E+04</pdfrwt>
<totfact> 0.12040369E+00</totfact>
</mgrwt>
</event>
<event>
 6    1  0.1028026E-006  0.1866637E+04  0.7818608E-02  0.8671644E-01
          1   -1    0    0  501    0  0.00000000000E+00  0.00000000000E+00  0.84093654559E+03  0.84093654559E+03  0.00000000000E+00 0. -1.
         -1   -1    0    0    0  501 -0.00000000000E+00 -0.00000000000E+00 -0.10358492368E+04  0.10358492368E+04  0.00000000000E+00 0.  1.
         23    2    1    2    0    0  0.27604664182E+03 -0.37452596988E+03 -0.90858530306E+03  0.10248467895E+04  0.91171478210E+02 0.  0.
         11    1    3    3    0    0  0.11912230902E+03 -0.90435943401E+02 -0.28520740574E+03  0.32204355086E+03  0.00000000000E+00 0. -1.
        -11    1    3    3    0    0  0.15692433280E+03 -0.28409002648E+03 -0.62337789732E+03  0.70280323864E+03  0.00000000000E+00 0.  1.
         22    1    1    2    0    0 -0.27604664182E+03  0.37452596988E+03  0.71367261190E+03  0.85193899285E+03  0.00000000000E+00 0. -1.
<mgrwt>
<rscale>  0 0.18666371E+04</rscale>
<asrwt>0</asrwt>
<pdfrwt beam="1">  1        1 0.12937485E+00 0.18666371E+04</pdfrwt>
<pdfrwt beam="2">  1       -1 0.15936142E+00 0.18666371E+04</pdfrwt>
<totfact> 0.56525821E+00</totfact>
</mgrwt>
</event>
<event>
 6    1  0.1028026E-006  0.3933581E+03  0.7818608E-02  0.1046104E+00
         -2   -1    0    0    0  501 -0.00000000000E+00  0.00000000000E+00  0.24320581982E+02  0.24320581982E+02  0.00000000000E+00 0.  1.
          2   -1    0    0  501    0  0.00000000000E+00 -0.00000000000E+00 -0.15905316592E+04  0.15905316592E+04  0.00000000000E+00 0. -1.
         23    2    1    2    0    0 -0.15736197191E+03  0.58683416437E+02 -0.11450691464E+04  0.11614572043E+04  0.97943625812E+02 0.  0.
         13    1    3    3    0    0 -0.20441824067E+02  0.48659946916E+02 -0.21917390031E+03  0.22543925386E+03  0.00000000000E+00 0.  1.
        -13    1    3    3    0    0 -0.13692014784E+03  0.10023469521E+02 -0.92589524610E+03  0.93601795046E+03  0.00000000000E+00 0. -1.
         22    1    1    2    0    0  0.15736197191E+03 -0.58683416437E+02 -0.42114193081E+03  0.45339503687E+03  0.00000000000E+00 0.  1.
<mgrwt>
<rscale>  0 0.39335814E+03</rscale>
<asrwt>0</asrwt>
<pdfrwt beam="1">  1        2 0.24469718E+00 0.39335814E+03</pdfrwt>
<pdfrwt beam="2">  1       -2 0.37416280E-02 0.39335814E+03</pdfrwt>
<totfact> 0.37125403E+03</totfact>
</mgrwt>
</event>
<event>
 6    1  0.1028026E-006  0.1422139E+04  0.7818608E-02  0.8937947E-01
          2   -1    0    0  501    0  0.00000000000E+00  0.00000000000E+00  0.20698970789E+04  0.20698970789E+04  0.00000000000E+00 0. -1.
         -2   -1    0    0    0  501 -0.00000000000E+00 -0.00000000000E+00 -0.24427284317E+03  0.24427284317E+03  0.00000000000E+00 0.  1.
         23    2    1    2    0    0  0.34853605603E+02  0.66114430429E+03  0.13266792902E+04  0.14851508489E+04  0.85255733689E+02 0.  0.
         11    1    3    3    0    0 -0.22884112847E+02  0.30937281074E+03  0.65441731191E+03  0.72422181462E+03  0.00000000000E+00 0. -1.
        -11    1    3    3    0    0  0.57737718450E+02  0.35177149355E+03  0.67226197829E+03  0.76092903431E+03  0.00000000000E+00 0.  1.
         22    1    1    2    0    0 -0.34853605603E+02 -0.66114430429E+03  0.49894494550E+03  0.82901907310E+03  0.00000000000E+00 0.  1.
<mgrwt>
<rscale>  0 0.14221387E+04</rscale>
<asrwt>0</asrwt>
<pdfrwt beam="1">  1        2 0.31844569E+00 0.14221387E+04</pdfrwt>
<pdfrwt beam="2">  1       -2 0.37580439E-01 0.14221387E+04</pdfrwt>
<totfact> 0.39676909E+01</totfact>
</mgrwt>
</event>
<event>
 6    1  0.1028026E-006  0.2617968E+04  0.7818608E-02  0.8362123E-01
          2   -1    0    0  501    0  0.00000000000E+00  0.00000000000E+00  0.55855106040E+03  0.55855106040E+03  0.00000000000E+00 0. -1.
         -2   -1    0    0    0  501 -0.00000000000E+00 -0.00000000000E+00 -0.30676507645E+04  0.30676507645E+04  0.00000000000E+00 0.  1.
         23    2    1    2    0    0  0.73857998087E+03 -0.10306813541E+04 -0.81571952938E+03  0.15107016812E+04  0.94956712466E+02 0.  0.
         11    1    3    3    0    0  0.29583419148E+03 -0.39999115083E+03 -0.26613590670E+03  0.56421548227E+03  0.00000000000E+00 0. -1.
        -11    1    3    3    0    0  0.44274578939E+03 -0.63069020324E+03 -0.54958362268E+03  0.94648619896E+03  0.00000000000E+00 0.  1.
         22    1    1    2    0    0 -0.73857998087E+03  0.10306813541E+04 -0.16933801748E+04  0.21155001437E+04  0.00000000000E+00 0.  1.
<mgrwt>
<rscale>  0 0.26179684E+04</rscale>
<asrwt>0</asrwt>
<pdfrwt beam="1">  1        2 0.85930932E-01 0.26179684E+04</pdfrwt>
<pdfrwt beam="2">  1       -2 0.47194628E+00 0.26179684E+04</pdfrwt>
<totfact> 0.11863131E-01</totfact>
</mgrwt>
</event>
<event>
 6    1  0.1028026E-006  0.2537426E+04  0.7818608E-02  0.8389772E-01
         -2   -1    0    0    0  501 -0.00000000000E+00  0.00000000000E+00  0.44914606128E+03  0.44914606128E+03  0.00000000000E+00 0.  1.
          2   -1    0    0  501    0  0.00000000000E+00 -0.00000000000E+00 -0.35837611378E+04  0.35837611378E+04  0.00000000000E+00 0. -1.
         23    2    1    2    0    0 -0.38814835893E+03  0.10696662423E+04 -0.68325726098E+03  0.13303158208E+04  0.89747868339E+02 0.  0.
         11    1    3    3    0    0 -0.22803820268E+03  0.74416690018E+03 -0.45003961772E+03  0.89906699123E+03  0.00000000000E+00 0. -1.
        -11    1    3    3    0    0 -0.16011015625E+03  0.32549934210E+03 -0.23321764326E+03  0.43124882953E+03  0.00000000000E+00 0.  1.
         22    1    1    2    0    0  0.38814835893E+03 -0.10696662423E+04 -0.24513578156E+04  0.27025913783E+04  0.00000000000E+00 0. -1.
<mgrwt>
<rscale>  0 0.25374256E+04</rscale>
<asrwt>0</asrwt>
<pdfrwt beam="1">  1        2 0.55134785E+00 0.25374256E+04</pdfrwt>
<pdfrwt beam="2">  1       -2 0.69099396E-01 0.25374256E+04</pdfrwt>
<totfact> 0.12073729E+00</totfact>
</mgrwt>
</event>
<event>
 6    1  0.1028026E-006  0.2253101E+04  0.7818608E-02  0.8496646E-01
          2   -1    0    0  501    0  0.00000000000E+00  0.00000000000E+00  0.12337729035E+04  0.12337729035E+04  0.00000000000E+00 0. -1.
         -2   -1    0    0    0  501 -0.00000000000E+00 -0.00000000000E+00 -0.10286465793E+04  0.10286465793E+04  0.00000000000E+00 0.  1.
         23    2    1    2    0    0 -0.17909648255E+03  0.75064521024E+03  0.92401417925E+03  0.12077425038E+04  0.96415612773E+02 0.  0.
         11    1    3    3    0    0 -0.12063980892E+03  0.30285526636E+03  0.37667913203E+03  0.49815905529E+03  0.00000000000E+00 0. -1.
        -11    1    3    3    0    0 -0.58456673633E+02  0.44778994387E+03  0.54733504723E+03  0.70958344854E+03  0.00000000000E+00 0.  1.
         22    1    1    2    0    0  0.17909648255E+03 -0.75064521024E+03 -0.71888785507E+03  0.10546769789E+04  0.00000000000E+00 0.  1.
<mgrwt>
<rscale>  0 0.22531012E+04</rscale>
<asrwt>0</asrwt>
<pdfrwt beam="1">  1        2 0.18981122E+00 0.22531012E+04</pdfrwt>
<pdfrwt beam="2">  1       -2 0.15825332E+00 0.22531012E+04</pdfrwt>
<totfact> 0.42714624E+00</totfact>
</mgrwt>
</event>
<event>
 6    1  0.1028026E-006  0.1739113E+04  0.7818608E-02  0.8739366E-01
         -1   -1    0    0    0  501 -0.00000000000E+00  0.00000000000E+00  0.36025994835E+03  0.36025994835E+03  0.00000000000E+00 0.  1.
          1   -1    0    0  501    0  0.00000000000E+00 -0.00000000000E+00 -0.20988426389E+04  0.20988426389E+04  0.00000000000E+00 0. -1.
         23    2    1    2    0    0  0.64234295514E+03  0.19176032465E+03 -0.16501627159E+04  0.17829409305E+04  0.80404467769E+02 0.  0.
         11    1    3    3    0    0  0.30473833746E+03  0.94546829431E+02 -0.89160120782E+03  0.94697268760E+03  0.00000000000E+00 0. -1.
        -11    1    3    3    0    0  0.33760461768E+03  0.97213495220E+02 -0.75856150810E+03  0.83596824288E+03  0.00000000000E+00 0.  1.
         22    1    1    2    0    0 -0.64234295514E+03 -0.19176032465E+03 -0.88419974595E+02  0.67616165674E+03  0.00000000000E+00 0.  1.
<mgrwt>
<rscale>  0 0.17391135E+04</rscale>
<asrwt>0</asrwt>
<pdfrwt beam="1">  1        1 0.32289887E+00 0.17391135E+04</pdfrwt>
<pdfrwt beam="2">  1       -1 0.55424606E-01 0.17391135E+04</pdfrwt>
<totfact> 0.79733576E+00</totfact>
</mgrwt>
</event>
<event>
 6    1  0.1028026E-006  0.1450964E+04  0.7818608E-02  0.8917733E-01
          2   -1    0    0  501    0  0.00000000000E+00  0.00000000000E+00  0.10582472630E+04  0.10582472630E+04  0.00000000000E+00 0. -1.
         -2   -1    0    0    0  501 -0.00000000000E+00 -0.00000000000E+00 -0.49735426652E+03  0.49735426652E+03  0.00000000000E+00 0.  1.
         23    2    1    2    0    0  0.39705442636E+03  0.31753014088E+03  0.83210965577E+03  0.97937580630E+03  0.91065267119E+02 0.  0.
         11    1    3    3    0    0  0.43520067333E+02  0.73928049562E+02  0.16673330448E+03  0.18750826007E+03  0.00000000000E+00 0.  1.
        -11    1    3    3    0    0  0.35353435903E+03  0.24360209132E+03  0.66537635129E+03  0.79186754623E+03  0.00000000000E+00 0. -1.
         22    1    1    2    0    0 -0.39705442636E+03 -0.31753014088E+03 -0.27121665927E+03  0.57622572324E+03  0.00000000000E+00 0.  1.
<mgrwt>
<rscale>  0 0.14509635E+04</rscale>
<asrwt>0</asrwt>
<pdfrwt beam="1">  1        2 0.16280727E+00 0.14509635E+04</pdfrwt>
<pdfrwt beam="2">  1       -2 0.76516041E-01 0.14509635E+04</pdfrwt>
<totfact> 0.34264083E+01</totfact>
</mgrwt>
</event>
<event>
 6    1  0.1028026E-006  0.3626280E+04  0.7818608E-02  0.8084498E-01
         -2   -1    0    0    0  501 -0.00000000000E+00  0.00000000000E+00  0.16458793308E+04  0.16458793308E+04  0.00000000000E+00 0.  1.
          2   -1    0    0  501    0  0.00000000000E+00 -0.00000000000E+00 -0.19973986297E+04  0.19973986297E+04  0.00000000000E+00 0. -1.
         23    2    1    2    0    0 -0.39511989341E+03 -0.83111849081E+03  0.13924145159E+04  0.16714303939E+04  0.89351562444E+02 0.  0.
         11    1    3    3    0    0 -0.26400783829E+03 -0.64474086744E+03  0.10529203932E+04  0.12625499116E+04  0.00000000000E+00 0. -1.
        -11    1    3    3    0    0 -0.13111205512E+03 -0.18637762337E+03  0.33949412270E+03  0.40888048234E+03  0.00000000000E+00 0.  1.
         22    1    1    2    0    0  0.39511989341E+03  0.83111849081E+03 -0.17439338147E+04  0.19718475666E+04  0.00000000000E+00 0. -1.
<mgrwt>
<rscale>  0 0.36262803E+04</rscale>
<asrwt>0</asrwt>
<pdfrwt beam="1">  1        2 0.30729210E+00 0.36262803E+04</pdfrwt>
<pdfrwt beam="2">  1       -2 0.25321221E+00 0.36262803E+04</pdfrwt>
<totfact> 0.33479098E-01</totfact>
</mgrwt>
</event>
<event>
 6    1  0.1028026E-006  0.3897679E+04  0.7818608E-02  0.8025512E-01
          1   -1    0    0  501    0  0.00000000000E+00  0.00000000000E+00  0.25388696716E+04  0.25388696716E+04  0.00000000000E+00 0. -1.
         -1   -1    0    0    0  501 -0.00000000000E+00 -0.00000000000E+00 -0.14959315257E+04  0.14959315257E+04  0.00000000000E+00 0.  1.
         23    2    1    2    0    0 -0.60495940294E+03 -0.10602421753E+04 -0.10494242283E+04  0.16123913115E+04  0.91788786007E+02 0.  0.
         13    1    3    3    0    0 -0.35837378351E+03 -0.69517462680E+03 -0.63285682369E+03  0.10060851305E+04  0.00000000000E+00 0.  1.
        -13    1    3    3    0    0 -0.24658561943E+03 -0.36506754847E+03 -0.41656740457E+03  0.60630618108E+03  0.00000000000E+00 0. -1.
         22    1    1    2    0    0  0.60495940294E+03  0.10602421753E+04  0.20923623742E+04  0.24224098857E+04  0.00000000000E+00 0. -1.
<mgrwt>
<rscale>  0 0.38976789E+04</rscale>
<asrwt>0</asrwt>
<pdfrwt beam="1">  1        1 0.39059533E+00 0.38976789E+04</pdfrwt>
<pdfrwt beam="2">  1       -1 0.23014331E+00 0.38976789E+04</pdfrwt>
<totfact> 0.94623586E-02</totfact>
</mgrwt>
</event>
<event>
 6    1  0.1028026E-006  0.4715656E+04  0.7818608E-02  0.7873932E-01
          2   -1    0    0  501    0  0.00000000000E+00  0.00000000000E+00  0.23475575821E+04  0.23475575821E+04  0.00000000000E+00 0. -1.
         -2   -1    0    0    0  501 -0.00000000000E+00 -0.00000000000E+00 -0.23681433473E+04  0.23681433473E+04  0.00000000000E+00 0.  1.
         23    2    1    2    0    0  0.12671286510E+04 -0.24376970656E+03 -0.19826521067E+04  0.23673519314E+04  0.91690254310E+02 0.  0.
         11    1    3    3    0    0  0.92618507786E+03 -0.21453972251E+03 -0.14226646390E+04  0.17110875974E+04  0.00000000000E+00 0. -1.
        -11    1    3    3    0    0  0.34094357316E+03 -0.29229984049E+02 -0.55998746770E+03  0.65626433396E+03  0.00000000000E+00 0.  1.
         22    1    1    2    0    0 -0.12671286510E+04  0.24376970656E+03  0.19620663415E+04  0.23483489980E+04  0.00000000000E+00 0. -1.
<mgrwt>
<rscale>  0 0.47156560E+04</rscale>
<asrwt>0</asrwt>
<pdfrwt beam="1">  1        2 0.36116270E+00 0.47156560E+04</pdfrwt>
<pdfrwt beam="2">  1       -2 0.36432975E+00 0.47156560E+04</pdfrwt>
<totfact> 0.40034764E-02</totfact>
</mgrwt>
</event>
<event>
 6    1  0.1028026E-006  0.2052248E+04  0.7818608E-02  0.8582575E-01
         -2   -1    0    0    0  501 -0.00000000000E+00  0.00000000000E+00  0.16576246221E+04  0.16576246221E+04  0.00000000000E+00 0.  1.
          2   -1    0    0  501    0  0.00000000000E+00 -0.00000000000E+00 -0.63520454881E+03  0.63520454881E+03  0.00000000000E+00 0. -1.
         23    2    1    2    0    0 -0.94730342629E+02  0.30476683492E+03  0.15993747125E+04  0.16334860757E+04  0.91763974210E+02 0.  0.
         13    1    3    3    0    0 -0.74377468741E+02  0.16051850971E+03  0.67975570042E+03  0.70240017943E+03  0.00000000000E+00 0.  1.
        -13    1    3    3    0    0 -0.20352873887E+02  0.14424832521E+03  0.91961901209E+03  0.93108589625E+03  0.00000000000E+00 0. -1.
         22    1    1    2    0    0  0.94730342629E+02 -0.30476683492E+03 -0.57695463922E+03  0.65934309521E+03  0.00000000000E+00 0. -1.
<mgrwt>
<rscale>  0 0.20522482E+04</rscale>
<asrwt>0</asrwt>
<pdfrwt beam="1">  1        2 0.97723777E-01 0.20522482E+04</pdfrwt>
<pdfrwt beam="2">  1       -2 0.25501917E+00 0.20522482E+04</pdfrwt>
<totfact> 0.25613107E+00</totfact>
</mgrwt>
</event>
<event>
 6    1  0.1028026E-006  0.1696955E+04  0.7818608E-02  0.8763103E-01
          2   -1    0    0  501    0  0.00000000000E+00  0.00000000000E+00  0.52239511096E+03  0.52239511096E+03  0.00000000000E+00 0. -1.
         -2   -1    0    0    0  501 -0.00000000000E+00 -0.00000000000E+00 -0.13781018847E+04  0.13781018847E+04  0.00000000000E+00 0.  1.
         23    2    1    2    0    0 -0.60556839189E+03  0.59010539105E+03 -0.46381156492E+03  0.96855316444E+03  0.89647168305E+02 0.  0.
         13    1    3    3    0    0 -0.39004169292E+03  0.32246258850E+03 -0.29353760281E+03  0.58504612421E+03  0.00000000000E+00 0.  1.
        -13    1    3    3    0    0 -0.21552669897E+03  0.26764280255E+03 -0.17027396211E+03  0.38350704022E+03  0.00000000000E+00 0. -1.
         22    1    1    2    0    0  0.60556839189E+03 -0.59010539105E+03 -0.39189520878E+03  0.93194383118E+03  0.00000000000E+00 0. -1.
<mgrwt>
<rscale>  0 0.16969546E+04</rscale>
<asrwt>0</asrwt>
<pdfrwt beam="1">  1        2 0.80368480E-01 0.16969546E+04</pdfrwt>
<pdfrwt beam="2">  1       -2 0.21201567E+00 0.16969546E+04</pdfrwt>
<totfact> 0.61833779E+00</totfact>
</mgrwt>
</event>
<event>
 6    1  0.1028026E-006  0.2758982E+04  0.7818608E-02  0.8316117E-01
          1   -1    0    0  501    0  0.00000000000E+00  0.00000000000E+00  0.16956952035E+04  0.16956952035E+04  0.00000000000E+00 0. -1.
         -1   -1    0    0    0  501 -0.00000000000E+00 -0.00000000000E+00 -0.11222509233E+04  0.11222509233E+04  0.00000000000E+00 0.  1.
         23    2    1    2    0    0  0.63631371884E+03  0.10695010862E+04 -0.31834439374E+03  0.12869285693E+04  0.78193780686E+02 0.  0.
         13    1    3    3    0    0  0.19373876060E+03  0.38403496055E+03 -0.87111246217E+02  0.43886891835E+03  0.00000000000E+00 0. -1.
        -13    1    3    3    0    0  0.44257495824E+03  0.68546612566E+03 -0.23123314753E+03  0.84805965097E+03  0.00000000000E+00 0.  1.
         22    1    1    2    0    0 -0.63631371884E+03 -0.10695010862E+04  0.89178867395E+03  0.15310175574E+04  0.00000000000E+00 0. -1.
<mgrwt>
<rscale>  0 0.27589821E+04</rscale>
<asrwt>0</asrwt>
<pdfrwt beam="1">  1        1 0.26087618E+00 0.27589821E+04</pdfrwt>
<pdfrwt beam="2">  1       -1 0.17265399E+00 0.27589821E+04</pdfrwt>
<totfact> 0.98083569E-01</totfact>
</mgrwt>
</event>
<event>
 6    1  0.1028026E-006  0.9084140E+03  0.7818608E-02  0.9415124E-01
          2   -1    0    0  501    0  0.00000000000E+00  0.00000000000E+00  0.12507923661E+04  0.12507923661E+04  0.00000000000E+00 0. -1.
         -2   -1    0    0    0  501 -0.00000000000E+00 -0.00000000000E+00 -0.16493865321E+03  0.16493865321E+03  0.00000000000E+00 0.  1.
         23    2    1    2    0    0 -0.43539272667E+03 -0.98732159448E+01  0.72211849896E+03  0.84830911922E+03  0.92243852827E+02 0.  0.
         13    1    3    3    0    0 -0.30793570283E+03  0.26121296915E+02  0.55308709620E+03  0.63357087624E+03  0.00000000000E+00 0. -1.
        -13    1    3    3    0    0 -0.12745702384E+03 -0.35994512860E+02  0.16903140275E+03  0.21473824298E+03  0.00000000000E+00 0.  1.
         22    1    1    2    0    0  0.43539272667E+03  0.98732159448E+01  0.36373521388E+03  0.56742190004E+03  0.00000000000E+00 0.  1.
<mgrwt>
<rscale>  0 0.90841402E+03</rscale>
<asrwt>0</asrwt>
<pdfrwt beam="1">  1        2 0.19242959E+00 0.90841402E+03</pdfrwt>
<pdfrwt beam="2">  1       -2 0.25375178E-01 0.90841402E+03</pdfrwt>
<totfact> 0.24691920E+02</totfact>
</mgrwt>
</event>
<event>
 6    1  0.1028026E-006  0.1650969E+04  0.7818608E-02  0.8789834E-01
          2   -1    0    0  501    0  0.00000000000E+00  0.00000000000E+00  0.53546293396E+03  0.53546293396E+03  0.00000000000E+00 0. -1.
         -2   -1    0    0    0  501 -0.00000000000E+00 -0.00000000000E+00 -0.12725894621E+04  0.12725894621E+04  0.00000000000E+00 0.  1.
         23    2    1    2    0    0  0.81423433778E+01  0.36986235189E+03  0.43476139473E+03  0.57915624062E+03  0.97673044361E+02 0.  0.
         13    1    3    3    0    0 -0.12063355286E+02  0.23826632875E+03  0.20954558667E+03  0.31753066128E+03  0.00000000000E+00 0. -1.
        -13    1    3    3    0    0  0.20205698664E+02  0.13159602313E+03  0.22521580806E+03  0.26162557934E+03  0.00000000000E+00 0.  1.
         22    1    1    2    0    0 -0.81423433778E+01 -0.36986235189E+03 -0.11718879229E+04  0.12288961555E+04  0.00000000000E+00 0.  1.
<mgrwt>
<rscale>  0 0.16509688E+04</rscale>
<asrwt>0</asrwt>
<pdfrwt beam="1">  1        2 0.82378913E-01 0.16509688E+04</pdfrwt>
<pdfrwt beam="2">  1       -2 0.19578299E+00 0.16509688E+04</pdfrwt>
<totfact> 0.76897255E+00</totfact>
</mgrwt>
</event>
<event>
 6    1  0.1028026E-006  0.2441101E+04  0.7818608E-02  0.8424274E-01
          2   -1    0    0  501    0  0.00000000000E+00  0.00000000000E+00  0.12713072881E+04  0.12713072881E+04  0.00000000000E+00 0. -1.
         -2   -1    0    0    0  501 -0.00000000000E+00 -0.00000000000E+00 -0.11718200357E+04  0.11718200357E+04  0.00000000000E+00 0.  1.
         23    2    1    2    0    0 -0.86470019776E+03  0.62213257396E+03  0.64256750538E+03  0.12474302331E+04  0.91835808865E+02 0.  0.
         11    1    3    3    0    0 -0.31523384764E+03  0.19300243345E+03  0.18338813153E+03  0.41261789200E+03  0.00000000000E+00 0. -1.
        -11    1    3    3    0    0 -0.54946635012E+03  0.42913014051E+03  0.45917937385E+03  0.83481234105E+03  0.00000000000E+00 0.  1.
         22    1    1    2    0    0  0.86470019776E+03 -0.62213257396E+03 -0.54308025302E+03  0.11956970907E+04  0.00000000000E+00 0.  1.
<mgrwt>
<rscale>  0 0.24411009E+04</rscale>
<asrwt>0</asrwt>
<pdfrwt beam="1">  1        2 0.19558574E+00 0.24411009E+04</pdfrwt>
<pdfrwt beam="2">  1       -2 0.18028001E+00 0.24411009E+04</pdfrwt>
<totfact> 0.27801944E+00</totfact>
</mgrwt>
</event>
<event>
 6    1  0.1028026E-006  0.1385764E+04  0.7818608E-02  0.8964189E-01
         -3   -1    0    0    0  501 -0.00000000000E+00  0.00000000000E+00  0.41352371098E+03  0.41352371098E+03  0.00000000000E+00 0.  1.
          3   -1    0    0  501    0  0.00000000000E+00 -0.00000000000E+00 -0.11609616733E+04  0.11609616733E+04  0.00000000000E+00 0. -1.
         23    2    1    2    0    0  0.94252663039E+02 -0.33469118897E+03  0.30156782753E+03  0.46935421397E+03  0.91915543362E+02 0.  0.
         13    1    3    3    0    0  0.59048832882E+02 -0.12802380610E+03  0.71443687123E+02  0.15805397819E+03  0.00000000000E+00 0.  1.
        -13    1    3    3    0    0  0.35203830157E+02 -0.20666738287E+03  0.23012414041E+03  0.31130023578E+03  0.00000000000E+00 0. -1.
         22    1    1    2    0    0 -0.94252663039E+02  0.33469118897E+03 -0.10490057899E+04  0.11051311703E+04  0.00000000000E+00 0. -1.
<mgrwt>
<rscale>  0 0.13857636E+04</rscale>
<asrwt>0</asrwt>
<pdfrwt beam="1">  1        3 0.17860949E+00 0.13857636E+04</pdfrwt>
<pdfrwt beam="2">  1       -3 0.63619033E-01 0.13857636E+04</pdfrwt>
<totfact> 0.12422280E+00</totfact>
</mgrwt>
</event>
<event>
 6    1  0.1028026E-006  0.2521246E+04  0.7818608E-02  0.8395455E-01
         -1   -1    0    0    0  501 -0.00000000000E+00  0.00000000000E+00  0.79129535405E+03  0.79129535405E+03  0.00000000000E+00 0.  1.
          1   -1    0    0  501    0  0.00000000000E+00 -0.00000000000E+00 -0.20083154739E+04  0.20083154739E+04  0.00000000000E+00 0. -1.
         23    2    1    2    0    0  0.58717875809E+03 -0.67162000595E+03  0.37706590353E+03  0.97287533086E+03  0.91953180712E+02 0.  0.
         13    1    3    3    0    0  0.28207053475E+03 -0.25618486435E+03  0.14687331284E+03  0.40837022580E+03  0.00000000000E+00 0. -1.
        -13    1    3    3    0    0  0.30510822334E+03 -0.41543514160E+03  0.23019259069E+03  0.56450510506E+03  0.00000000000E+00 0.  1.
         22    1    1    2    0    0 -0.58717875809E+03  0.67162000595E+03 -0.15940860233E+04  0.18267354970E+04  0.00000000000E+00 0. -1.
<mgrwt>
<rscale>  0 0.25212463E+04</rscale>
<asrwt>0</asrwt>
<pdfrwt beam="1">  1        1 0.30897161E+00 0.25212463E+04</pdfrwt>
<pdfrwt beam="2">  1       -1 0.12173775E+00 0.25212463E+04</pdfrwt>
<totfact> 0.15584340E+00</totfact>
</mgrwt>
</event>
<event>
 6    1  0.1028026E-006  0.1380475E+04  0.7818608E-02  0.8968074E-01
         -2   -1    0    0    0  501 -0.00000000000E+00  0.00000000000E+00  0.29707332890E+03  0.29707332890E+03  0.00000000000E+00 0.  1.
          2   -1    0    0  501    0  0.00000000000E+00 -0.00000000000E+00 -0.16037386508E+04  0.16037386508E+04  0.00000000000E+00 0. -1.
         23    2    1    2    0    0  0.53819914416E+02  0.32978134963E+03  0.17082508834E+03  0.38600828479E+03  0.90381764599E+02 0.  0.
         11    1    3    3    0    0  0.65403482983E+02  0.26458383036E+03  0.10339583978E+03  0.29150114676E+03  0.00000000000E+00 0.  1.
        -11    1    3    3    0    0 -0.11583568567E+02  0.65197519267E+02  0.67429248554E+02  0.94507138037E+02  0.00000000000E+00 0. -1.
         22    1    1    2    0    0 -0.53819914416E+02 -0.32978134963E+03 -0.14774904102E+04  0.15148036949E+04  0.00000000000E+00 0. -1.
<mgrwt>
<rscale>  0 0.13804753E+04</rscale>
<asrwt>0</asrwt>
<pdfrwt beam="1">  1        2 0.24672903E+00 0.13804753E+04</pdfrwt>
<pdfrwt beam="2">  1       -2 0.45703588E-01 0.13804753E+04</pdfrwt>
<totfact> 0.49095540E+01</totfact>
</mgrwt>
</event>
<event>
 6    1  0.1365439E-006  0.4051517E+04  0.7818608E-02  0.7994234E-01
         -1   -1    0    0    0  501 -0.00000000000E+00  0.00000000000E+00  0.20772456489E+04  0.20772456489E+04  0.00000000000E+00 0.  1.
          1   -1    0    0  501    0  0.00000000000E+00 -0.00000000000E+00 -0.19755473160E+04  0.19755473160E+04  0.00000000000E+00 0. -1.
         23    2    1    2    0    0 -0.35206918146E+02  0.46055669478E+03 -0.19210928426E+04  0.19779348647E+04  0.90975945743E+02 0.  0.
         11    1    3    3    0    0 -0.33056545482E+02  0.13741604834E+03 -0.74317298607E+03  0.75649322057E+03  0.00000000000E+00 0. -1.
        -11    1    3    3    0    0 -0.21503726637E+01  0.32314064644E+03 -0.11779198566E+04  0.12214416441E+04  0.00000000000E+00 0.  1.
         22    1    1    2    0    0  0.35206918146E+02 -0.46055669478E+03  0.20227911756E+04  0.20748581003E+04  0.00000000000E+00 0.  1.
<mgrwt>
<rscale>  0 0.40515168E+04</rscale>
<asrwt>0</asrwt>
<pdfrwt beam="1">  1        1 0.30393036E+00 0.40515168E+04</pdfrwt>
<pdfrwt beam="2">  1       -1 0.31957625E+00 0.40515168E+04</pdfrwt>
<totfact> 0.59429535E-02</totfact>
</mgrwt>
</event>
<event>
 6    1  0.1028026E-006  0.4287196E+04  0.7818608E-02  0.7948990E-01
          2   -1    0    0  501    0  0.00000000000E+00  0.00000000000E+00  0.25878988019E+04  0.25878988019E+04  0.00000000000E+00 0. -1.
         -2   -1    0    0    0  501 -0.00000000000E+00 -0.00000000000E+00 -0.17755766619E+04  0.17755766619E+04  0.00000000000E+00 0.  1.
         23    2    1    2    0    0  0.11359874574E+04  0.11690918576E+04  0.18215700441E+04  0.24462314504E+04  0.93207342066E+02 0.  0.
         11    1    3    3    0    0  0.82943256113E+03  0.84425256769E+03  0.12596326558E+04  0.17284082848E+04  0.00000000000E+00 0.  1.
        -11    1    3    3    0    0  0.30655489630E+03  0.32483928994E+03  0.56193738833E+03  0.71782316564E+03  0.00000000000E+00 0. -1.
         22    1    1    2    0    0 -0.11359874574E+04 -0.11690918576E+04 -0.10092479040E+04  0.19172440133E+04  0.00000000000E+00 0.  1.
<mgrwt>
<rscale>  0 0.42871962E+04</rscale>
<asrwt>0</asrwt>
<pdfrwt beam="1">  1        2 0.39813827E+00 0.42871962E+04</pdfrwt>
<pdfrwt beam="2">  1       -2 0.27316564E+00 0.42871962E+04</pdfrwt>
<totfact> 0.11053429E-01</totfact>
</mgrwt>
</event>
<event>
 6    1  0.1028026E-006  0.8390489E+03  0.7818608E-02  0.9505154E-01
         -2   -1    0    0    0  501 -0.00000000000E+00  0.00000000000E+00  0.29298179740E+03  0.29298179740E+03  0.00000000000E+00 0.  1.
          2   -1    0    0  501    0  0.00000000000E+00 -0.00000000000E+00 -0.60072254146E+03  0.60072254146E+03  0.00000000000E+00 0. -1.
         23    2    1    2    0    0  0.36898549756E+03 -0.54132711475E+02 -0.34807675830E+03  0.51859416584E+03  0.93283606857E+02 0.  0.
         11    1    3    3    0    0  0.15149310771E+03 -0.43262822853E+02 -0.91997134378E+02  0.18244261087E+03  0.00000000000E+00 0.  1.
        -11    1    3    3    0    0  0.21749238985E+03 -0.10869888622E+02 -0.25607962393E+03  0.33615155497E+03  0.00000000000E+00 0. -1.
         22    1    1    2    0    0 -0.36898549756E+03  0.54132711475E+02  0.40336014251E+02  0.37511017302E+03  0.00000000000E+00 0.  1.
<mgrwt>
<rscale>  0 0.83904891E+03</rscale>
<asrwt>0</asrwt>
<pdfrwt beam="1">  1        2 0.92418852E-01 0.83904891E+03</pdfrwt>
<pdfrwt beam="2">  1       -2 0.45074123E-01 0.83904891E+03</pdfrwt>
<totfact> 0.23239172E+02</totfact>
</mgrwt>
</event>
<event>
 6    1  0.1028026E-006  0.2129374E+04  0.7818608E-02  0.8548413E-01
          1   -1    0    0  501    0  0.00000000000E+00  0.00000000000E+00  0.14267658583E+04  0.14267658583E+04  0.00000000000E+00 0. -1.
         -1   -1    0    0    0  501 -0.00000000000E+00 -0.00000000000E+00 -0.79449485995E+03  0.79449485995E+03  0.00000000000E+00 0.  1.
         23    2    1    2    0    0  0.98796705193E+03  0.26449393456E+03  0.14715622569E+02  0.10265178257E+04  0.86523752675E+02 0.  0.
         13    1    3    3    0    0  0.16798540625E+03  0.78803949153E+02  0.86335781036E+01  0.18575171005E+03  0.00000000000E+00 0. -1.
        -13    1    3    3    0    0  0.81998164568E+03  0.18568998541E+03  0.60820444651E+01  0.84076611564E+03  0.00000000000E+00 0.  1.
         22    1    1    2    0    0 -0.98796705193E+03 -0.26449393456E+03  0.61755537576E+03  0.11947428925E+04  0.00000000000E+00 0. -1.
<mgrwt>
<rscale>  0 0.21293737E+04</rscale>
<asrwt>0</asrwt>
<pdfrwt beam="1">  1        1 0.21950244E+00 0.21293737E+04</pdfrwt>
<pdfrwt beam="2">  1       -1 0.12222998E+00 0.21293737E+04</pdfrwt>
<totfact> 0.39933079E+00</totfact>
</mgrwt>
</event>
<event>
 6    1  0.1028026E-006  0.3047564E+04  0.7818608E-02  0.8230278E-01
          2   -1    0    0  501    0  0.00000000000E+00  0.00000000000E+00  0.24753532535E+04  0.24753532535E+04  0.00000000000E+00 0. -1.
         -2   -1    0    0    0  501 -0.00000000000E+00 -0.00000000000E+00 -0.93801197701E+03  0.93801197701E+03  0.00000000000E+00 0.  1.
         23    2    1    2    0    0  0.42678392141E+03  0.14486492585E+04  0.98450711861E+03  0.18051504451E+04  0.92653510490E+02 0.  0.
         11    1    3    3    0    0  0.39350797403E+03  0.13988885205E+04  0.94471424152E+03  0.17332693433E+04  0.00000000000E+00 0. -1.
        -11    1    3    3    0    0  0.33275947385E+02  0.49760738079E+02  0.39792877087E+02  0.71881101796E+02  0.00000000000E+00 0.  1.
         22    1    1    2    0    0 -0.42678392141E+03 -0.14486492585E+04  0.55283415787E+03  0.16082147854E+04  0.00000000000E+00 0.  1.
<mgrwt>
<rscale>  0 0.30475636E+04</rscale>
<asrwt>0</asrwt>
<pdfrwt beam="1">  1        2 0.38082358E+00 0.30475636E+04</pdfrwt>
<pdfrwt beam="2">  1       -2 0.14430954E+00 0.30475636E+04</pdfrwt>
<totfact> 0.10176275E+00</totfact>
</mgrwt>
</event>
<event>
 6    1  0.1028026E-006  0.2200467E+04  0.7818608E-02  0.8518234E-01
         -2   -1    0    0    0  501 -0.00000000000E+00  0.00000000000E+00  0.71294529957E+03  0.71294529957E+03  0.00000000000E+00 0.  1.
          2   -1    0    0  501    0  0.00000000000E+00 -0.00000000000E+00 -0.16979052532E+04  0.16979052532E+04  0.00000000000E+00 0. -1.
         23    2    1    2    0    0 -0.76922543201E+03  0.63632136992E+03  0.88261938666E+01  0.10022258483E+04  0.88125468855E+02 0.  0.
         13    1    3    3    0    0 -0.51078069957E+03  0.47280036535E+03  0.18161639089E+02  0.69625207624E+03  0.00000000000E+00 0. -1.
        -13    1    3    3    0    0 -0.25844473244E+03  0.16352100457E+03 -0.93354452220E+01  0.30597377208E+03  0.00000000000E+00 0.  1.
         22    1    1    2    0    0  0.76922543201E+03 -0.63632136992E+03 -0.99378614752E+03  0.14086247045E+04  0.00000000000E+00 0. -1.
<mgrwt>
<rscale>  0 0.22004668E+04</rscale>
<asrwt>0</asrwt>
<pdfrwt beam="1">  1        2 0.26121619E+00 0.22004668E+04</pdfrwt>
<pdfrwt beam="2">  1       -2 0.10968389E+00 0.22004668E+04</pdfrwt>
<totfact> 0.59468653E+00</totfact>
</mgrwt>
</event>
<event>
 6    1  0.1028026E-006  0.1285796E+04  0.7818608E-02  0.9040905E-01
         -1   -1    0    0    0  501 -0.00000000000E+00  0.00000000000E+00  0.94489056632E+03  0.94489056632E+03  0.00000000000E+00 0.  1.
          1   -1    0    0  501    0  0.00000000000E+00 -0.00000000000E+00 -0.43742410369E+03  0.43742410369E+03  0.00000000000E+00 0. -1.
         23    2    1    2    0    0 -0.37331845586E+03 -0.54620678227E+02  0.81078325638E+03  0.89821636868E+03  0.84101534764E+02 0.  0.
         13    1    3    3    0    0 -0.10539685233E+03  0.19472477790E+02  0.19272734003E+03  0.22052551206E+03  0.00000000000E+00 0. -1.
        -13    1    3    3    0    0 -0.26792160353E+03 -0.74093156017E+02  0.61805591635E+03  0.67769085662E+03  0.00000000000E+00 0.  1.
         22    1    1    2    0    0  0.37331845586E+03  0.54620678227E+02 -0.30331679375E+03  0.48409830133E+03  0.00000000000E+00 0. -1.
<mgrwt>
<rscale>  0 0.12857961E+04</rscale>
<asrwt>0</asrwt>
<pdfrwt beam="1">  1        1 0.67296016E-01 0.12857961E+04</pdfrwt>
<pdfrwt beam="2">  1       -1 0.14536778E+00 0.12857961E+04</pdfrwt>
<totfact> 0.19863353E+01</totfact>
</mgrwt>
</event>
<event>
 6    1  0.1028026E-006  0.9822835E+03  0.7818608E-02  0.9328192E-01
         -2   -1    0    0    0  501 -0.00000000000E+00  0.00000000000E+00  0.22701891426E+03  0.22701891426E+03  0.00000000000E+00 0.  1.
          2   -1    0    0  501    0  0.00000000000E+00 -0.00000000000E+00 -0.10625555121E+04  0.10625555121E+04  0.00000000000E+00 0. -1.
         23    2    1    2    0    0  0.25583499551E+03  0.27491037843E+03 -0.14698534460E+02  0.38691037623E+03  0.91958312412E+02 0.  0.
         11    1    3    3    0    0  0.73915503410E+02  0.14352039908E+03  0.60335269453E+01  0.16154878533E+03  0.00000000000E+00 0. -1.
        -11    1    3    3    0    0  0.18191949210E+03  0.13138997936E+03 -0.20732061405E+02  0.22536159090E+03  0.00000000000E+00 0.  1.
         22    1    1    2    0    0 -0.25583499551E+03 -0.27491037843E+03 -0.82083806337E+03  0.90266405012E+03  0.00000000000E+00 0. -1.
<mgrwt>
<rscale>  0 0.98228346E+03</rscale>
<asrwt>0</asrwt>
<pdfrwt beam="1">  1        2 0.16347008E+00 0.98228346E+03</pdfrwt>
<pdfrwt beam="2">  1       -2 0.34925987E-01 0.98228346E+03</pdfrwt>
<totfact> 0.17645437E+02</totfact>
</mgrwt>
</event>
<event>
 6    1  0.1028026E-006  0.1144057E+04  0.7818608E-02  0.9163284E-01
          2   -1    0    0  501    0  0.00000000000E+00  0.00000000000E+00  0.17873497949E+03  0.17873497949E+03  0.00000000000E+00 0. -1.
         -2   -1    0    0    0  501 -0.00000000000E+00 -0.00000000000E+00 -0.18307346472E+04  0.18307346472E+04  0.00000000000E+00 0.  1.
         23    2    1    2    0    0  0.56340317822E+03 -0.29996675177E+02 -0.71003700177E+03  0.91146388636E+03  0.91054546913E+02 0.  0.
         11    1    3    3    0    0  0.40060847424E+03  0.49904435751E+01 -0.44815629269E+03  0.60112903510E+03  0.00000000000E+00 0.  1.
        -11    1    3    3    0    0  0.16279470398E+03 -0.34987118752E+02 -0.26188070907E+03  0.31033485126E+03  0.00000000000E+00 0. -1.
         22    1    1    2    0    0 -0.56340317822E+03  0.29996675177E+02 -0.94196266590E+03  0.10980057403E+04  0.00000000000E+00 0.  1.
<mgrwt>
<rscale>  0 0.11440565E+04</rscale>
<asrwt>0</asrwt>
<pdfrwt beam="1">  1        2 0.27497690E-01 0.11440565E+04</pdfrwt>
<pdfrwt beam="2">  1       -2 0.28165148E+00 0.11440565E+04</pdfrwt>
<totfact> 0.80724127E+00</totfact>
</mgrwt>
</event>
<event>
 6    1  0.1028026E-006  0.1276823E+04  0.7818608E-02  0.9048149E-01
         -2   -1    0    0    0  501 -0.00000000000E+00  0.00000000000E+00  0.32301288697E+03  0.32301288697E+03  0.00000000000E+00 0.  1.
          2   -1    0    0  501    0  0.00000000000E+00 -0.00000000000E+00 -0.12617742823E+04  0.12617742823E+04  0.00000000000E+00 0. -1.
         23    2    1    2    0    0  0.39022258503E+03  0.18090495306E+03  0.10801484583E+03  0.45308899088E+03  0.92855580511E+02 0.  0.
         11    1    3    3    0    0  0.21886307314E+03  0.10741805549E+03  0.13819570698E+02  0.24419390649E+03  0.00000000000E+00 0.  1.
        -11    1    3    3    0    0  0.17135951189E+03  0.73486897566E+02  0.94195275130E+02  0.20889508440E+03  0.00000000000E+00 0. -1.
         22    1    1    2    0    0 -0.39022258503E+03 -0.18090495306E+03 -0.10467762412E+04  0.11316981784E+04  0.00000000000E+00 0. -1.
<mgrwt>
<rscale>  0 0.12768232E+04</rscale>
<asrwt>0</asrwt>
<pdfrwt beam="1">  1        2 0.19411912E+00 0.12768232E+04</pdfrwt>
<pdfrwt beam="2">  1       -2 0.49694291E-01 0.12768232E+04</pdfrwt>
<totfact> 0.65465614E+01</totfact>
</mgrwt>
</event>
<event>
 6    1  0.1028026E-006  0.3281126E+04  0.7818608E-02  0.8167715E-01
          1   -1    0    0  501    0  0.00000000000E+00  0.00000000000E+00  0.11115771107E+04  0.11115771107E+04  0.00000000000E+00 0. -1.
         -1   -1    0    0    0  501 -0.00000000000E+00 -0.00000000000E+00 -0.24212869489E+04  0.24212869489E+04  0.00000000000E+00 0.  1.
         23    2    1    2    0    0 -0.92423893426E+03  0.90986000591E+03  0.42474765884E+03  0.13671296237E+04  0.81055513751E+02 0.  0.
         11    1    3    3    0    0 -0.57562249471E+03  0.51200809200E+03  0.24312427895E+03  0.80783844777E+03  0.00000000000E+00 0.  1.
        -11    1    3    3    0    0 -0.34861643955E+03  0.39785191392E+03  0.18162337990E+03  0.55929117592E+03  0.00000000000E+00 0. -1.
         22    1    1    2    0    0  0.92423893426E+03 -0.90986000591E+03 -0.17344574971E+04  0.21657344360E+04  0.00000000000E+00 0.  1.
<mgrwt>
<rscale>  0 0.32811261E+04</rscale>
<asrwt>0</asrwt>
<pdfrwt beam="1">  1        1 0.17101187E+00 0.32811261E+04</pdfrwt>
<pdfrwt beam="2">  1       -1 0.37250568E+00 0.32811261E+04</pdfrwt>
<totfact> 0.11342794E-01</totfact>
</mgrwt>
</event>
<event>
 6    1  0.1028026E-006  0.1825572E+04  0.7818608E-02  0.8692817E-01
          2   -1    0    0  501    0  0.00000000000E+00  0.00000000000E+00  0.14191672339E+04  0.14191672339E+04  0.00000000000E+00 0. -1.
         -2   -1    0    0    0  501 -0.00000000000E+00 -0.00000000000E+00 -0.58708972143E+03  0.58708972143E+03  0.00000000000E+00 0.  1.
         23    2    1    2    0    0  0.55828883414E+03  0.32014653216E+03  0.11250146482E+04  0.12991555553E+04  0.89257906156E+02 0.  0.
         13    1    3    3    0    0  0.41126950189E+03  0.20656867467E+03  0.73587720031E+03  0.86794497203E+03  0.00000000000E+00 0. -1.
        -13    1    3    3    0    0  0.14701933225E+03  0.11357785749E+03  0.38913744790E+03  0.43121058327E+03  0.00000000000E+00 0.  1.
         22    1    1    2    0    0 -0.55828883414E+03 -0.32014653216E+03 -0.29293713575E+03  0.70710140000E+03  0.00000000000E+00 0.  1.
<mgrwt>
<rscale>  0 0.18255722E+04</rscale>
<asrwt>0</asrwt>
<pdfrwt beam="1">  1        2 0.21833342E+00 0.18255722E+04</pdfrwt>
<pdfrwt beam="2">  1       -2 0.90321496E-01 0.18255722E+04</pdfrwt>
<totfact> 0.13934475E+01</totfact>
</mgrwt>
</event>
<event>
 6    1  0.1028026E-006  0.8989943E+03  0.7818608E-02  0.9426839E-01
         -1   -1    0    0    0  501 -0.00000000000E+00  0.00000000000E+00  0.51616120430E+03  0.51616120430E+03  0.00000000000E+00 0.  1.
          1   -1    0    0  501    0  0.00000000000E+00 -0.00000000000E+00 -0.39144302508E+03  0.39144302508E+03  0.00000000000E+00 0. -1.
         23    2    1    2    0    0 -0.39427874496E+03  0.17978694876E+03 -0.38757931447E+02  0.44445898820E+03  0.90898510795E+02 0.  0.
         11    1    3    3    0    0 -0.13249471847E+03  0.17894021170E+02 -0.27241505315E+02  0.13644466288E+03  0.00000000000E+00 0.  1.
        -11    1    3    3    0    0 -0.26178402649E+03  0.16189292759E+03 -0.11516426132E+02  0.30801432532E+03  0.00000000000E+00 0. -1.
         22    1    1    2    0    0  0.39427874496E+03 -0.17978694876E+03  0.16347611067E+03  0.46314524119E+03  0.00000000000E+00 0.  1.
<mgrwt>
<rscale>  0 0.89899433E+03</rscale>
<asrwt>0</asrwt>
<pdfrwt beam="1">  1        1 0.60222004E-01 0.89899433E+03</pdfrwt>
<pdfrwt beam="2">  1       -1 0.79409416E-01 0.89899433E+03</pdfrwt>
<totfact> 0.98696486E+01</totfact>
</mgrwt>
</event>
<event>
 6    1  0.1028026E-006  0.3675820E+04  0.7818608E-02  0.8073342E-01
          2   -1    0    0  501    0  0.00000000000E+00  0.00000000000E+00  0.16632812869E+04  0.16632812869E+04  0.00000000000E+00 0. -1.
         -2   -1    0    0    0  501 -0.00000000000E+00 -0.00000000000E+00 -0.20308731181E+04  0.20308731181E+04  0.00000000000E+00 0.  1.
         23    2    1    2    0    0 -0.77977703389E+03  0.11454565540E+04 -0.13955247419E+04  0.19688228402E+04  0.93011457705E+02 0.  0.
         13    1    3    3    0    0 -0.11809649570E+03  0.12769367592E+03 -0.15177016942E+03  0.23083899474E+03  0.00000000000E+00 0. -1.
        -13    1    3    3    0    0 -0.66168053820E+03  0.10177628780E+04 -0.12437545725E+04  0.17379838455E+04  0.00000000000E+00 0.  1.
         22    1    1    2    0    0  0.77977703389E+03 -0.11454565540E+04  0.10279329107E+04  0.17253315648E+04  0.00000000000E+00 0. -1.
<mgrwt>
<rscale>  0 0.36758200E+04</rscale>
<asrwt>0</asrwt>
<pdfrwt beam="1">  1        2 0.25588943E+00 0.36758200E+04</pdfrwt>
<pdfrwt beam="2">  1       -2 0.31244202E+00 0.36758200E+04</pdfrwt>
<totfact> 0.22193732E-01</totfact>
</mgrwt>
</event>
<event>
 6    1  0.1028026E-006  0.1243579E+04  0.7818608E-02  0.9075545E-01
         -1   -1    0    0    0  501 -0.00000000000E+00  0.00000000000E+00  0.36547352500E+03  0.36547352500E+03  0.00000000000E+00 0.  1.
          1   -1    0    0  501    0  0.00000000000E+00 -0.00000000000E+00 -0.10578656858E+04  0.10578656858E+04  0.00000000000E+00 0. -1.
         23    2    1    2    0    0  0.11481957363E+03  0.55367588449E+03 -0.60094752462E+02  0.57508186061E+03  0.85832671948E+02 0.  0.
         11    1    3    3    0    0  0.77291820910E+02  0.50203962739E+03 -0.49281262674E+02  0.51033954961E+03  0.00000000000E+00 0. -1.
        -11    1    3    3    0    0  0.37527752720E+02  0.51636257097E+02 -0.10813489788E+02  0.64742310992E+02  0.00000000000E+00 0.  1.
         22    1    1    2    0    0 -0.11481957363E+03 -0.55367588449E+03 -0.63229740833E+03  0.84825735017E+03  0.00000000000E+00 0. -1.
<mgrwt>
<rscale>  0 0.12435785E+04</rscale>
<asrwt>0</asrwt>
<pdfrwt beam="1">  1        1 0.16274856E+00 0.12435785E+04</pdfrwt>
<pdfrwt beam="2">  1       -1 0.56226697E-01 0.12435785E+04</pdfrwt>
<totfact> 0.43093701E+01</totfact>
</mgrwt>
</event>
<event>
 6    1  0.1028026E-006  0.5021085E+04  0.7818608E-02  0.7825263E-01
          2   -1    0    0  501    0  0.00000000000E+00  0.00000000000E+00  0.40159567402E+04  0.40159567402E+04  0.00000000000E+00 0. -1.
         -2   -1    0    0    0  501 -0.00000000000E+00 -0.00000000000E+00 -0.15694453835E+04  0.15694453835E+04  0.00000000000E+00 0.  1.
         23    2    1    2    0    0  0.18838298584E+04  0.21425125348E+03 -0.60553352162E+03  0.19923955171E+04  0.90832350908E+02 0.  0.
         11    1    3    3    0    0  0.91663780777E+03  0.92828325149E+02 -0.24810988671E+03  0.95414908923E+03  0.00000000000E+00 0. -1.
        -11    1    3    3    0    0  0.96719205060E+03  0.12142292833E+03 -0.35742363491E+03  0.10382464279E+04  0.00000000000E+00 0.  1.
         22    1    1    2    0    0 -0.18838298584E+04 -0.21425125348E+03  0.30520448784E+04  0.35930066065E+04  0.00000000000E+00 0. -1.
<mgrwt>
<rscale>  0 0.50210854E+04</rscale>
<asrwt>0</asrwt>
<pdfrwt beam="1">  1        2 0.61783950E+00 0.50210854E+04</pdfrwt>
<pdfrwt beam="2">  1       -2 0.24145314E+00 0.50210854E+04</pdfrwt>
<totfact> 0.17427442E-02</totfact>
</mgrwt>
</event>
<event>
 6    1  0.1028026E-006  0.2656807E+04  0.7818608E-02  0.8349157E-01
          2   -1    0    0  501    0  0.00000000000E+00  0.00000000000E+00  0.93350713748E+03  0.93350713748E+03  0.00000000000E+00 0. -1.
         -2   -1    0    0    0  501 -0.00000000000E+00 -0.00000000000E+00 -0.18903505782E+04  0.18903505782E+04  0.00000000000E+00 0.  1.
         23    2    1    2    0    0  0.29265774012E+03  0.24207604608E+03 -0.18300998490E+04  0.18715835327E+04  0.96488848054E+02 0.  0.
         13    1    3    3    0    0  0.22354794665E+03  0.22620270511E+03 -0.15764290960E+04  0.16081884352E+04  0.00000000000E+00 0. -1.
        -13    1    3    3    0    0  0.69109793471E+02  0.15873340971E+02 -0.25367075294E+03  0.26339509753E+03  0.00000000000E+00 0.  1.
         22    1    1    2    0    0 -0.29265774012E+03 -0.24207604608E+03  0.87325640826E+03  0.95227418295E+03  0.00000000000E+00 0. -1.
<mgrwt>
<rscale>  0 0.26568069E+04</rscale>
<asrwt>0</asrwt>
<pdfrwt beam="1">  1        2 0.14361648E+00 0.26568069E+04</pdfrwt>
<pdfrwt beam="2">  1       -2 0.29082317E+00 0.26568069E+04</pdfrwt>
<totfact> 0.88658447E-01</totfact>
</mgrwt>
</event>
<event>
 6    1  0.1028026E-006  0.2472776E+04  0.7818608E-02  0.8412749E-01
          3   -1    0    0  501    0  0.00000000000E+00  0.00000000000E+00  0.78122938063E+03  0.78122938063E+03  0.00000000000E+00 0. -1.
         -3   -1    0    0    0  501 -0.00000000000E+00 -0.00000000000E+00 -0.19567311521E+04  0.19567311521E+04  0.00000000000E+00 0.  1.
         23    2    1    2    0    0  0.25587048231E+03 -0.65717488364E+03  0.53361210796E+03  0.88906389304E+03  0.91346553029E+02 0.  0.
         13    1    3    3    0    0  0.28266668762E+02 -0.17968370487E+03  0.14722419946E+03  0.23400898116E+03  0.00000000000E+00 0. -1.
        -13    1    3    3    0    0  0.22760381355E+03 -0.47749117876E+03  0.38638790850E+03  0.65505491188E+03  0.00000000000E+00 0.  1.
         22    1    1    2    0    0 -0.25587048231E+03  0.65717488364E+03 -0.17091138794E+04  0.18488966397E+04  0.00000000000E+00 0.  1.
<mgrwt>
<rscale>  0 0.24727765E+04</rscale>
<asrwt>0</asrwt>
<pdfrwt beam="1">  1        3 0.12018914E+00 0.24727765E+04</pdfrwt>
<pdfrwt beam="2">  1       -3 0.30103555E+00 0.24727765E+04</pdfrwt>
<totfact> 0.49277598E-02</totfact>
</mgrwt>
</event>
<event>
 6    1  0.1028026E-006  0.2090032E+04  0.7818608E-02  0.8565647E-01
          2   -1    0    0  501    0  0.00000000000E+00  0.00000000000E+00  0.20178106362E+04  0.20178106362E+04  0.00000000000E+00 0. -1.
         -2   -1    0    0    0  501 -0.00000000000E+00 -0.00000000000E+00 -0.54120969891E+03  0.54120969891E+03  0.00000000000E+00 0.  1.
         23    2    1    2    0    0 -0.89853055873E+02  0.87830972276E+03  0.59875612687E+02  0.88970544985E+03  0.92136625502E+02 0.  0.
         11    1    3    3    0    0 -0.31451976727E+02  0.41585227630E+03 -0.16465809712E+02  0.41736490681E+03  0.00000000000E+00 0. -1.
        -11    1    3    3    0    0 -0.58401079147E+02  0.46245744646E+03  0.76341422399E+02  0.47234054305E+03  0.00000000000E+00 0.  1.
         22    1    1    2    0    0  0.89853055873E+02 -0.87830972276E+03  0.14167253246E+04  0.16693148853E+04  0.00000000000E+00 0. -1.
<mgrwt>
<rscale>  0 0.20900322E+04</rscale>
<asrwt>0</asrwt>
<pdfrwt beam="1">  1        2 0.31043240E+00 0.20900322E+04</pdfrwt>
<pdfrwt beam="2">  1       -2 0.83263032E-01 0.20900322E+04</pdfrwt>
<totfact> 0.76053047E+00</totfact>
</mgrwt>
</event>
<event>
 6    1  0.1028026E-006  0.1917591E+04  0.7818608E-02  0.8646149E-01
         -1   -1    0    0    0  501 -0.00000000000E+00  0.00000000000E+00  0.11127579387E+04  0.11127579387E+04  0.00000000000E+00 0.  1.
          1   -1    0    0  501    0  0.00000000000E+00 -0.00000000000E+00 -0.82613536208E+03  0.82613536208E+03  0.00000000000E+00 0. -1.
         23    2    1    2    0    0  0.43016837798E+03 -0.83607870795E+03 -0.38485910824E+02  0.94402247101E+03  0.74998807605E+02 0.  0.
         13    1    3    3    0    0  0.33023428963E+03 -0.56667890949E+03 -0.29512143790E+02  0.65654446852E+03  0.00000000000E+00 0.  1.
        -13    1    3    3    0    0  0.99934088355E+02 -0.26939979845E+03 -0.89737670344E+01  0.28747800249E+03  0.00000000000E+00 0. -1.
         22    1    1    2    0    0 -0.43016837798E+03  0.83607870795E+03  0.32510848742E+03  0.99487082975E+03  0.00000000000E+00 0. -1.
<mgrwt>
<rscale>  0 0.19175909E+04</rscale>
<asrwt>0</asrwt>
<pdfrwt beam="1">  1        1 0.12709775E+00 0.19175909E+04</pdfrwt>
<pdfrwt beam="2">  1       -1 0.17119353E+00 0.19175909E+04</pdfrwt>
<totfact> 0.47279352E+00</totfact>
</mgrwt>
</event>
<event>
 6    1  0.1028026E-006  0.2450285E+04  0.7818608E-02  0.8420914E-01
          2   -1    0    0  501    0  0.00000000000E+00  0.00000000000E+00  0.12211558055E+04  0.12211558055E+04  0.00000000000E+00 0. -1.
         -2   -1    0    0    0  501 -0.00000000000E+00 -0.00000000000E+00 -0.12291418960E+04  0.12291418960E+04  0.00000000000E+00 0.  1.
         23    2    1    2    0    0 -0.69117403754E+03 -0.10090373011E+04  0.29520005378E+02  0.12266619173E+04  0.89163912180E+02 0.  0.
         11    1    3    3    0    0 -0.43974828060E+03 -0.59304929016E+03  0.51543419470E+02  0.74009643625E+03  0.00000000000E+00 0. -1.
        -11    1    3    3    0    0 -0.25142575694E+03 -0.41598801098E+03 -0.22023414092E+02  0.48656548100E+03  0.00000000000E+00 0.  1.
         22    1    1    2    0    0  0.69117403754E+03  0.10090373011E+04 -0.37506095897E+02  0.12236357843E+04  0.00000000000E+00 0.  1.
<mgrwt>
<rscale>  0 0.24502847E+04</rscale>
<asrwt>0</asrwt>
<pdfrwt beam="1">  1        2 0.18787012E+00 0.24502847E+04</pdfrwt>
<pdfrwt beam="2">  1       -2 0.18909875E+00 0.24502847E+04</pdfrwt>
<totfact> 0.25896865E+00</totfact>
</mgrwt>
</event>
<event>
 6    1  0.1028026E-006  0.2832026E+04  0.7818608E-02  0.8293394E-01
          2   -1    0    0  501    0  0.00000000000E+00  0.00000000000E+00  0.91791172162E+03  0.91791172162E+03  0.00000000000E+00 0. -1.
         -2   -1    0    0    0  501 -0.00000000000E+00 -0.00000000000E+00 -0.21844069874E+04  0.21844069874E+04  0.00000000000E+00 0.  1.
         23    2    1    2    0    0 -0.13662565915E+04 -0.51544846153E+02 -0.23674082314E+03  0.13906796825E+04  0.92896809459E+02 0.  0.
         11    1    3    3    0    0 -0.30389881663E+03 -0.47132600237E+02 -0.37803353977E+02  0.30984684334E+03  0.00000000000E+00 0.  1.
        -11    1    3    3    0    0 -0.10623577748E+04 -0.44122459163E+01 -0.19893746917E+03  0.10808328392E+04  0.00000000000E+00 0. -1.
         22    1    1    2    0    0  0.13662565915E+04  0.51544846153E+02 -0.10297544426E+04  0.17116390265E+04  0.00000000000E+00 0.  1.
<mgrwt>
<rscale>  0 0.28320260E+04</rscale>
<asrwt>0</asrwt>
<pdfrwt beam="1">  1        2 0.14121719E+00 0.28320260E+04</pdfrwt>
<pdfrwt beam="2">  1       -2 0.33606261E+00 0.28320260E+04</pdfrwt>
<totfact> 0.47095076E-01</totfact>
</mgrwt>
</event>
<event>
 6    1  0.1028026E-006  0.9242844E+03  0.7818608E-02  0.9395724E-01
          2   -1    0    0  501    0  0.00000000000E+00  0.00000000000E+00  0.47043291621E+03  0.47043291621E+03  0.00000000000E+00 0. -1.
         -2   -1    0    0    0  501 -0.00000000000E+00 -0.00000000000E+00 -0.45399762078E+03  0.45399762078E+03  0.00000000000E+00 0.  1.
         23    2    1    2    0    0 -0.30051865676E+03  0.24068362098E+03  0.25577145082E+03  0.47108534429E+03  0.90897184121E+02 0.  0.
         11    1    3    3    0    0 -0.22841316087E+03  0.18368325587E+03  0.14459199133E+03  0.32683169140E+03  0.00000000000E+00 0. -1.
        -11    1    3    3    0    0 -0.72105495887E+02  0.57000365114E+02  0.11117945949E+03  0.14425365289E+03  0.00000000000E+00 0.  1.
         22    1    1    2    0    0  0.30051865676E+03 -0.24068362098E+03 -0.23933615538E+03  0.45334519270E+03  0.00000000000E+00 0.  1.
<mgrwt>
<rscale>  0 0.92428443E+03</rscale>
<asrwt>0</asrwt>
<pdfrwt beam="1">  1        2 0.72374295E-01 0.92428443E+03</pdfrwt>
<pdfrwt beam="2">  1       -2 0.69845788E-01 0.92428443E+03</pdfrwt>
<totfact> 0.12380915E+02</totfact>
</mgrwt>
</event>
<event>
 6    1  0.1028026E-006  0.2030023E+04  0.7818608E-02  0.8592711E-01
         -3   -1    0    0    0  501 -0.00000000000E+00  0.00000000000E+00  0.59698936591E+03  0.59698936591E+03  0.00000000000E+00 0.  1.
          3   -1    0    0  501    0  0.00000000000E+00 -0.00000000000E+00 -0.17257391573E+04  0.17257391573E+04  0.00000000000E+00 0. -1.
         23    2    1    2    0    0  0.82209908619E+03 -0.58414998053E+02 -0.12400774426E+04  0.14910717037E+04  0.79016088334E+02 0.  0.
         11    1    3    3    0    0  0.43634047174E+03 -0.91518330212E+01 -0.71473167702E+03  0.83744739146E+03  0.00000000000E+00 0.  1.
        -11    1    3    3    0    0  0.38575861446E+03 -0.49263165032E+02 -0.52534576561E+03  0.65362431220E+03  0.00000000000E+00 0. -1.
         22    1    1    2    0    0 -0.82209908619E+03  0.58414998053E+02  0.11132765127E+03  0.83165681952E+03  0.00000000000E+00 0.  1.
<mgrwt>
<rscale>  0 0.20300226E+04</rscale>
<asrwt>0</asrwt>
<pdfrwt beam="1">  1        3 0.26549833E+00 0.20300226E+04</pdfrwt>
<pdfrwt beam="2">  1       -3 0.91844518E-01 0.20300226E+04</pdfrwt>
<totfact> 0.15538540E-01</totfact>
</mgrwt>
</event>
<event>
 6    1  0.1028026E-006  0.1378718E+04  0.7818608E-02  0.8969369E-01
          2   -1    0    0  501    0  0.00000000000E+00  0.00000000000E+00  0.21917634582E+04  0.21917634582E+04  0.00000000000E+00 0. -1.
         -2   -1    0    0    0  501 -0.00000000000E+00 -0.00000000000E+00 -0.21681886508E+03  0.21681886508E+03  0.00000000000E+00 0.  1.
         23    2    1    2    0    0 -0.55965535499E+03 -0.13510168182E+03  0.16443380194E+04  0.17446792525E+04  0.92690836874E+02 0.  0.
         11    1    3    3    0    0 -0.29100579597E+02  0.13221396032E+02  0.10331075867E+03  0.10814232244E+03  0.00000000000E+00 0. -1.
        -11    1    3    3    0    0 -0.53055477539E+03 -0.14832307786E+03  0.15410272607E+04  0.16365369300E+04  0.00000000000E+00 0.  1.
         22    1    1    2    0    0  0.55965535499E+03  0.13510168182E+03  0.33060657372E+03  0.66390307078E+03  0.00000000000E+00 0.  1.
<mgrwt>
<rscale>  0 0.13787178E+04</rscale>
<asrwt>0</asrwt>
<pdfrwt beam="1">  1        2 0.33719436E+00 0.13787178E+04</pdfrwt>
<pdfrwt beam="2">  1       -2 0.33356750E-01 0.13787178E+04</pdfrwt>
<totfact> 0.42789563E+01</totfact>
</mgrwt>
</event>
<event>
 6    1  0.1028026E-006  0.3594672E+04  0.7818608E-02  0.8091713E-01
          2   -1    0    0  501    0  0.00000000000E+00  0.00000000000E+00  0.16782920239E+04  0.16782920239E+04  0.00000000000E+00 0. -1.
         -2   -1    0    0    0  501 -0.00000000000E+00 -0.00000000000E+00 -0.19248239196E+04  0.19248239196E+04  0.00000000000E+00 0.  1.
         23    2    1    2    0    0  0.42370459528E+03 -0.62436103767E+03 -0.17571749015E+04  0.19145086533E+04  0.91254915586E+02 0.  0.
         13    1    3    3    0    0  0.10183000241E+03 -0.10917147516E+03 -0.42221178943E+03  0.44782871225E+03  0.00000000000E+00 0.  1.
        -13    1    3    3    0    0  0.32187459287E+03 -0.51518956250E+03 -0.13349631121E+04  0.14666799410E+04  0.00000000000E+00 0. -1.
         22    1    1    2    0    0 -0.42370459528E+03  0.62436103767E+03  0.15106430058E+04  0.16886072902E+04  0.00000000000E+00 0. -1.
<mgrwt>
<rscale>  0 0.35946720E+04</rscale>
<asrwt>0</asrwt>
<pdfrwt beam="1">  1        2 0.25819877E+00 0.35946720E+04</pdfrwt>
<pdfrwt beam="2">  1       -2 0.29612676E+00 0.35946720E+04</pdfrwt>
<totfact> 0.27597389E-01</totfact>
</mgrwt>
</event>
<event>
 6    1  0.1028026E-006  0.1736993E+04  0.7818608E-02  0.8740543E-01
          2   -1    0    0  501    0  0.00000000000E+00  0.00000000000E+00  0.22240641063E+04  0.22240641063E+04  0.00000000000E+00 0. -1.
         -2   -1    0    0    0  501 -0.00000000000E+00 -0.00000000000E+00 -0.33914775563E+03  0.33914775563E+03  0.00000000000E+00 0.  1.
         23    2    1    2    0    0  0.78476223421E+03 -0.10747386196E+03  0.42692993350E+03  0.90395697256E+03  0.86409749932E+02 0.  0.
         13    1    3    3    0    0  0.37146564447E+03 -0.92952143476E+02  0.19253796192E+03  0.42859968826E+03  0.00000000000E+00 0.  1.
        -13    1    3    3    0    0  0.41329658974E+03 -0.14521718488E+02  0.23439197158E+03  0.47535728430E+03  0.00000000000E+00 0. -1.
         22    1    1    2    0    0 -0.78476223421E+03  0.10747386196E+03  0.14579864172E+04  0.16592548894E+04  0.00000000000E+00 0.  1.
<mgrwt>
<rscale>  0 0.17369932E+04</rscale>
<asrwt>0</asrwt>
<pdfrwt beam="1">  1        2 0.34216370E+00 0.17369932E+04</pdfrwt>
<pdfrwt beam="2">  1       -2 0.52176579E-01 0.17369932E+04</pdfrwt>
<totfact> 0.16474374E+01</totfact>
</mgrwt>
</event>
<event>
 6    1  0.1028026E-006  0.2754792E+04  0.7818608E-02  0.8317443E-01
         -1   -1    0    0    0  501 -0.00000000000E+00  0.00000000000E+00  0.16517576097E+04  0.16517576097E+04  0.00000000000E+00 0.  1.
          1   -1    0    0  501    0  0.00000000000E+00 -0.00000000000E+00 -0.11486066047E+04  0.11486066047E+04  0.00000000000E+00 0. -1.
         23    2    1    2    0    0 -0.47161868574E+02  0.11599935051E+04  0.10025010598E+04  0.15365763955E+04  0.90826595632E+02 0.  0.
         11    1    3    3    0    0 -0.34936400092E+02  0.31949889018E+03  0.32340580265E+03  0.45595110052E+03  0.00000000000E+00 0. -1.
        -11    1    3    3    0    0 -0.12225468482E+02  0.84049461494E+03  0.67909525717E+03  0.10806252950E+04  0.00000000000E+00 0.  1.
         22    1    1    2    0    0  0.47161868574E+02 -0.11599935051E+04 -0.49935005484E+03  0.12637878188E+04  0.00000000000E+00 0. -1.
<mgrwt>
<rscale>  0 0.27547920E+04</rscale>
<asrwt>0</asrwt>
<pdfrwt beam="1">  1        1 0.17670871E+00 0.27547920E+04</pdfrwt>
<pdfrwt beam="2">  1       -1 0.25411656E+00 0.27547920E+04</pdfrwt>
<totfact> 0.66406753E-01</totfact>
</mgrwt>
</event>
<event>
 6    1  0.1028026E-006  0.2763701E+04  0.7818608E-02  0.8314627E-01
          1   -1    0    0  501    0  0.00000000000E+00  0.00000000000E+00  0.22819627015E+04  0.22819627015E+04  0.00000000000E+00 0. -1.
         -1   -1    0    0    0  501 -0.00000000000E+00 -0.00000000000E+00 -0.83678433433E+03  0.83678433433E+03  0.00000000000E+00 0.  1.
         23    2    1    2    0    0 -0.88249414588E+03  0.55194975189E+03  0.17463883570E+04  0.20351549058E+04  0.92405363363E+02 0.  0.
         13    1    3    3    0    0 -0.38279600457E+03  0.18766370595E+03  0.73552038797E+03  0.85014156983E+03  0.00000000000E+00 0. -1.
        -13    1    3    3    0    0 -0.49969814131E+03  0.36428604594E+03  0.10108679690E+04  0.11850133360E+04  0.00000000000E+00 0.  1.
         22    1    1    2    0    0  0.88249414588E+03 -0.55194975189E+03 -0.30120998986E+03  0.10835921300E+04  0.00000000000E+00 0.  1.
<mgrwt>
<rscale>  0 0.27637009E+04</rscale>
<asrwt>0</asrwt>
<pdfrwt beam="1">  1        1 0.35107118E+00 0.27637009E+04</pdfrwt>
<pdfrwt beam="2">  1       -1 0.12873605E+00 0.27637009E+04</pdfrwt>
<totfact> 0.86413714E-01</totfact>
</mgrwt>
</event>
<event>
 6    1  0.1028026E-006  0.2163056E+04  0.7818608E-02  0.8533964E-01
         -1   -1    0    0    0  501 -0.00000000000E+00  0.00000000000E+00  0.72556525027E+03  0.72556525027E+03  0.00000000000E+00 0.  1.
          1   -1    0    0  501    0  0.00000000000E+00 -0.00000000000E+00 -0.16121270219E+04  0.16121270219E+04  0.00000000000E+00 0. -1.
         23    2    1    2    0    0  0.26977828722E+03 -0.89740444159E+03 -0.10235511973E+04  0.13906541744E+04  0.90260307932E+02 0.  0.
         11    1    3    3    0    0  0.27140177045E+03 -0.83416063495E+03 -0.96948528382E+03  0.13074343584E+04  0.00000000000E+00 0.  1.
        -11    1    3    3    0    0 -0.16234832357E+01 -0.63243806640E+02 -0.54065913473E+02  0.83219816004E+02  0.00000000000E+00 0. -1.
         22    1    1    2    0    0 -0.26977828722E+03  0.89740444159E+03  0.13698942562E+03  0.94703809785E+03  0.00000000000E+00 0. -1.
<mgrwt>
<rscale>  0 0.21630565E+04</rscale>
<asrwt>0</asrwt>
<pdfrwt beam="1">  1        1 0.24801954E+00 0.21630565E+04</pdfrwt>
<pdfrwt beam="2">  1       -1 0.11162542E+00 0.21630565E+04</pdfrwt>
<totfact> 0.36902095E+00</totfact>
</mgrwt>
</event>
<event>
 6    1  0.1028026E-006  0.2564005E+04  0.7818608E-02  0.8380532E-01
         -2   -1    0    0    0  501 -0.00000000000E+00  0.00000000000E+00  0.16669940222E+04  0.16669940222E+04  0.00000000000E+00 0.  1.
          2   -1    0    0  501    0  0.00000000000E+00 -0.00000000000E+00 -0.98592497917E+03  0.98592497917E+03  0.00000000000E+00 0. -1.
         23    2    1    2    0    0 -0.21025865855E+02  0.11030184666E+04  0.10132501985E+04  0.15007748503E+04  0.92506010436E+02 0.  0.
         13    1    3    3    0    0 -0.39473876030E+02  0.20278958767E+03  0.18225453673E+03  0.27549686008E+03  0.00000000000E+00 0.  1.
        -13    1    3    3    0    0  0.18448010174E+02  0.90022887891E+03  0.83099566176E+03  0.12252779902E+04  0.00000000000E+00 0. -1.
         22    1    1    2    0    0  0.21025865855E+02 -0.11030184666E+04 -0.33218115549E+03  0.11521441510E+04  0.00000000000E+00 0.  1.
<mgrwt>
<rscale>  0 0.25640055E+04</rscale>
<asrwt>0</asrwt>
<pdfrwt beam="1">  1        2 0.15168077E+00 0.25640055E+04</pdfrwt>
<pdfrwt beam="2">  1       -2 0.25646062E+00 0.25640055E+04</pdfrwt>
<totfact> 0.13382313E+00</totfact>
</mgrwt>
</event>
<event>
 6    1  0.1028026E-006  0.2806618E+04  0.7818608E-02  0.8301217E-01
         -1   -1    0    0    0  501 -0.00000000000E+00  0.00000000000E+00  0.15132200589E+04  0.15132200589E+04  0.00000000000E+00 0.  1.
          1   -1    0    0  501    0  0.00000000000E+00 -0.00000000000E+00 -0.13013809773E+04  0.13013809773E+04  0.00000000000E+00 0. -1.
         23    2    1    2    0    0  0.11948021017E+04  0.70969255855E+03  0.29007457130E+03  0.14227187201E+04  0.93646728940E+02 0.  0.
         11    1    3    3    0    0  0.93180052815E+02  0.86341195559E+02  0.23177045922E+02  0.12912977871E+03  0.00000000000E+00 0. -1.
        -11    1    3    3    0    0  0.11016220489E+04  0.62335136299E+03  0.26689752538E+03  0.12935889414E+04  0.00000000000E+00 0.  1.
         22    1    1    2    0    0 -0.11948021017E+04 -0.70969255855E+03 -0.78235489757E+02  0.13918823161E+04  0.00000000000E+00 0.  1.
<mgrwt>
<rscale>  0 0.28066178E+04</rscale>
<asrwt>0</asrwt>
<pdfrwt beam="1">  1        1 0.20021246E+00 0.28066178E+04</pdfrwt>
<pdfrwt beam="2">  1       -1 0.23280309E+00 0.28066178E+04</pdfrwt>
<totfact> 0.70622261E-01</totfact>
</mgrwt>
</event>
<event>
 6    1  0.1028026E-006  0.1961014E+04  0.7818608E-02  0.8625068E-01
          1   -1    0    0  501    0  0.00000000000E+00  0.00000000000E+00  0.21298154205E+04  0.21298154205E+04  0.00000000000E+00 0. -1.
         -1   -1    0    0    0  501 -0.00000000000E+00 -0.00000000000E+00 -0.45139782870E+03  0.45139782870E+03  0.00000000000E+00 0.  1.
         23    2    1    2    0    0 -0.69281179052E+03  0.45953628159E+03  0.15198782078E+04  0.17348702292E+04  0.92645424190E+02 0.  0.
         13    1    3    3    0    0 -0.53616843230E+03  0.39664619896E+03  0.11820919768E+04  0.13572568794E+04  0.00000000000E+00 0. -1.
        -13    1    3    3    0    0 -0.15664335822E+03  0.62890082628E+02  0.33778623098E+03  0.37761334988E+03  0.00000000000E+00 0.  1.
         22    1    1    2    0    0  0.69281179052E+03 -0.45953628159E+03  0.15853938403E+03  0.84634301998E+03  0.00000000000E+00 0.  1.
<mgrwt>
<rscale>  0 0.19610141E+04</rscale>
<asrwt>0</asrwt>
<pdfrwt beam="1">  1        1 0.32766390E+00 0.19610141E+04</pdfrwt>
<pdfrwt beam="2">  1       -1 0.69445821E-01 0.19610141E+04</pdfrwt>
<totfact> 0.47477956E+00</totfact>
</mgrwt>
</event>
<event>
 6    1  0.1028026E-006  0.1440907E+04  0.7818608E-02  0.8924729E-01
         -1   -1    0    0    0  501 -0.00000000000E+00  0.00000000000E+00  0.36840971783E+03  0.36840971783E+03  0.00000000000E+00 0.  1.
          1   -1    0    0  501    0  0.00000000000E+00 -0.00000000000E+00 -0.14089023861E+04  0.14089023861E+04  0.00000000000E+00 0. -1.
         23    2    1    2    0    0  0.31407567120E+03 -0.60850360849E+03 -0.25680003961E+03  0.73659393603E+03  0.87773557939E+02 0.  0.
         13    1    3    3    0    0  0.45532263332E+02 -0.17105859688E+03 -0.61341764307E+02  0.18734204712E+03  0.00000000000E+00 0.  1.
        -13    1    3    3    0    0  0.26854340787E+03 -0.43744501161E+03 -0.19545827531E+03  0.54925188892E+03  0.00000000000E+00 0. -1.
         22    1    1    2    0    0 -0.31407567120E+03  0.60850360849E+03 -0.78369262868E+03  0.10407181679E+04  0.00000000000E+00 0. -1.
<mgrwt>
<rscale>  0 0.14409071E+04</rscale>
<asrwt>0</asrwt>
<pdfrwt beam="1">  1        1 0.21675421E+00 0.14409071E+04</pdfrwt>
<pdfrwt beam="2">  1       -1 0.56678418E-01 0.14409071E+04</pdfrwt>
<totfact> 0.23190066E+01</totfact>
</mgrwt>
</event>
<event>
 6    1  0.1028026E-006  0.1211860E+04  0.7818608E-02  0.9102538E-01
         -2   -1    0    0    0  501 -0.00000000000E+00  0.00000000000E+00  0.21443032030E+03  0.21443032030E+03  0.00000000000E+00 0.  1.
          2   -1    0    0  501    0  0.00000000000E+00 -0.00000000000E+00 -0.17122174045E+04  0.17122174045E+04  0.00000000000E+00 0. -1.
         23    2    1    2    0    0 -0.38828152219E+03  0.35724000615E+03 -0.12156488954E+04  0.13283293146E+04  0.90959158618E+02 0.  0.
         11    1    3    3    0    0 -0.15437569393E+03  0.16810474650E+03 -0.42526929057E+03  0.48264379223E+03  0.00000000000E+00 0. -1.
        -11    1    3    3    0    0 -0.23390582826E+03  0.18913525965E+03 -0.79037960483E+03  0.84568552232E+03  0.00000000000E+00 0.  1.
         22    1    1    2    0    0  0.38828152219E+03 -0.35724000615E+03 -0.28213818880E+03  0.59831841025E+03  0.00000000000E+00 0.  1.
<mgrwt>
<rscale>  0 0.12118603E+04</rscale>
<asrwt>0</asrwt>
<pdfrwt beam="1">  1        2 0.26341805E+00 0.12118603E+04</pdfrwt>
<pdfrwt beam="2">  1       -2 0.32989282E-01 0.12118603E+04</pdfrwt>
<totfact> 0.81622091E+01</totfact>
</mgrwt>
</event>
<event>
 6    1  0.1028026E-006  0.3150001E+04  0.7818608E-02  0.8202148E-01
          1   -1    0    0  501    0  0.00000000000E+00  0.00000000000E+00  0.23098204578E+04  0.23098204578E+04  0.00000000000E+00 0. -1.
         -1   -1    0    0    0  501 -0.00000000000E+00 -0.00000000000E+00 -0.10739481099E+04  0.10739481099E+04  0.00000000000E+00 0.  1.
         23    2    1    2    0    0 -0.11969195301E+04  0.10042708007E+04  0.82011639742E+03  0.17669725963E+04  0.91788061006E+02 0.  0.
         13    1    3    3    0    0 -0.28797350378E+03  0.20060633246E+03  0.20894220675E+03  0.40844642887E+03  0.00000000000E+00 0.  1.
        -13    1    3    3    0    0 -0.90894602634E+03  0.80366446820E+03  0.61117419067E+03  0.13585261674E+04  0.00000000000E+00 0. -1.
         22    1    1    2    0    0  0.11969195301E+04 -0.10042708007E+04  0.41575595051E+03  0.16167959714E+04  0.00000000000E+00 0. -1.
<mgrwt>
<rscale>  0 0.31500015E+04</rscale>
<asrwt>0</asrwt>
<pdfrwt beam="1">  1        1 0.35535699E+00 0.31500015E+04</pdfrwt>
<pdfrwt beam="2">  1       -1 0.16522279E+00 0.31500015E+04</pdfrwt>
<totfact> 0.41098009E-01</totfact>
</mgrwt>
</event>
<event>
 6    1  0.1028026E-006  0.8990165E+03  0.7818608E-02  0.9426812E-01
         -2   -1    0    0    0  501 -0.00000000000E+00  0.00000000000E+00  0.10265129141E+03  0.10265129141E+03  0.00000000000E+00 0.  1.
          2   -1    0    0  501    0  0.00000000000E+00 -0.00000000000E+00 -0.19683887506E+04  0.19683887506E+04  0.00000000000E+00 0. -1.
         23    2    1    2    0    0  0.41087274257E+03  0.93626797880E+01 -0.55063019732E+03  0.69321161272E+03  0.91894806406E+02 0.  0.
         11    1    3    3    0    0  0.24864522178E+03  0.48690504916E+02 -0.31037992079E+03  0.40066308392E+03  0.00000000000E+00 0. -1.
        -11    1    3    3    0    0  0.16222752079E+03 -0.39327825128E+02 -0.24025027653E+03  0.29254852880E+03  0.00000000000E+00 0.  1.
         22    1    1    2    0    0 -0.41087274257E+03 -0.93626797880E+01 -0.13151072619E+04  0.13778284293E+04  0.00000000000E+00 0.  1.
<mgrwt>
<rscale>  0 0.89901646E+03</rscale>
<asrwt>0</asrwt>
<pdfrwt beam="1">  1        2 0.30282901E+00 0.89901646E+03</pdfrwt>
<pdfrwt beam="2">  1       -2 0.15792508E-01 0.89901646E+03</pdfrwt>
<totfact> 0.22584842E+02</totfact>
</mgrwt>
</event>
<event>
 6    1  0.1028026E-006  0.4765834E+04  0.7818608E-02  0.7865681E-01
          1   -1    0    0  501    0  0.00000000000E+00  0.00000000000E+00  0.19722549899E+04  0.19722549899E+04  0.00000000000E+00 0. -1.
         -1   -1    0    0    0  501 -0.00000000000E+00 -0.00000000000E+00 -0.28790866037E+04  0.28790866037E+04  0.00000000000E+00 0.  1.
         23    2    1    2    0    0 -0.12972993842E+04 -0.13013085499E+04 -0.19965937993E+04  0.27149962903E+04  0.91806444264E+02 0.  0.
         11    1    3    3    0    0 -0.40035361068E+03 -0.45460838587E+03 -0.62614715799E+03  0.87121298289E+03  0.00000000000E+00 0. -1.
        -11    1    3    3    0    0 -0.89694577349E+03 -0.84670016400E+03 -0.13704466413E+04  0.18437833075E+04  0.00000000000E+00 0.  1.
         22    1    1    2    0    0  0.12972993842E+04  0.13013085499E+04  0.10897621855E+04  0.21363453033E+04  0.00000000000E+00 0. -1.
<mgrwt>
<rscale>  0 0.47658338E+04</rscale>
<asrwt>0</asrwt>
<pdfrwt beam="1">  1        1 0.30342384E+00 0.47658338E+04</pdfrwt>
<pdfrwt beam="2">  1       -1 0.44293640E+00 0.47658338E+04</pdfrwt>
<totfact> 0.82969427E-03</totfact>
</mgrwt>
</event>
<event>
 6    1  0.1028026E-006  0.5193753E+04  0.7818608E-02  0.7799295E-01
         -2   -1    0    0    0  501 -0.00000000000E+00  0.00000000000E+00  0.22386889208E+04  0.22386889208E+04  0.00000000000E+00 0.  1.
          2   -1    0    0  501    0  0.00000000000E+00 -0.00000000000E+00 -0.30123732178E+04  0.30123732178E+04  0.00000000000E+00 0. -1.
         23    2    1    2    0    0 -0.75203720828E+02  0.22735507742E+04  0.87813844306E+03  0.24397978168E+04  0.82447190787E+02 0.  0.
         11    1    3    3    0    0 -0.80814823609E+02  0.12687117597E+04  0.50436973206E+03  0.13676802958E+04  0.00000000000E+00 0.  1.
        -11    1    3    3    0    0  0.56111027808E+01  0.10048390145E+04  0.37376871099E+03  0.10721175210E+04  0.00000000000E+00 0. -1.
         22    1    1    2    0    0  0.75203720828E+02 -0.22735507742E+04 -0.16518227400E+04  0.28112643218E+04  0.00000000000E+00 0. -1.
<mgrwt>
<rscale>  0 0.51937526E+04</rscale>
<asrwt>0</asrwt>
<pdfrwt beam="1">  1        2 0.46344203E+00 0.51937526E+04</pdfrwt>
<pdfrwt beam="2">  1       -2 0.34441368E+00 0.51937526E+04</pdfrwt>
<totfact> 0.20676994E-02</totfact>
</mgrwt>
</event>
<event>
 6    1  0.1028026E-006  0.1024928E+04  0.7818608E-02  0.9281619E-01
          2   -1    0    0  501    0  0.00000000000E+00  0.00000000000E+00  0.17488683218E+03  0.17488683218E+03  0.00000000000E+00 0. -1.
         -2   -1    0    0    0  501 -0.00000000000E+00 -0.00000000000E+00 -0.15016528500E+04  0.15016528500E+04  0.00000000000E+00 0.  1.
         23    2    1    2    0    0 -0.21234109384E+03  0.91645741539E+02  0.71173933288E+02  0.25959797944E+03  0.94009042507E+02 0.  0.
         11    1    3    3    0    0 -0.48009580713E+02  0.49245721654E+02  0.56942700945E+02  0.89289037022E+02  0.00000000000E+00 0. -1.
        -11    1    3    3    0    0 -0.16433151313E+03  0.42400019885E+02  0.14231232343E+02  0.17030894242E+03  0.00000000000E+00 0.  1.
         22    1    1    2    0    0  0.21234109384E+03 -0.91645741539E+02 -0.13979399511E+04  0.14169417027E+04  0.00000000000E+00 0.  1.
<mgrwt>
<rscale>  0 0.10249279E+04</rscale>
<asrwt>0</asrwt>
<pdfrwt beam="1">  1        2 0.26905666E-01 0.10249279E+04</pdfrwt>
<pdfrwt beam="2">  1       -2 0.23102352E+00 0.10249279E+04</pdfrwt>
<totfact> 0.16997701E+01</totfact>
</mgrwt>
</event>
<event>
 6    1  0.1056320E-006  0.4926169E+04  0.7818608E-02  0.7839998E-01
          1   -1    0    0  501    0  0.00000000000E+00  0.00000000000E+00  0.22456943368E+04  0.22456943368E+04  0.00000000000E+00 0. -1.
         -1   -1    0    0    0  501 -0.00000000000E+00 -0.00000000000E+00 -0.27015182598E+04  0.27015182598E+04  0.00000000000E+00 0.  1.
         23    2    1    2    0    0  0.18599459983E+03 -0.19787318934E+04  0.12316745002E+04  0.23399870932E+04  0.92431731323E+02 0.  0.
         11    1    3    3    0    0  0.77927618541E+02 -0.63921773717E+03  0.35299688263E+03  0.73435606377E+03  0.00000000000E+00 0.  1.
        -11    1    3    3    0    0  0.10806698129E+03 -0.13395141562E+04  0.87867761755E+03  0.16056310294E+04  0.00000000000E+00 0. -1.
         22    1    1    2    0    0 -0.18599459983E+03  0.19787318934E+04 -0.16874984232E+04  0.26072255033E+04  0.00000000000E+00 0.  1.
<mgrwt>
<rscale>  0 0.49261686E+04</rscale>
<asrwt>0</asrwt>
<pdfrwt beam="1">  1        1 0.34549144E+00 0.49261686E+04</pdfrwt>
<pdfrwt beam="2">  1       -1 0.41561819E+00 0.49261686E+04</pdfrwt>
<totfact> 0.82348176E-03</totfact>
</mgrwt>
</event>
<event>
 6    1  0.1028026E-006  0.1461354E+04  0.7818608E-02  0.8910567E-01
          2   -1    0    0  501    0  0.00000000000E+00  0.00000000000E+00  0.17222423754E+04  0.17222423754E+04  0.00000000000E+00 0. -1.
         -2   -1    0    0    0  501 -0.00000000000E+00 -0.00000000000E+00 -0.30999630532E+03  0.30999630532E+03  0.00000000000E+00 0.  1.
         23    2    1    2    0    0 -0.66610155658E+03 -0.22459970796E+03  0.97132151101E+03  0.12024490813E+04  0.91005510286E+02 0.  0.
         11    1    3    3    0    0 -0.54340702942E+03 -0.18168621400E+03  0.72647204574E+03  0.92523657149E+03  0.00000000000E+00 0. -1.
        -11    1    3    3    0    0 -0.12269452716E+03 -0.42913493961E+02  0.24484946527E+03  0.27721250982E+03  0.00000000000E+00 0.  1.
         22    1    1    2    0    0  0.66610155658E+03  0.22459970796E+03  0.44092455909E+03  0.82978959942E+03  0.00000000000E+00 0.  1.
<mgrwt>
<rscale>  0 0.14613539E+04</rscale>
<asrwt>0</asrwt>
<pdfrwt beam="1">  1        2 0.26496036E+00 0.14613539E+04</pdfrwt>
<pdfrwt beam="2">  1       -2 0.47691740E-01 0.14613539E+04</pdfrwt>
<totfact> 0.38472566E+01</totfact>
</mgrwt>
</event>
<event>
 6    1  0.1201543E-006  0.1651820E+04  0.7818608E-02  0.8789331E-01
          1   -1    0    0  501    0  0.00000000000E+00  0.00000000000E+00  0.69700807283E+03  0.69700807283E+03  0.00000000000E+00 0. -1.
         -1   -1    0    0    0  501 -0.00000000000E+00 -0.00000000000E+00 -0.97865000414E+03  0.97865000414E+03  0.00000000000E+00 0.  1.
         23    2    1    2    0    0  0.38337161504E+02  0.59922450041E+03  0.43201060286E+03  0.74300611650E+03  0.69894122201E+02 0.  0.
         13    1    3    3    0    0 -0.64414236171E+01  0.38983602284E+03  0.29309301292E+03  0.48776749673E+03  0.00000000000E+00 0. -1.
        -13    1    3    3    0    0  0.44778585121E+02  0.20938847757E+03  0.13891758994E+03  0.25523861976E+03  0.00000000000E+00 0.  1.
         22    1    1    2    0    0 -0.38337161504E+02 -0.59922450041E+03 -0.71365253417E+03  0.93265196047E+03  0.00000000000E+00 0.  1.
<mgrwt>
<rscale>  0 0.16518195E+04</rscale>
<asrwt>0</asrwt>
<pdfrwt beam="1">  1        1 0.10723201E+00 0.16518195E+04</pdfrwt>
<pdfrwt beam="2">  1       -1 0.15056154E+00 0.16518195E+04</pdfrwt>
<totfact> 0.90501516E+00</totfact>
</mgrwt>
</event>
<event>
 6    1  0.1028026E-006  0.1832996E+04  0.7818608E-02  0.8688947E-01
          1   -1    0    0  501    0  0.00000000000E+00  0.00000000000E+00  0.14322053266E+04  0.14322053266E+04  0.00000000000E+00 0. -1.
         -1   -1    0    0    0  501 -0.00000000000E+00 -0.00000000000E+00 -0.58648643942E+03  0.58648643942E+03  0.00000000000E+00 0.  1.
         23    2    1    2    0    0  0.87641169499E+03 -0.16914243183E+03  0.20575436490E+03  0.92039253030E+03  0.89893991915E+02 0.  0.
         11    1    3    3    0    0  0.22575026841E+03 -0.73288316589E+02  0.27203580068E+02  0.23890248178E+03  0.00000000000E+00 0.  1.
        -11    1    3    3    0    0  0.65066142659E+03 -0.95854115241E+02  0.17855078483E+03  0.68149004851E+03  0.00000000000E+00 0. -1.
         22    1    1    2    0    0 -0.87641169499E+03  0.16914243183E+03  0.63996452224E+03  0.10982992357E+04  0.00000000000E+00 0. -1.
<mgrwt>
<rscale>  0 0.18329965E+04</rscale>
<asrwt>0</asrwt>
<pdfrwt beam="1">  1        1 0.22033928E+00 0.18329965E+04</pdfrwt>
<pdfrwt beam="2">  1       -1 0.90228684E-01 0.18329965E+04</pdfrwt>
<totfact> 0.82432871E+00</totfact>
</mgrwt>
</event>
<event>
 6    1  0.1028026E-006  0.5203103E+04  0.7818608E-02  0.7797918E-01
          2   -1    0    0  501    0  0.00000000000E+00  0.00000000000E+00  0.13653057667E+04  0.13653057667E+04  0.00000000000E+00 0. -1.
         -2   -1    0    0    0  501 -0.00000000000E+00 -0.00000000000E+00 -0.49571823503E+04  0.49571823503E+04  0.00000000000E+00 0.  1.
         23    2    1    2    0    0 -0.43778028542E+03 -0.20084346291E+04 -0.37324971071E+04  0.42620912210E+04  0.91791524640E+02 0.  0.
         11    1    3    3    0    0 -0.16726035855E+03 -0.97473995637E+03 -0.17685512280E+04  0.20262940202E+04  0.00000000000E+00 0. -1.
        -11    1    3    3    0    0 -0.27051992687E+03 -0.10336946727E+04 -0.19639458790E+04  0.22357972008E+04  0.00000000000E+00 0.  1.
         22    1    1    2    0    0  0.43778028542E+03  0.20084346291E+04  0.14062052341E+03  0.20603968960E+04  0.00000000000E+00 0. -1.
<mgrwt>
<rscale>  0 0.52031028E+04</rscale>
<asrwt>0</asrwt>
<pdfrwt beam="1">  1        2 0.21004704E+00 0.52031028E+04</pdfrwt>
<pdfrwt beam="2">  1       -2 0.76264344E+00 0.52031028E+04</pdfrwt>
<totfact> 0.13659791E-03</totfact>
</mgrwt>
</event>
<event>
 6    1  0.1028026E-006  0.3201589E+04  0.7818608E-02  0.8188398E-01
          2   -1    0    0  501    0  0.00000000000E+00  0.00000000000E+00  0.28902795611E+04  0.28902795611E+04  0.00000000000E+00 0. -1.
         -2   -1    0    0    0  501 -0.00000000000E+00 -0.00000000000E+00 -0.88660752730E+03  0.88660752730E+03  0.00000000000E+00 0.  1.
         23    2    1    2    0    0 -0.12526460018E+04  0.70368407383E+03  0.17340502673E+03  0.14500500510E+04  0.91008601889E+02 0.  0.
         11    1    3    3    0    0 -0.81860718378E+03  0.45785397128E+03  0.15670960830E+03  0.95094998906E+03  0.00000000000E+00 0. -1.
        -11    1    3    3    0    0 -0.43403881798E+03  0.24583010255E+03  0.16695418426E+02  0.49910006194E+03  0.00000000000E+00 0.  1.
         22    1    1    2    0    0  0.12526460018E+04 -0.70368407383E+03  0.18302670071E+04  0.23268370374E+04  0.00000000000E+00 0. -1.
<mgrwt>
<rscale>  0 0.32015894E+04</rscale>
<asrwt>0</asrwt>
<pdfrwt beam="1">  1        2 0.44465839E+00 0.32015894E+04</pdfrwt>
<pdfrwt beam="2">  1       -2 0.13640116E+00 0.32015894E+04</pdfrwt>
<totfact> 0.65854842E-01</totfact>
</mgrwt>
</event>
<event>
 6    1  0.1028026E-006  0.4532307E+03  0.7818608E-02  0.1026763E+00
         -2   -1    0    0    0  501 -0.00000000000E+00  0.00000000000E+00  0.43273958869E+02  0.43273958869E+02  0.00000000000E+00 0.  1.
          2   -1    0    0  501    0  0.00000000000E+00 -0.00000000000E+00 -0.11867304117E+04  0.11867304117E+04  0.00000000000E+00 0. -1.
         23    2    1    2    0    0 -0.84791696666E+02  0.16778895862E+03 -0.31666143774E+03  0.38210534153E+03  0.10191790530E+03 0.  0.
         11    1    3    3    0    0 -0.40422101096E+02  0.16005902443E+03 -0.27504158128E+03  0.32078140375E+03  0.00000000000E+00 0. -1.
        -11    1    3    3    0    0 -0.44369595569E+02  0.77299341853E+01 -0.41619856460E+02  0.61323937783E+02  0.00000000000E+00 0.  1.
         22    1    1    2    0    0  0.84791696666E+02 -0.16778895862E+03 -0.82679501510E+03  0.84789902905E+03  0.00000000000E+00 0. -1.
<mgrwt>
<rscale>  0 0.45323073E+03</rscale>
<asrwt>0</asrwt>
<pdfrwt beam="1">  1        2 0.18257392E+00 0.45323073E+03</pdfrwt>
<pdfrwt beam="2">  1       -2 0.66575317E-02 0.45323073E+03</pdfrwt>
<totfact> 0.25639115E+03</totfact>
</mgrwt>
</event>
<event>
 6    1  0.1057753E-006  0.4241735E+04  0.7818608E-02  0.7957480E-01
          2   -1    0    0  501    0  0.00000000000E+00  0.00000000000E+00  0.32417877388E+04  0.32417877388E+04  0.00000000000E+00 0. -1.
         -2   -1    0    0    0  501 -0.00000000000E+00 -0.00000000000E+00 -0.13875306326E+04  0.13875306326E+04  0.00000000000E+00 0.  1.
         23    2    1    2    0    0  0.17894264604E+04 -0.23039144347E+03  0.21423065479E+04  0.28022716410E+04  0.90120642425E+02 0.  0.
         11    1    3    3    0    0  0.52567757535E+03 -0.10095526338E+03  0.67361894824E+03  0.86040186300E+03  0.00000000000E+00 0. -1.
        -11    1    3    3    0    0  0.12637488850E+04 -0.12943618009E+03  0.14686875997E+04  0.19418697780E+04  0.00000000000E+00 0.  1.
         22    1    1    2    0    0 -0.17894264604E+04  0.23039144347E+03 -0.28804944172E+03  0.18270467304E+04  0.00000000000E+00 0.  1.
<mgrwt>
<rscale>  0 0.42417354E+04</rscale>
<asrwt>0</asrwt>
<pdfrwt beam="1">  1        2 0.49873657E+00 0.42417354E+04</pdfrwt>
<pdfrwt beam="2">  1       -2 0.21346625E+00 0.42417354E+04</pdfrwt>
<totfact> 0.10234725E-01</totfact>
</mgrwt>
</event>
<event>
 6    1  0.1028026E-006  0.4812577E+04  0.7818608E-02  0.7858088E-01
          2   -1    0    0  501    0  0.00000000000E+00  0.00000000000E+00  0.33230751129E+04  0.33230751129E+04  0.00000000000E+00 0. -1.
         -2   -1    0    0    0  501 -0.00000000000E+00 -0.00000000000E+00 -0.17424292855E+04  0.17424292855E+04  0.00000000000E+00 0.  1.
         23    2    1    2    0    0  0.64096667432E+03 -0.11786701767E+04 -0.13107822359E+04  0.18779570798E+04  0.92038365447E+02 0.  0.
         13    1    3    3    0    0  0.21184759157E+03 -0.37348606939E+03 -0.36152811176E+03  0.56131436974E+03  0.00000000000E+00 0. -1.
        -13    1    3    3    0    0  0.42911908275E+03 -0.80518410728E+03 -0.94925412418E+03  0.13166427101E+04  0.00000000000E+00 0.  1.
         22    1    1    2    0    0 -0.64096667432E+03  0.11786701767E+04  0.28914280633E+04  0.31875473186E+04  0.00000000000E+00 0. -1.
<mgrwt>
<rscale>  0 0.48125766E+04</rscale>
<asrwt>0</asrwt>
<pdfrwt beam="1">  1        2 0.51124232E+00 0.48125766E+04</pdfrwt>
<pdfrwt beam="2">  1       -2 0.26806604E+00 0.48125766E+04</pdfrwt>
<totfact> 0.39506209E-02</totfact>
</mgrwt>
</event>
<event>
 6    1  0.1028026E-006  0.1250745E+04  0.7818608E-02  0.9069564E-01
          2   -1    0    0  501    0  0.00000000000E+00  0.00000000000E+00  0.35932796070E+04  0.35932796070E+04  0.00000000000E+00 0. -1.
         -2   -1    0    0    0  501 -0.00000000000E+00 -0.00000000000E+00 -0.10883943907E+03  0.10883943907E+03  0.00000000000E+00 0.  1.
         23    2    1    2    0    0  0.33091173223E+03  0.52408974969E+03  0.19090827975E+04  0.20092151844E+04  0.90420624442E+02 0.  0.
         11    1    3    3    0    0  0.28722923474E+02  0.99060887954E+02  0.26320593674E+03  0.28269317464E+03  0.00000000000E+00 0.  1.
        -11    1    3    3    0    0  0.30218880876E+03  0.42502886174E+03  0.16458768608E+04  0.17265220098E+04  0.00000000000E+00 0. -1.
         22    1    1    2    0    0 -0.33091173223E+03 -0.52408974969E+03  0.15753573705E+04  0.16929038617E+04  0.00000000000E+00 0. -1.
<mgrwt>
<rscale>  0 0.12507446E+04</rscale>
<asrwt>0</asrwt>
<pdfrwt beam="1">  1        2 0.55281216E+00 0.12507446E+04</pdfrwt>
<pdfrwt beam="2">  1       -2 0.16744532E-01 0.12507446E+04</pdfrwt>
<totfact> 0.20496582E+01</totfact>
</mgrwt>
</event>
<event>
 6    1  0.1028026E-006  0.1876808E+04  0.7818608E-02  0.8666487E-01
          1   -1    0    0  501    0  0.00000000000E+00  0.00000000000E+00  0.21314487457E+04  0.21314487457E+04  0.00000000000E+00 0. -1.
         -1   -1    0    0    0  501 -0.00000000000E+00 -0.00000000000E+00 -0.41314717207E+03  0.41314717207E+03  0.00000000000E+00 0.  1.
         23    2    1    2    0    0  0.17182963250E+03 -0.24428521794E+03  0.20641313402E+04  0.20876507156E+04  0.91905551601E+02 0.  0.
         13    1    3    3    0    0  0.65939904353E+02 -0.31174684375E+02  0.57878716750E+03  0.58336482342E+03  0.00000000000E+00 0.  1.
        -13    1    3    3    0    0  0.10588972814E+03 -0.21311053357E+03  0.14853441727E+04  0.15042858922E+04  0.00000000000E+00 0. -1.
         22    1    1    2    0    0 -0.17182963250E+03  0.24428521794E+03 -0.34582976659E+03  0.45694520215E+03  0.00000000000E+00 0.  1.
<mgrwt>
<rscale>  0 0.18768080E+04</rscale>
<asrwt>0</asrwt>
<pdfrwt beam="1">  1        1 0.32791519E+00 0.18768080E+04</pdfrwt>
<pdfrwt beam="2">  1       -1 0.63561105E-01 0.18768080E+04</pdfrwt>
<totfact> 0.57100569E+00</totfact>
</mgrwt>
</event>
<event>
 6    1  0.1028026E-006  0.1111555E+04  0.7818608E-02  0.9194002E-01
         -1   -1    0    0    0  501 -0.00000000000E+00  0.00000000000E+00  0.34130524468E+03  0.34130524468E+03  0.00000000000E+00 0.  1.
          1   -1    0    0  501    0  0.00000000000E+00 -0.00000000000E+00 -0.90502179779E+03  0.90502179779E+03  0.00000000000E+00 0. -1.
         23    2    1    2    0    0  0.50058133877E+03  0.30546752304E+02 -0.54227316862E+03  0.74435632665E+03  0.92148634318E+02 0.  0.
         11    1    3    3    0    0  0.12348607634E+03 -0.31337331763E+02 -0.12352828408E+03  0.17745443465E+03  0.00000000000E+00 0. -1.
        -11    1    3    3    0    0  0.37709526244E+03  0.61884084066E+02 -0.41874488454E+03  0.56690189199E+03  0.00000000000E+00 0.  1.
         22    1    1    2    0    0 -0.50058133877E+03 -0.30546752304E+02 -0.21443384493E+02  0.50197071582E+03  0.00000000000E+00 0.  1.
<mgrwt>
<rscale>  0 0.11115551E+04</rscale>
<asrwt>0</asrwt>
<pdfrwt beam="1">  1        1 0.13923412E+00 0.11115551E+04</pdfrwt>
<pdfrwt beam="2">  1       -1 0.52508500E-01 0.11115551E+04</pdfrwt>
<totfact> 0.65575850E+01</totfact>
</mgrwt>
</event>
<event>
 6    1  0.1028026E-006  0.1718046E+04  0.7818608E-02  0.8751138E-01
         -2   -1    0    0    0  501 -0.00000000000E+00  0.00000000000E+00  0.46496943679E+03  0.46496943679E+03  0.00000000000E+00 0.  1.
          2   -1    0    0  501    0  0.00000000000E+00 -0.00000000000E+00 -0.15870305682E+04  0.15870305682E+04  0.00000000000E+00 0. -1.
         23    2    1    2    0    0 -0.50351141226E+03  0.21368226173E+03  0.22428914991E+03  0.59878187573E+03  0.95132858044E+02 0.  0.
         11    1    3    3    0    0 -0.19167441047E+03  0.12791286690E+03  0.11386526323E+03  0.25703322610E+03  0.00000000000E+00 0. -1.
        -11    1    3    3    0    0 -0.31183700179E+03  0.85769394824E+02  0.11042388668E+03  0.34174864962E+03  0.00000000000E+00 0.  1.
         22    1    1    2    0    0  0.50351141226E+03 -0.21368226173E+03 -0.13463502814E+04  0.14532181293E+04  0.00000000000E+00 0. -1.
<mgrwt>
<rscale>  0 0.17180462E+04</rscale>
<asrwt>0</asrwt>
<pdfrwt beam="1">  1        2 0.24415855E+00 0.17180462E+04</pdfrwt>
<pdfrwt beam="2">  1       -2 0.71533759E-01 0.17180462E+04</pdfrwt>
<totfact> 0.19099760E+01</totfact>
</mgrwt>
</event>
<event>
 6    1  0.1028026E-006  0.2436277E+04  0.7818608E-02  0.8426046E-01
         -1   -1    0    0    0  501 -0.00000000000E+00  0.00000000000E+00  0.10154450633E+04  0.10154450633E+04  0.00000000000E+00 0.  1.
          1   -1    0    0  501    0  0.00000000000E+00 -0.00000000000E+00 -0.14612915984E+04  0.14612915984E+04  0.00000000000E+00 0. -1.
         23    2    1    2    0    0 -0.16895557043E+03  0.10769570723E+04  0.32597929098E+03  0.11410354877E+04  0.85539264764E+02 0.  0.
         11    1    3    3    0    0 -0.72480928219E+02  0.41483968163E+03  0.83343839193E+02  0.42929202409E+03  0.00000000000E+00 0. -1.
        -11    1    3    3    0    0 -0.96474642210E+02  0.66211739065E+03  0.24263545178E+03  0.71174346365E+03  0.00000000000E+00 0.  1.
         22    1    1    2    0    0  0.16895557043E+03 -0.10769570723E+04 -0.77182582613E+03  0.13357011740E+04  0.00000000000E+00 0. -1.
<mgrwt>
<rscale>  0 0.24362769E+04</rscale>
<asrwt>0</asrwt>
<pdfrwt beam="1">  1        1 0.22481409E+00 0.24362769E+04</pdfrwt>
<pdfrwt beam="2">  1       -1 0.15622232E+00 0.24362769E+04</pdfrwt>
<totfact> 0.19417928E+00</totfact>
</mgrwt>
</event>
<event>
 6    1  0.1028026E-006  0.2132629E+04  0.7818608E-02  0.8547005E-01
         -1   -1    0    0    0  501 -0.00000000000E+00  0.00000000000E+00  0.44738173628E+03  0.44738173628E+03  0.00000000000E+00 0.  1.
          1   -1    0    0  501    0  0.00000000000E+00 -0.00000000000E+00 -0.25415129732E+04  0.25415129732E+04  0.00000000000E+00 0. -1.
         23    2    1    2    0    0 -0.90845399769E+03  0.11239926519E+03 -0.28783491296E+03  0.96389380315E+03  0.91214395289E+02 0.  0.
         11    1    3    3    0    0 -0.34505714594E+03  0.17219150155E+02 -0.70696536990E+02  0.35264562019E+03  0.00000000000E+00 0.  1.
        -11    1    3    3    0    0 -0.56339685175E+03  0.95180115035E+02 -0.21713837597E+03  0.61124818297E+03  0.00000000000E+00 0. -1.
         22    1    1    2    0    0  0.90845399769E+03 -0.11239926519E+03 -0.18062963240E+04  0.20250009064E+04  0.00000000000E+00 0.  1.
<mgrwt>
<rscale>  0 0.21326289E+04</rscale>
<asrwt>0</asrwt>
<pdfrwt beam="1">  1        1 0.39100200E+00 0.21326289E+04</pdfrwt>
<pdfrwt beam="2">  1       -1 0.68827959E-01 0.21326289E+04</pdfrwt>
<totfact> 0.24836752E+00</totfact>
</mgrwt>
</event>
<event>
 6    1  0.1028026E-006  0.4427412E+04  0.7818608E-02  0.7923470E-01
         -2   -1    0    0    0  501 -0.00000000000E+00  0.00000000000E+00  0.21715255235E+04  0.21715255235E+04  0.00000000000E+00 0.  1.
          2   -1    0    0  501    0  0.00000000000E+00 -0.00000000000E+00 -0.22567053852E+04  0.22567053852E+04  0.00000000000E+00 0. -1.
         23    2    1    2    0    0 -0.51681408226E+03  0.18490434150E+04  0.10575210961E+04  0.21939919276E+04  0.95871599689E+02 0.  0.
         11    1    3    3    0    0 -0.26328803351E+03  0.82652804444E+03  0.43631227567E+03  0.97099824858E+03  0.00000000000E+00 0. -1.
        -11    1    3    3    0    0 -0.25352604875E+03  0.10225153705E+04  0.62120882040E+03  0.12229936790E+04  0.00000000000E+00 0.  1.
         22    1    1    2    0    0  0.51681408226E+03 -0.18490434150E+04 -0.11427009578E+04  0.22342389812E+04  0.00000000000E+00 0. -1.
<mgrwt>
<rscale>  0 0.44274116E+04</rscale>
<asrwt>0</asrwt>
<pdfrwt beam="1">  1        2 0.34718544E+00 0.44274116E+04</pdfrwt>
<pdfrwt beam="2">  1       -2 0.33408085E+00 0.44274116E+04</pdfrwt>
<totfact> 0.71582248E-02</totfact>
</mgrwt>
</event>
<event>
 6    1  0.1028026E-006  0.4508780E+04  0.7818608E-02  0.7909102E-01
         -2   -1    0    0    0  501 -0.00000000000E+00  0.00000000000E+00  0.14816505727E+04  0.14816505727E+04  0.00000000000E+00 0.  1.
          2   -1    0    0  501    0  0.00000000000E+00 -0.00000000000E+00 -0.34301432663E+04  0.34301432663E+04  0.00000000000E+00 0. -1.
         23    2    1    2    0    0 -0.10179576648E+04  0.15824337674E+04  0.37611942800E+03  0.19211156632E+04  0.94260976515E+02 0.  0.
         11    1    3    3    0    0 -0.57857708683E+02  0.78481354504E+02 -0.56652965946E+00  0.97504658425E+02  0.00000000000E+00 0. -1.
        -11    1    3    3    0    0 -0.96009995609E+03  0.15039524129E+04  0.37668595766E+03  0.18236110048E+04  0.00000000000E+00 0.  1.
         22    1    1    2    0    0  0.10179576648E+04 -0.15824337674E+04 -0.23246121216E+04  0.29906781758E+04  0.00000000000E+00 0. -1.
<mgrwt>
<rscale>  0 0.45087798E+04</rscale>
<asrwt>0</asrwt>
<pdfrwt beam="1">  1        2 0.52771434E+00 0.45087798E+04</pdfrwt>
<pdfrwt beam="2">  1       -2 0.22794624E+00 0.45087798E+04</pdfrwt>
<totfact> 0.60520352E-02</totfact>
</mgrwt>
</event>
<event>
 6    1  0.1028026E-006  0.9841596E+03  0.7818608E-02  0.9326091E-01
          2   -1    0    0  501    0  0.00000000000E+00  0.00000000000E+00  0.15035935629E+04  0.15035935629E+04  0.00000000000E+00 0. -1.
         -2   -1    0    0    0  501 -0.00000000000E+00 -0.00000000000E+00 -0.16104253934E+03  0.16104253934E+03  0.00000000000E+00 0.  1.
         23    2    1    2    0    0 -0.12330918138E+03 -0.42631277099E+03  0.10178719705E+04  0.11147595521E+04  0.98375696677E+02 0.  0.
         11    1    3    3    0    0  0.24060027625E+01 -0.10233550779E+03  0.30449479530E+03  0.32124044790E+03  0.00000000000E+00 0.  1.
        -11    1    3    3    0    0 -0.12571518414E+03 -0.32397726320E+03  0.71337717521E+03  0.79351910418E+03  0.00000000000E+00 0. -1.
         22    1    1    2    0    0  0.12330918138E+03  0.42631277099E+03  0.32467905306E+03  0.54987655016E+03  0.00000000000E+00 0.  1.
<mgrwt>
<rscale>  0 0.98415959E+03</rscale>
<asrwt>0</asrwt>
<pdfrwt beam="1">  1        2 0.23132208E+00 0.98415959E+03</pdfrwt>
<pdfrwt beam="2">  1       -2 0.24775776E-01 0.98415959E+03</pdfrwt>
<totfact> 0.18394847E+02</totfact>
</mgrwt>
</event>
<event>
 6    1  0.1028026E-006  0.3431328E+04  0.7818608E-02  0.8130260E-01
         -1   -1    0    0    0  501 -0.00000000000E+00  0.00000000000E+00  0.14581010691E+04  0.14581010691E+04  0.00000000000E+00 0.  1.
          1   -1    0    0  501    0  0.00000000000E+00 -0.00000000000E+00 -0.20187241102E+04  0.20187241102E+04  0.00000000000E+00 0. -1.
         23    2    1    2    0    0 -0.14924421988E+04  0.72980700950E+03  0.14852588721E+03  0.16704768766E+04  0.91820848267E+02 0.  0.
         11    1    3    3    0    0 -0.28260057899E+03  0.17166948116E+03  0.50581174112E+02  0.33450254586E+03  0.00000000000E+00 0. -1.
        -11    1    3    3    0    0 -0.12098416198E+04  0.55813752834E+03  0.97944713101E+02  0.13359743308E+04  0.00000000000E+00 0.  1.
         22    1    1    2    0    0  0.14924421988E+04 -0.72980700950E+03 -0.70914892839E+03  0.18063483027E+04  0.00000000000E+00 0. -1.
<mgrwt>
<rscale>  0 0.34313285E+04</rscale>
<asrwt>0</asrwt>
<pdfrwt beam="1">  1        1 0.31057294E+00 0.34313285E+04</pdfrwt>
<pdfrwt beam="2">  1       -1 0.22432324E+00 0.34313285E+04</pdfrwt>
<totfact> 0.24452366E-01</totfact>
</mgrwt>
</event>
<event>
 6    1  0.1028026E-006  0.2584168E+04  0.7818608E-02  0.8373599E-01
          3   -1    0    0  501    0  0.00000000000E+00  0.00000000000E+00  0.95202190086E+03  0.95202190086E+03  0.00000000000E+00 0. -1.
         -3   -1    0    0    0  501 -0.00000000000E+00 -0.00000000000E+00 -0.17536160000E+04  0.17536160000E+04  0.00000000000E+00 0.  1.
         23    2    1    2    0    0 -0.82104081582E+03 -0.74691526759E+03 -0.10905708239E+04  0.15586862952E+04  0.90375918533E+02 0.  0.
         11    1    3    3    0    0 -0.60598919001E+03 -0.60005368922E+03 -0.85289845398E+03  0.12061190245E+04  0.00000000000E+00 0.  1.
        -11    1    3    3    0    0 -0.21505162582E+03 -0.14686157837E+03 -0.23767236997E+03  0.35256727077E+03  0.00000000000E+00 0. -1.
         22    1    1    2    0    0  0.82104081582E+03  0.74691526759E+03  0.28897672481E+03  0.11469516056E+04  0.00000000000E+00 0. -1.
<mgrwt>
<rscale>  0 0.25841678E+04</rscale>
<asrwt>0</asrwt>
<pdfrwt beam="1">  1        3 0.14646491E+00 0.25841678E+04</pdfrwt>
<pdfrwt beam="2">  1       -3 0.26978707E+00 0.25841678E+04</pdfrwt>
<totfact> 0.44634682E-02</totfact>
</mgrwt>
</event>
<event>
 6    1  0.1028026E-006  0.2511765E+04  0.7818608E-02  0.8398806E-01
          1   -1    0    0  501    0  0.00000000000E+00  0.00000000000E+00  0.15777722089E+04  0.15777722089E+04  0.00000000000E+00 0. -1.
         -1   -1    0    0    0  501 -0.00000000000E+00 -0.00000000000E+00 -0.99966339218E+03  0.99966339218E+03  0.00000000000E+00 0.  1.
         23    2    1    2    0    0  0.51130484031E+03  0.11312766450E+04  0.10643736030E+03  0.12493943931E+04  0.91858317584E+02 0.  0.
         13    1    3    3    0    0  0.17032633112E+03  0.35229915680E+03  0.75273530926E+02  0.39848696266E+03  0.00000000000E+00 0.  1.
        -13    1    3    3    0    0  0.34097850918E+03  0.77897748823E+03  0.31163829379E+02  0.85090743043E+03  0.00000000000E+00 0. -1.
         22    1    1    2    0    0 -0.51130484031E+03 -0.11312766450E+04  0.47167145639E+03  0.13280412080E+04  0.00000000000E+00 0. -1.
<mgrwt>
<rscale>  0 0.25117652E+04</rscale>
<asrwt>0</asrwt>
<pdfrwt beam="1">  1        1 0.24273419E+00 0.25117652E+04</pdfrwt>
<pdfrwt beam="2">  1       -1 0.15379437E+00 0.25117652E+04</pdfrwt>
<totfact> 0.16724681E+00</totfact>
</mgrwt>
</event>
<event>
 6    1  0.1028026E-006  0.2485191E+04  0.7818608E-02  0.8408280E-01
         -2   -1    0    0    0  501 -0.00000000000E+00  0.00000000000E+00  0.13553049653E+04  0.13553049653E+04  0.00000000000E+00 0.  1.
          2   -1    0    0  501    0  0.00000000000E+00 -0.00000000000E+00 -0.11392595189E+04  0.11392595189E+04  0.00000000000E+00 0. -1.
         23    2    1    2    0    0 -0.83471046995E+03  0.87403495297E+03  0.39134837154E+03  0.12733315895E+04  0.86839629592E+02 0.  0.
         13    1    3    3    0    0 -0.46232847449E+03  0.51069529727E+03  0.18198824540E+03  0.71251457981E+03  0.00000000000E+00 0. -1.
        -13    1    3    3    0    0 -0.37238199546E+03  0.36333965570E+03  0.20936012614E+03  0.56081700969E+03  0.00000000000E+00 0.  1.
         22    1    1    2    0    0  0.83471046995E+03 -0.87403495297E+03 -0.17530292517E+03  0.12212328948E+04  0.00000000000E+00 0. -1.
<mgrwt>
<rscale>  0 0.24851914E+04</rscale>
<asrwt>0</asrwt>
<pdfrwt beam="1">  1        2 0.17527070E+00 0.24851914E+04</pdfrwt>
<pdfrwt beam="2">  1       -2 0.20850846E+00 0.24851914E+04</pdfrwt>
<totfact> 0.21544486E+00</totfact>
</mgrwt>
</event>
<event>
 6    1  0.1028026E-006  0.2340483E+04  0.7818608E-02  0.8462128E-01
         -2   -1    0    0    0  501 -0.00000000000E+00  0.00000000000E+00  0.64813745899E+03  0.64813745899E+03  0.00000000000E+00 0.  1.
          2   -1    0    0  501    0  0.00000000000E+00 -0.00000000000E+00 -0.21129239856E+04  0.21129239856E+04  0.00000000000E+00 0. -1.
         23    2    1    2    0    0 -0.61229586484E+03 -0.85665579518E+03 -0.13312718948E+04  0.16996512814E+04  0.88114941823E+02 0.  0.
         11    1    3    3    0    0 -0.26565841589E+03 -0.37371586676E+03 -0.65054683225E+03  0.79589517146E+03  0.00000000000E+00 0. -1.
        -11    1    3    3    0    0 -0.34663744895E+03 -0.48293992841E+03 -0.68072506257E+03  0.90375610996E+03  0.00000000000E+00 0.  1.
         22    1    1    2    0    0  0.61229586484E+03  0.85665579518E+03 -0.13351463175E+03  0.10614101631E+04  0.00000000000E+00 0.  1.
<mgrwt>
<rscale>  0 0.23404830E+04</rscale>
<asrwt>0</asrwt>
<pdfrwt beam="1">  1        2 0.32506523E+00 0.23404830E+04</pdfrwt>
<pdfrwt beam="2">  1       -2 0.99713454E-01 0.23404830E+04</pdfrwt>
<totfact> 0.43423469E+00</totfact>
</mgrwt>
</event>
<event>
 6    1  0.1590212E-006  0.2552439E+04  0.7818608E-02  0.8384538E-01
          1   -1    0    0  501    0  0.00000000000E+00  0.00000000000E+00  0.19109870135E+04  0.19109870135E+04  0.00000000000E+00 0. -1.
         -1   -1    0    0    0  501 -0.00000000000E+00 -0.00000000000E+00 -0.85230128225E+03  0.85230128225E+03  0.00000000000E+00 0.  1.
         23    2    1    2    0    0 -0.46395349285E+03 -0.11504221530E+04  0.21223382204E+03  0.12615543618E+04  0.88046799910E+02 0.  0.
         11    1    3    3    0    0 -0.31936062889E+03 -0.78575294069E+03  0.10343579995E+03  0.85445764073E+03  0.00000000000E+00 0.  1.
        -11    1    3    3    0    0 -0.14459286397E+03 -0.36466921232E+03  0.10879802209E+03  0.40709672110E+03  0.00000000000E+00 0. -1.
         22    1    1    2    0    0  0.46395349285E+03  0.11504221530E+04  0.84645190919E+03  0.15017339339E+04  0.00000000000E+00 0.  1.
<mgrwt>
<rscale>  0 0.25524394E+04</rscale>
<asrwt>0</asrwt>
<pdfrwt beam="1">  1        1 0.29399800E+00 0.25524394E+04</pdfrwt>
<pdfrwt beam="2">  1       -1 0.13112327E+00 0.25524394E+04</pdfrwt>
<totfact> 0.15027390E+00</totfact>
</mgrwt>
</event>
<event>
 6    1  0.1028026E-006  0.3100409E+04  0.7818608E-02  0.8215626E-01
          2   -1    0    0  501    0  0.00000000000E+00  0.00000000000E+00  0.26706842828E+04  0.26706842828E+04  0.00000000000E+00 0. -1.
         -2   -1    0    0    0  501 -0.00000000000E+00 -0.00000000000E+00 -0.89981931408E+03  0.89981931408E+03  0.00000000000E+00 0.  1.
         23    2    1    2    0    0 -0.62750734219E+03 -0.58284487364E+03 -0.60016541395E+03  0.10495397561E+04  0.88665462247E+02 0.  0.
         13    1    3    3    0    0 -0.33869509021E+03 -0.35968190103E+03 -0.30985804352E+03  0.58317873863E+03  0.00000000000E+00 0.  1.
        -13    1    3    3    0    0 -0.28881225198E+03 -0.22316297261E+03 -0.29030737044E+03  0.46636101742E+03  0.00000000000E+00 0. -1.
         22    1    1    2    0    0  0.62750734219E+03  0.58284487364E+03  0.23710303827E+04  0.25209638408E+04  0.00000000000E+00 0. -1.
<mgrwt>
<rscale>  0 0.31004086E+04</rscale>
<asrwt>0</asrwt>
<pdfrwt beam="1">  1        2 0.41087450E+00 0.31004086E+04</pdfrwt>
<pdfrwt beam="2">  1       -2 0.13843374E+00 0.31004086E+04</pdfrwt>
<totfact> 0.86759208E-01</totfact>
</mgrwt>
</event>
<event>
 6    1  0.1028026E-006  0.2923744E+04  0.7818608E-02  0.8265848E-01
         -2   -1    0    0    0  501 -0.00000000000E+00  0.00000000000E+00  0.24932998868E+04  0.24932998868E+04  0.00000000000E+00 0.  1.
          2   -1    0    0  501    0  0.00000000000E+00 -0.00000000000E+00 -0.85712494512E+03  0.85712494512E+03  0.00000000000E+00 0. -1.
         23    2    1    2    0    0  0.67683017923E+03  0.12432221181E+04  0.40807933497E+03  0.14764133203E+04  0.97812179012E+02 0.  0.
         11    1    3    3    0    0  0.19953063235E+03  0.32863901322E+03  0.69981459204E+02  0.39078571991E+03  0.00000000000E+00 0. -1.
        -11    1    3    3    0    0  0.47729954687E+03  0.91458310486E+03  0.33809787576E+03  0.10856276004E+04  0.00000000000E+00 0.  1.
         22    1    1    2    0    0 -0.67683017923E+03 -0.12432221181E+04  0.12280956067E+04  0.18740115116E+04  0.00000000000E+00 0.  1.
<mgrwt>
<rscale>  0 0.29237439E+04</rscale>
<asrwt>0</asrwt>
<pdfrwt beam="1">  1        2 0.13186538E+00 0.29237439E+04</pdfrwt>
<pdfrwt beam="2">  1       -2 0.38358460E+00 0.29237439E+04</pdfrwt>
<totfact> 0.25644485E-01</totfact>
</mgrwt>
</event>
<event>
 6    1  0.1028026E-006  0.3650695E+03  0.7818608E-02  0.1056594E+00
         -2   -1    0    0    0  501 -0.00000000000E+00  0.00000000000E+00  0.12618543181E+03  0.12618543181E+03  0.00000000000E+00 0.  1.
          2   -1    0    0  501    0  0.00000000000E+00 -0.00000000000E+00 -0.26404736545E+03  0.26404736545E+03  0.00000000000E+00 0. -1.
         23    2    1    2    0    0 -0.14643305940E+03 -0.87574038306E+02 -0.78510217949E+02  0.20958264025E+03  0.93000944626E+02 0.  0.
         11    1    3    3    0    0 -0.10330919375E+03 -0.99292198249E+01 -0.28381263333E+02  0.10759588760E+03  0.00000000000E+00 0.  1.
        -11    1    3    3    0    0 -0.43123865652E+02 -0.77644818482E+02 -0.50128954616E+02  0.10198675265E+03  0.00000000000E+00 0. -1.
         22    1    1    2    0    0  0.14643305940E+03  0.87574038306E+02 -0.59351715686E+02  0.18065015701E+03  0.00000000000E+00 0.  1.
<mgrwt>
<rscale>  0 0.36506948E+03</rscale>
<asrwt>0</asrwt>
<pdfrwt beam="1">  1        2 0.40622672E-01 0.36506948E+03</pdfrwt>
<pdfrwt beam="2">  1       -2 0.19413143E-01 0.36506948E+03</pdfrwt>
<totfact> 0.27934493E+03</totfact>
</mgrwt>
</event>
<event>
 6    1  0.1028026E-006  0.2773270E+04  0.7818608E-02  0.8311615E-01
          1   -1    0    0  501    0  0.00000000000E+00  0.00000000000E+00  0.11480554367E+04  0.11480554367E+04  0.00000000000E+00 0. -1.
         -1   -1    0    0    0  501 -0.00000000000E+00 -0.00000000000E+00 -0.16747944380E+04  0.16747944380E+04  0.00000000000E+00 0.  1.
         23    2    1    2    0    0 -0.13329384319E+04  0.37303023458E+03 -0.31468832931E+03  0.14225492260E+04  0.93494046326E+02 0.  0.
         11    1    3    3    0    0 -0.72928281725E+03  0.15624439391E+03 -0.16196838898E+03  0.76321654673E+03  0.00000000000E+00 0.  1.
        -11    1    3    3    0    0 -0.60365561467E+03  0.21678584067E+03 -0.15271994033E+03  0.65933267932E+03  0.00000000000E+00 0. -1.
         22    1    1    2    0    0  0.13329384319E+04 -0.37303023458E+03 -0.21205067193E+03  0.14003006487E+04  0.00000000000E+00 0.  1.
<mgrwt>
<rscale>  0 0.27732702E+04</rscale>
<asrwt>0</asrwt>
<pdfrwt beam="1">  1        1 0.17662392E+00 0.27732702E+04</pdfrwt>
<pdfrwt beam="2">  1       -1 0.25766068E+00 0.27732702E+04</pdfrwt>
<totfact> 0.62927875E-01</totfact>
</mgrwt>
</event>
<event>
 6    1  0.1028026E-006  0.1415561E+04  0.7818608E-02  0.8942631E-01
         -1   -1    0    0    0  501 -0.00000000000E+00  0.00000000000E+00  0.85184226536E+03  0.85184226536E+03  0.00000000000E+00 0.  1.
          1   -1    0    0  501    0  0.00000000000E+00 -0.00000000000E+00 -0.58808193819E+03  0.58808193819E+03  0.00000000000E+00 0. -1.
         23    2    1    2    0    0 -0.75149198094E+02  0.39906066129E+03  0.71817165811E+03  0.83050934399E+03  0.95280777543E+02 0.  0.
         13    1    3    3    0    0 -0.51242801066E+02  0.69000911514E+02  0.13710234846E+03  0.16181472246E+03  0.00000000000E+00 0. -1.
        -13    1    3    3    0    0 -0.23906397027E+02  0.33005974978E+03  0.58106930965E+03  0.66869462153E+03  0.00000000000E+00 0.  1.
         22    1    1    2    0    0  0.75149198094E+02 -0.39906066129E+03 -0.45441133094E+03  0.60941485956E+03  0.00000000000E+00 0. -1.
<mgrwt>
<rscale>  0 0.14155607E+04</rscale>
<asrwt>0</asrwt>
<pdfrwt beam="1">  1        1 0.90474145E-01 0.14155607E+04</pdfrwt>
<pdfrwt beam="2">  1       -1 0.13105266E+00 0.14155607E+04</pdfrwt>
<totfact> 0.17064731E+01</totfact>
</mgrwt>
</event>
<event>
 6    1  0.1028026E-006  0.1360799E+04  0.7818608E-02  0.8982694E-01
         -2   -1    0    0    0  501 -0.00000000000E+00  0.00000000000E+00  0.14616628971E+04  0.14616628971E+04  0.00000000000E+00 0.  1.
          2   -1    0    0  501    0  0.00000000000E+00 -0.00000000000E+00 -0.31672367092E+03  0.31672367092E+03  0.00000000000E+00 0. -1.
         23    2    1    2    0    0  0.20870122624E+03 -0.29306078363E+03  0.13250459701E+04  0.13760443456E+04  0.91161358539E+02 0.  0.
         13    1    3    3    0    0  0.18730766906E+03 -0.27199323834E+03  0.10855394468E+04  0.11346631109E+04  0.00000000000E+00 0. -1.
        -13    1    3    3    0    0  0.21393557181E+02 -0.21067545287E+02  0.23950652332E+03  0.24138123470E+03  0.00000000000E+00 0.  1.
         22    1    1    2    0    0 -0.20870122624E+03  0.29306078363E+03 -0.18010674396E+03  0.40234222244E+03  0.00000000000E+00 0. -1.
<mgrwt>
<rscale>  0 0.13607986E+04</rscale>
<asrwt>0</asrwt>
<pdfrwt beam="1">  1        2 0.48726719E-01 0.13607986E+04</pdfrwt>
<pdfrwt beam="2">  1       -2 0.22487121E+00 0.13607986E+04</pdfrwt>
<totfact> 0.92862542E+00</totfact>
</mgrwt>
</event>
<event>
 6    1  0.1028026E-006  0.1472955E+04  0.7818608E-02  0.8902640E-01
         -1   -1    0    0    0  501 -0.00000000000E+00  0.00000000000E+00  0.43627235945E+03  0.43627235945E+03  0.00000000000E+00 0.  1.
          1   -1    0    0  501    0  0.00000000000E+00 -0.00000000000E+00 -0.12432576254E+04  0.12432576254E+04  0.00000000000E+00 0. -1.
         23    2    1    2    0    0  0.19799342945E+03 -0.42036617023E+03  0.24226670930E+03  0.53199400601E+03  0.91735210320E+02 0.  0.
         13    1    3    3    0    0  0.90757473909E+02 -0.22721426554E+03  0.17583300392E+03  0.30129800332E+03  0.00000000000E+00 0. -1.
        -13    1    3    3    0    0  0.10723595554E+03 -0.19315190469E+03  0.66433705378E+02  0.23069600269E+03  0.00000000000E+00 0.  1.
         22    1    1    2    0    0 -0.19799342945E+03  0.42036617023E+03 -0.10492519752E+04  0.11475359788E+04  0.00000000000E+00 0. -1.
<mgrwt>
<rscale>  0 0.14729548E+04</rscale>
<asrwt>0</asrwt>
<pdfrwt beam="1">  1        1 0.19127040E+00 0.14729548E+04</pdfrwt>
<pdfrwt beam="2">  1       -1 0.67118825E-01 0.14729548E+04</pdfrwt>
<totfact> 0.21663743E+01</totfact>
</mgrwt>
</event>
<event>
 6    1  0.1028026E-006  0.1751239E+04  0.7818608E-02  0.8732669E-01
         -1   -1    0    0    0  501 -0.00000000000E+00  0.00000000000E+00  0.59410768327E+03  0.59410768327E+03  0.00000000000E+00 0.  1.
          1   -1    0    0  501    0  0.00000000000E+00 -0.00000000000E+00 -0.12905229105E+04  0.12905229105E+04  0.00000000000E+00 0. -1.
         23    2    1    2    0    0 -0.56930992677E+03  0.54877322674E+03 -0.74815081200E+03  0.10922024154E+04  0.88941731787E+02 0.  0.
         13    1    3    3    0    0 -0.27871171125E+03  0.20797782665E+03 -0.33540276574E+03  0.48314595065E+03  0.00000000000E+00 0.  1.
        -13    1    3    3    0    0 -0.29059821552E+03  0.34079540009E+03 -0.41274804626E+03  0.60905646477E+03  0.00000000000E+00 0. -1.
         22    1    1    2    0    0  0.56930992677E+03 -0.54877322674E+03  0.51735584789E+02  0.79242817834E+03  0.00000000000E+00 0.  1.
<mgrwt>
<rscale>  0 0.17512391E+04</rscale>
<asrwt>0</asrwt>
<pdfrwt beam="1">  1        1 0.19854198E+00 0.17512391E+04</pdfrwt>
<pdfrwt beam="2">  1       -1 0.91401184E-01 0.17512391E+04</pdfrwt>
<totfact> 0.10162970E+01</totfact>
</mgrwt>
</event>
<event>
 6    1  0.1028026E-006  0.1343511E+04  0.7818608E-02  0.8995754E-01
         -1   -1    0    0    0  501 -0.00000000000E+00  0.00000000000E+00  0.52958921283E+03  0.52958921283E+03  0.00000000000E+00 0.  1.
          1   -1    0    0  501    0  0.00000000000E+00 -0.00000000000E+00 -0.85208641756E+03  0.85208641756E+03  0.00000000000E+00 0. -1.
         23    2    1    2    0    0 -0.11987721459E+03  0.59861565044E+03  0.11800571900E+03  0.62884492609E+03  0.93858126014E+02 0.  0.
         13    1    3    3    0    0 -0.94832418047E+02  0.49855928053E+03  0.61425698590E+02  0.51120217151E+03  0.00000000000E+00 0. -1.
        -13    1    3    3    0    0 -0.25044796539E+02  0.10005636991E+03  0.56580020411E+02  0.11764275457E+03  0.00000000000E+00 0.  1.
         22    1    1    2    0    0  0.11987721459E+03 -0.59861565044E+03 -0.44050292373E+03  0.75283070430E+03  0.00000000000E+00 0.  1.
<mgrwt>
<rscale>  0 0.13435115E+04</rscale>
<asrwt>0</asrwt>
<pdfrwt beam="1">  1        1 0.13109022E+00 0.13435115E+04</pdfrwt>
<pdfrwt beam="2">  1       -1 0.81475264E-01 0.13435115E+04</pdfrwt>
<totfact> 0.29314027E+01</totfact>
</mgrwt>
</event>
<event>
 6    1  0.1028026E-006  0.2632593E+04  0.7818608E-02  0.8357214E-01
          2   -1    0    0  501    0  0.00000000000E+00  0.00000000000E+00  0.16674358273E+04  0.16674358273E+04  0.00000000000E+00 0. -1.
         -2   -1    0    0    0  501 -0.00000000000E+00 -0.00000000000E+00 -0.10391020047E+04  0.10391020047E+04  0.00000000000E+00 0.  1.
         23    2    1    2    0    0  0.65466553856E+03 -0.71017991033E+03 -0.60235303501E+03  0.11420786240E+04  0.92584729339E+02 0.  0.
         11    1    3    3    0    0  0.45278468603E+03 -0.46766172436E+03 -0.45242448607E+03  0.79272276108E+03  0.00000000000E+00 0. -1.
        -11    1    3    3    0    0  0.20188085252E+03 -0.24251818596E+03 -0.14992854895E+03  0.34935586288E+03  0.00000000000E+00 0.  1.
         22    1    1    2    0    0 -0.65466553856E+03  0.71017991033E+03  0.12306868576E+04  0.15644592081E+04  0.00000000000E+00 0. -1.
<mgrwt>
<rscale>  0 0.26325926E+04</rscale>
<asrwt>0</asrwt>
<pdfrwt beam="1">  1        2 0.25652859E+00 0.26325926E+04</pdfrwt>
<pdfrwt beam="2">  1       -2 0.15986185E+00 0.26325926E+04</pdfrwt>
<totfact> 0.22779406E+00</totfact>
</mgrwt>
</event>
<event>
 6    1  0.1028026E-006  0.1788844E+04  0.7818608E-02  0.8712254E-01
          2   -1    0    0  501    0  0.00000000000E+00  0.00000000000E+00  0.59101599788E+03  0.59101599788E+03  0.00000000000E+00 0. -1.
         -2   -1    0    0    0  501 -0.00000000000E+00 -0.00000000000E+00 -0.13535863043E+04  0.13535863043E+04  0.00000000000E+00 0.  1.
         23    2    1    2    0    0 -0.25469773130E+03  0.45321152624E+03  0.40566555483E+03  0.66591287572E+03  0.92756637622E+02 0.  0.
         11    1    3    3    0    0 -0.23847180210E+03  0.35582471760E+03  0.31309898265E+03  0.53057610481E+03  0.00000000000E+00 0.  1.
        -11    1    3    3    0    0 -0.16225929195E+02  0.97386808635E+02  0.92566572185E+02  0.13533677091E+03  0.00000000000E+00 0. -1.
         22    1    1    2    0    0  0.25469773130E+03 -0.45321152624E+03 -0.11682358612E+04  0.12786894264E+04  0.00000000000E+00 0.  1.
<mgrwt>
<rscale>  0 0.17888445E+04</rscale>
<asrwt>0</asrwt>
<pdfrwt beam="1">  1        2 0.90925540E-01 0.17888445E+04</pdfrwt>
<pdfrwt beam="2">  1       -2 0.20824404E+00 0.17888445E+04</pdfrwt>
<totfact> 0.56050481E+00</totfact>
</mgrwt>
</event>
<event>
 6    1  0.1028026E-006  0.1606413E+04  0.7818608E-02  0.8816618E-01
          1   -1    0    0  501    0  0.00000000000E+00  0.00000000000E+00  0.23212158482E+04  0.23212158482E+04  0.00000000000E+00 0. -1.
         -1   -1    0    0    0  501 -0.00000000000E+00 -0.00000000000E+00 -0.27793220352E+03  0.27793220352E+03  0.00000000000E+00 0.  1.
         23    2    1    2    0    0 -0.19979548521E+03 -0.49878669242E+03  0.19852601427E+04  0.20587101485E+04  0.91231798670E+02 0.  0.
         13    1    3    3    0    0 -0.19910613555E+03 -0.46857849628E+03  0.17851757857E+04  0.18563570902E+04  0.00000000000E+00 0.  1.
        -13    1    3    3    0    0 -0.68934965429E+00 -0.30208196148E+02  0.20008435696E+03  0.20235305834E+03  0.00000000000E+00 0. -1.
         22    1    1    2    0    0  0.19979548521E+03  0.49878669242E+03  0.58023502018E+02  0.54043790322E+03  0.00000000000E+00 0.  1.
<mgrwt>
<rscale>  0 0.16064129E+04</rscale>
<asrwt>0</asrwt>
<pdfrwt beam="1">  1        1 0.35711012E+00 0.16064129E+04</pdfrwt>
<pdfrwt beam="2">  1       -1 0.42758802E-01 0.16064129E+04</pdfrwt>
<totfact> 0.93090143E+00</totfact>
</mgrwt>
</event>
<event>
 6    1  0.1028026E-006  0.2826954E+04  0.7818608E-02  0.8294949E-01
         -2   -1    0    0    0  501 -0.00000000000E+00  0.00000000000E+00  0.13082699865E+04  0.13082699865E+04  0.00000000000E+00 0.  1.
          2   -1    0    0  501    0  0.00000000000E+00 -0.00000000000E+00 -0.15271440063E+04  0.15271440063E+04  0.00000000000E+00 0. -1.
         23    2    1    2    0    0 -0.62016171942E+02  0.11014069267E+04  0.77438343971E+03  0.13509937004E+04  0.92579927844E+02 0.  0.
         11    1    3    3    0    0 -0.85388839687E+02  0.87031118462E+03  0.59972443506E+03  0.10603783334E+04  0.00000000000E+00 0.  1.
        -11    1    3    3    0    0  0.23372667746E+02  0.23109574210E+03  0.17465900465E+03  0.29061536697E+03  0.00000000000E+00 0. -1.
         22    1    1    2    0    0  0.62016171942E+02 -0.11014069267E+04 -0.99325745948E+03  0.14844202924E+04  0.00000000000E+00 0. -1.
<mgrwt>
<rscale>  0 0.28269536E+04</rscale>
<asrwt>0</asrwt>
<pdfrwt beam="1">  1        2 0.23494523E+00 0.28269536E+04</pdfrwt>
<pdfrwt beam="2">  1       -2 0.20127231E+00 0.28269536E+04</pdfrwt>
<totfact> 0.13882238E+00</totfact>
</mgrwt>
</event>
<event>
 6    1  0.1028026E-006  0.5638388E+04  0.7818608E-02  0.7736929E-01
         -2   -1    0    0    0  501 -0.00000000000E+00  0.00000000000E+00  0.26446766647E+04  0.26446766647E+04  0.00000000000E+00 0.  1.
          2   -1    0    0  501    0  0.00000000000E+00 -0.00000000000E+00 -0.30052270161E+04  0.30052270161E+04  0.00000000000E+00 0. -1.
         23    2    1    2    0    0 -0.17368532956E+04  0.17528067402E+04  0.11843251751E+04  0.27386099425E+04  0.91473809336E+02 0.  0.
         13    1    3    3    0    0 -0.76082187270E+03  0.76771818857E+03  0.56919314438E+03  0.12215653788E+04  0.00000000000E+00 0.  1.
        -13    1    3    3    0    0 -0.97603142288E+03  0.98508855160E+03  0.61513203070E+03  0.15170445637E+04  0.00000000000E+00 0. -1.
         22    1    1    2    0    0  0.17368532956E+04 -0.17528067402E+04 -0.15448755264E+04  0.29112937383E+04  0.00000000000E+00 0.  1.
<mgrwt>
<rscale>  0 0.56383876E+04</rscale>
<asrwt>0</asrwt>
<pdfrwt beam="1">  1        2 0.46234262E+00 0.56383876E+04</pdfrwt>
<pdfrwt beam="2">  1       -2 0.40687333E+00 0.56383876E+04</pdfrwt>
<totfact> 0.80109532E-03</totfact>
</mgrwt>
</event>
<event>
 6    1  0.1028026E-006  0.2365858E+04  0.7818608E-02  0.8452397E-01
          2   -1    0    0  501    0  0.00000000000E+00  0.00000000000E+00  0.36252617591E+04  0.36252617591E+04  0.00000000000E+00 0. -1.
         -2   -1    0    0    0  501 -0.00000000000E+00 -0.00000000000E+00 -0.38599180713E+03  0.38599180713E+03  0.00000000000E+00 0.  1.
         23    2    1    2    0    0 -0.54340201864E+03  0.28509185211E+03 -0.90619531247E+02  0.62529327578E+03  0.78845819769E+02 0.  0.
         13    1    3    3    0    0 -0.32232008453E+03  0.18525942195E+03 -0.90885275964E+02  0.38271585243E+03  0.00000000000E+00 0.  1.
        -13    1    3    3    0    0 -0.22108193411E+03  0.99832430155E+02  0.26574471663E+00  0.24257742335E+03  0.00000000000E+00 0. -1.
         22    1    1    2    0    0  0.54340201864E+03 -0.28509185211E+03  0.33298894832E+04  0.33859602904E+04  0.00000000000E+00 0. -1.
<mgrwt>
<rscale>  0 0.23658583E+04</rscale>
<asrwt>0</asrwt>
<pdfrwt beam="1">  1        2 0.55773256E+00 0.23658583E+04</pdfrwt>
<pdfrwt beam="2">  1       -2 0.59383357E-01 0.23658583E+04</pdfrwt>
<totfact> 0.15846889E+00</totfact>
</mgrwt>
</event>
<event>
 6    1  0.1028026E-006  0.1649257E+04  0.7818608E-02  0.8790846E-01
         -2   -1    0    0    0  501 -0.00000000000E+00  0.00000000000E+00  0.53890493779E+03  0.53890493779E+03  0.00000000000E+00 0.  1.
          2   -1    0    0  501    0  0.00000000000E+00 -0.00000000000E+00 -0.12618401012E+04  0.12618401012E+04  0.00000000000E+00 0. -1.
         23    2    1    2    0    0 -0.72104805571E+03 -0.73047140977E+02  0.60240819323E+02  0.73368796302E+03  0.97071557777E+02 0.  0.
         11    1    3    3    0    0 -0.50777766409E+03 -0.63245738388E+02 -0.56731520313E+00  0.51170157458E+03  0.00000000000E+00 0. -1.
        -11    1    3    3    0    0 -0.21327039161E+03 -0.98014025889E+01  0.60808134526E+02  0.22198638845E+03  0.00000000000E+00 0.  1.
         22    1    1    2    0    0  0.72104805571E+03  0.73047140977E+02 -0.78317598273E+03  0.10670570760E+04  0.00000000000E+00 0. -1.
<mgrwt>
<rscale>  0 0.16492566E+04</rscale>
<asrwt>0</asrwt>
<pdfrwt beam="1">  1        2 0.19412924E+00 0.16492566E+04</pdfrwt>
<pdfrwt beam="2">  1       -2 0.82908453E-01 0.16492566E+04</pdfrwt>
<totfact> 0.21204650E+01</totfact>
</mgrwt>
</event>
<event>
 6    1  0.1028026E-006  0.1744192E+04  0.7818608E-02  0.8736554E-01
          1   -1    0    0  501    0  0.00000000000E+00  0.00000000000E+00  0.15491350964E+04  0.15491350964E+04  0.00000000000E+00 0. -1.
         -1   -1    0    0    0  501 -0.00000000000E+00 -0.00000000000E+00 -0.49095206269E+03  0.49095206269E+03  0.00000000000E+00 0.  1.
         23    2    1    2    0    0  0.61555168448E+03 -0.52431572349E+03  0.15444870489E+03  0.82742620432E+03  0.83479739967E+02 0.  0.
         13    1    3    3    0    0  0.41057813055E+03 -0.29660753432E+03  0.95529842249E+02  0.51543804813E+03  0.00000000000E+00 0. -1.
        -13    1    3    3    0    0  0.20497355393E+03 -0.22770818917E+03  0.58918862636E+02  0.31198815619E+03  0.00000000000E+00 0.  1.
         22    1    1    2    0    0 -0.61555168448E+03  0.52431572349E+03  0.90373432884E+03  0.12126609548E+04  0.00000000000E+00 0. -1.
<mgrwt>
<rscale>  0 0.17441916E+04</rscale>
<asrwt>0</asrwt>
<pdfrwt beam="1">  1        1 0.23832847E+00 0.17441916E+04</pdfrwt>
<pdfrwt beam="2">  1       -1 0.75531087E-01 0.17441916E+04</pdfrwt>
<totfact> 0.10102342E+01</totfact>
</mgrwt>
</event>
<event>
 6    1  0.1028026E-006  0.7158094E+03  0.7818608E-02  0.9690572E-01
         -2   -1    0    0    0  501 -0.00000000000E+00  0.00000000000E+00  0.20752608650E+03  0.20752608650E+03  0.00000000000E+00 0.  1.
          2   -1    0    0  501    0  0.00000000000E+00 -0.00000000000E+00 -0.61725144058E+03  0.61725144058E+03  0.00000000000E+00 0. -1.
         23    2    1    2    0    0 -0.31087985413E+03  0.15571420828E+03 -0.27338256107E+03  0.45130389271E+03  0.89688240682E+02 0.  0.
         11    1    3    3    0    0 -0.21366863404E+03  0.15086535345E+03 -0.19274970271E+03  0.32491089230E+03  0.00000000000E+00 0. -1.
        -11    1    3    3    0    0 -0.97211220093E+02  0.48488548289E+01 -0.80632858360E+02  0.12639300041E+03  0.00000000000E+00 0.  1.
         22    1    1    2    0    0  0.31087985413E+03 -0.15571420828E+03 -0.13634279301E+03  0.37347363437E+03  0.00000000000E+00 0.  1.
<mgrwt>
<rscale>  0 0.71580940E+03</rscale>
<asrwt>0</asrwt>
<pdfrwt beam="1">  1        2 0.94961759E-01 0.71580940E+03</pdfrwt>
<pdfrwt beam="2">  1       -2 0.31927091E-01 0.71580940E+03</pdfrwt>
<totfact> 0.43987732E+02</totfact>
</mgrwt>
</event>
<event>
 6    1  0.1028026E-006  0.2070563E+04  0.7818608E-02  0.8574323E-01
          2   -1    0    0  501    0  0.00000000000E+00  0.00000000000E+00  0.78348853552E+03  0.78348853552E+03  0.00000000000E+00 0. -1.
         -2   -1    0    0    0  501 -0.00000000000E+00 -0.00000000000E+00 -0.13679938088E+04  0.13679938088E+04  0.00000000000E+00 0.  1.
         23    2    1    2    0    0  0.65386665866E+01  0.88655697692E+03  0.25988302827E+03  0.92713858896E+03  0.77593474344E+02 0.  0.
         11    1    3    3    0    0 -0.29360157147E+02  0.64289525479E+03  0.18133583987E+03  0.66862471857E+03  0.00000000000E+00 0.  1.
        -11    1    3    3    0    0  0.35898823734E+02  0.24366172214E+03  0.78547188401E+02  0.25851387039E+03  0.00000000000E+00 0. -1.
         22    1    1    2    0    0 -0.65386665866E+01 -0.88655697692E+03 -0.84438830157E+03  0.12243437554E+04  0.00000000000E+00 0.  1.
<mgrwt>
<rscale>  0 0.20705627E+04</rscale>
<asrwt>0</asrwt>
<pdfrwt beam="1">  1        2 0.12053670E+00 0.20705627E+04</pdfrwt>
<pdfrwt beam="2">  1       -2 0.21046058E+00 0.20705627E+04</pdfrwt>
<totfact> 0.37186649E+00</totfact>
</mgrwt>
</event>
<event>
 6    1  0.1028026E-006  0.1366456E+04  0.7818608E-02  0.8978463E-01
         -2   -1    0    0    0  501 -0.00000000000E+00  0.00000000000E+00  0.49640040119E+03  0.49640040119E+03  0.00000000000E+00 0.  1.
          2   -1    0    0  501    0  0.00000000000E+00 -0.00000000000E+00 -0.94037150930E+03  0.94037150930E+03  0.00000000000E+00 0. -1.
         23    2    1    2    0    0 -0.23141225623E+03  0.58501888980E+03  0.48965810486E+02  0.63753130876E+03  0.90828328724E+02 0.  0.
         13    1    3    3    0    0 -0.15078778809E+03  0.30693693315E+03 -0.97029854861E+01  0.34211311857E+03  0.00000000000E+00 0.  1.
        -13    1    3    3    0    0 -0.80624468141E+02  0.27808195665E+03  0.58668795972E+02  0.29541819019E+03  0.00000000000E+00 0. -1.
         22    1    1    2    0    0  0.23141225623E+03 -0.58501888980E+03 -0.49293691859E+03  0.79924060174E+03  0.00000000000E+00 0. -1.
<mgrwt>
<rscale>  0 0.13664564E+04</rscale>
<asrwt>0</asrwt>
<pdfrwt beam="1">  1        2 0.14467254E+00 0.13664564E+04</pdfrwt>
<pdfrwt beam="2">  1       -2 0.76369293E-01 0.13664564E+04</pdfrwt>
<totfact> 0.41241615E+01</totfact>
</mgrwt>
</event>
<event>
 6    1  0.1028026E-006  0.3946406E+04  0.7818608E-02  0.8015446E-01
          2   -1    0    0  501    0  0.00000000000E+00  0.00000000000E+00  0.30045697047E+04  0.30045697047E+04  0.00000000000E+00 0. -1.
         -2   -1    0    0    0  501 -0.00000000000E+00 -0.00000000000E+00 -0.12958695683E+04  0.12958695683E+04  0.00000000000E+00 0.  1.
         23    2    1    2    0    0 -0.15012883119E+04 -0.89754375298E+03 -0.13786953547E+03  0.17569631207E+04  0.91978338961E+02 0.  0.
         13    1    3    3    0    0 -0.35411775145E+03 -0.25763254753E+03 -0.28861158102E+02  0.43887000112E+03  0.00000000000E+00 0. -1.
        -13    1    3    3    0    0 -0.11471705604E+04 -0.63991120545E+03 -0.10900837737E+03  0.13180931196E+04  0.00000000000E+00 0.  1.
         22    1    1    2    0    0  0.15012883119E+04  0.89754375298E+03  0.18465696719E+04  0.25434761522E+04  0.00000000000E+00 0.  1.
<mgrwt>
<rscale>  0 0.39464062E+04</rscale>
<asrwt>0</asrwt>
<pdfrwt beam="1">  1        2 0.46224149E+00 0.39464062E+04</pdfrwt>
<pdfrwt beam="2">  1       -2 0.19936455E+00 0.39464062E+04</pdfrwt>
<totfact> 0.18391562E-01</totfact>
</mgrwt>
</event>
<event>
 6    1  0.1028026E-006  0.2557880E+04  0.7818608E-02  0.8382651E-01
          2   -1    0    0  501    0  0.00000000000E+00  0.00000000000E+00  0.11480238282E+04  0.11480238282E+04  0.00000000000E+00 0. -1.
         -2   -1    0    0    0  501 -0.00000000000E+00 -0.00000000000E+00 -0.14247853212E+04  0.14247853212E+04  0.00000000000E+00 0.  1.
         23    2    1    2    0    0  0.11633726242E+03  0.54574347863E+03  0.10173449878E+04  0.11635249741E+04  0.86193027824E+02 0.  0.
         11    1    3    3    0    0  0.21973639629E+02  0.91974020653E+02  0.24724894061E+03  0.26471512980E+03  0.00000000000E+00 0. -1.
        -11    1    3    3    0    0  0.94363622789E+02  0.45376945798E+03  0.77009604720E+03  0.89880984430E+03  0.00000000000E+00 0.  1.
         22    1    1    2    0    0 -0.11633726242E+03 -0.54574347863E+03 -0.12941064808E+04  0.14092841753E+04  0.00000000000E+00 0.  1.
<mgrwt>
<rscale>  0 0.25578800E+04</rscale>
<asrwt>0</asrwt>
<pdfrwt beam="1">  1        2 0.17661905E+00 0.25578800E+04</pdfrwt>
<pdfrwt beam="2">  1       -2 0.21919774E+00 0.25578800E+04</pdfrwt>
<totfact> 0.18069895E+00</totfact>
</mgrwt>
</event>
<event>
 6    1  0.1028026E-006  0.3565827E+04  0.7818608E-02  0.8098364E-01
          2   -1    0    0  501    0  0.00000000000E+00  0.00000000000E+00  0.26927720167E+04  0.26927720167E+04  0.00000000000E+00 0. -1.
         -2   -1    0    0    0  501 -0.00000000000E+00 -0.00000000000E+00 -0.11804866500E+04  0.11804866500E+04  0.00000000000E+00 0.  1.
         23    2    1    2    0    0  0.12105767320E+04  0.79769205791E+03 -0.36850666503E+03  0.14985613576E+04  0.89890693794E+02 0.  0.
         11    1    3    3    0    0  0.57124097893E+03  0.36482086813E+03 -0.12713276269E+03  0.68961819957E+03  0.00000000000E+00 0.  1.
        -11    1    3    3    0    0  0.63933575310E+03  0.43287118979E+03 -0.24137390234E+03  0.80894315800E+03  0.00000000000E+00 0. -1.
         22    1    1    2    0    0 -0.12105767320E+04 -0.79769205791E+03  0.18807920317E+04  0.23746973091E+04  0.00000000000E+00 0. -1.
<mgrwt>
<rscale>  0 0.35658275E+04</rscale>
<asrwt>0</asrwt>
<pdfrwt beam="1">  1        2 0.41427262E+00 0.35658275E+04</pdfrwt>
<pdfrwt beam="2">  1       -2 0.18161333E+00 0.35658275E+04</pdfrwt>
<totfact> 0.38730779E-01</totfact>
</mgrwt>
</event>
<event>
 6    1  0.1028026E-006  0.2075409E+04  0.7818608E-02  0.8572154E-01
          1   -1    0    0  501    0  0.00000000000E+00  0.00000000000E+00  0.27253774970E+04  0.27253774970E+04  0.00000000000E+00 0. -1.
         -1   -1    0    0    0  501 -0.00000000000E+00 -0.00000000000E+00 -0.39511250581E+03  0.39511250581E+03  0.00000000000E+00 0.  1.
         23    2    1    2    0    0 -0.26722517554E+03 -0.59625654530E+03  0.23755854848E+04  0.24655204544E+04  0.91943207198E+02 0.  0.
         13    1    3    3    0    0 -0.50338423678E+02 -0.53875223648E+02  0.33200108941E+03  0.34009001748E+03  0.00000000000E+00 0.  1.
        -13    1    3    3    0    0 -0.21688675186E+03 -0.54238132165E+03  0.20435843954E+04  0.21254304369E+04  0.00000000000E+00 0. -1.
         22    1    1    2    0    0  0.26722517554E+03  0.59625654530E+03 -0.45320493546E+02  0.65496954844E+03  0.00000000000E+00 0.  1.
<mgrwt>
<rscale>  0 0.20754091E+04</rscale>
<asrwt>0</asrwt>
<pdfrwt beam="1">  1        1 0.41928883E+00 0.20754091E+04</pdfrwt>
<pdfrwt beam="2">  1       -1 0.60786541E-01 0.20754091E+04</pdfrwt>
<totfact> 0.23837025E+00</totfact>
</mgrwt>
</event>
<event>
 6    1  0.1028026E-006  0.3247731E+04  0.7818608E-02  0.8176324E-01
          2   -1    0    0  501    0  0.00000000000E+00  0.00000000000E+00  0.19816476638E+04  0.19816476638E+04  0.00000000000E+00 0. -1.
         -2   -1    0    0    0  501 -0.00000000000E+00 -0.00000000000E+00 -0.13306802775E+04  0.13306802775E+04  0.00000000000E+00 0.  1.
         23    2    1    2    0    0 -0.11531264685E+04  0.10569548131E+04 -0.11369907989E+03  0.15711878167E+04  0.94072022378E+02 0.  0.
         13    1    3    3    0    0 -0.39055439780E+03  0.32289139652E+03 -0.72569572167E+02  0.51191594466E+03  0.00000000000E+00 0. -1.
        -13    1    3    3    0    0 -0.76257207067E+03  0.73406341654E+03 -0.41129507718E+02  0.10592718720E+04  0.00000000000E+00 0.  1.
         22    1    1    2    0    0  0.11531264685E+04 -0.10569548131E+04  0.76466646623E+03  0.17411401247E+04  0.00000000000E+00 0.  1.
<mgrwt>
<rscale>  0 0.32477312E+04</rscale>
<asrwt>0</asrwt>
<pdfrwt beam="1">  1        2 0.30486887E+00 0.32477312E+04</pdfrwt>
<pdfrwt beam="2">  1       -2 0.20472004E+00 0.32477312E+04</pdfrwt>
<totfact> 0.71078254E-01</totfact>
</mgrwt>
</event>
<event>
 6    1  0.1143381E-006  0.3812497E+04  0.7818608E-02  0.8043478E-01
          2   -1    0    0  501    0  0.00000000000E+00  0.00000000000E+00  0.22181210172E+04  0.22181210172E+04  0.00000000000E+00 0. -1.
         -2   -1    0    0    0  501 -0.00000000000E+00 -0.00000000000E+00 -0.16382260516E+04  0.16382260516E+04  0.00000000000E+00 0.  1.
         23    2    1    2    0    0 -0.16801038249E+04  0.49586824542E+03 -0.46755789754E+03  0.18153199548E+04  0.90232875004E+02 0.  0.
         11    1    3    3    0    0 -0.59738992740E+03  0.20703263177E+03 -0.20162446129E+03  0.66361860987E+03  0.00000000000E+00 0. -1.
        -11    1    3    3    0    0 -0.10827138975E+04  0.28883561364E+03 -0.26593343624E+03  0.11517013450E+04  0.00000000000E+00 0.  1.
         22    1    1    2    0    0  0.16801038249E+04 -0.49586824542E+03  0.10474528632E+04  0.20410271139E+04  0.00000000000E+00 0.  1.
<mgrwt>
<rscale>  0 0.38124972E+04</rscale>
<asrwt>0</asrwt>
<pdfrwt beam="1">  1        2 0.34124939E+00 0.38124972E+04</pdfrwt>
<pdfrwt beam="2">  1       -2 0.25203477E+00 0.38124972E+04</pdfrwt>
<totfact> 0.25226415E-01</totfact>
</mgrwt>
</event>
<event>
 6    1  0.1028026E-006  0.6410016E+03  0.7818608E-02  0.9823812E-01
         -2   -1    0    0    0  501 -0.00000000000E+00  0.00000000000E+00  0.68923848766E+03  0.68923848766E+03  0.00000000000E+00 0.  1.
          2   -1    0    0  501    0  0.00000000000E+00 -0.00000000000E+00 -0.14903515652E+03  0.14903515652E+03  0.00000000000E+00 0. -1.
         23    2    1    2    0    0 -0.13745897420E+03  0.22258813364E+03  0.48393946981E+02  0.28121268058E+03  0.91094186372E+02 0.  0.
         11    1    3    3    0    0 -0.19998514897E+02  0.11751417806E+03  0.15367524509E+02  0.12019019699E+03  0.00000000000E+00 0. -1.
        -11    1    3    3    0    0 -0.11746045930E+03  0.10507395558E+03  0.33026422472E+02  0.16102248359E+03  0.00000000000E+00 0.  1.
         22    1    1    2    0    0  0.13745897420E+03 -0.22258813364E+03  0.49180938415E+03  0.55706096360E+03  0.00000000000E+00 0.  1.
<mgrwt>
<rscale>  0 0.64100161E+03</rscale>
<asrwt>0</asrwt>
<pdfrwt beam="1">  1        2 0.22928486E-01 0.64100161E+03</pdfrwt>
<pdfrwt beam="2">  1       -2 0.10603669E+00 0.64100161E+03</pdfrwt>
<totfact> 0.17594790E+02</totfact>
</mgrwt>
</event>
<event>
 6    1  0.1028026E-006  0.3222436E+04  0.7818608E-02  0.8182917E-01
          1   -1    0    0  501    0  0.00000000000E+00  0.00000000000E+00  0.44277502923E+04  0.44277502923E+04  0.00000000000E+00 0. -1.
         -1   -1    0    0    0  501 -0.00000000000E+00 -0.00000000000E+00 -0.58630756033E+03  0.58630756033E+03  0.00000000000E+00 0.  1.
         23    2    1    2    0    0  0.13732043415E+04 -0.32948874384E+03  0.71791145448E+03  0.15861283555E+04  0.78443022805E+02 0.  0.
         11    1    3    3    0    0  0.53524687001E+03 -0.97862201972E+02  0.24960199516E+03  0.59863793600E+03  0.00000000000E+00 0.  1.
        -11    1    3    3    0    0  0.83795747149E+03 -0.23162654187E+03  0.46830945932E+03  0.98749041951E+03  0.00000000000E+00 0. -1.
         22    1    1    2    0    0 -0.13732043415E+04  0.32948874384E+03  0.31235312775E+04  0.34279294971E+04  0.00000000000E+00 0. -1.
<mgrwt>
<rscale>  0 0.32224360E+04</rscale>
<asrwt>0</asrwt>
<pdfrwt beam="1">  1        1 0.68119233E+00 0.32224360E+04</pdfrwt>
<pdfrwt beam="2">  1       -1 0.90201166E-01 0.32224360E+04</pdfrwt>
<totfact> 0.38194593E-02</totfact>
</mgrwt>
</event>
<event>
 6    1  0.1162823E-006  0.3334277E+04  0.7818608E-02  0.8154228E-01
          1   -1    0    0  501    0  0.00000000000E+00  0.00000000000E+00  0.26027877663E+04  0.26027877663E+04  0.00000000000E+00 0. -1.
         -1   -1    0    0    0  501 -0.00000000000E+00 -0.00000000000E+00 -0.10678358373E+04  0.10678358373E+04  0.00000000000E+00 0.  1.
         23    2    1    2    0    0  0.61960746956E+03  0.40763624465E+03  0.24102436221E+04  0.25233589122E+04  0.89359709647E+02 0.  0.
         11    1    3    3    0    0  0.38985744059E+03  0.21247670245E+03  0.13538651364E+04  0.14248108579E+04  0.00000000000E+00 0.  1.
        -11    1    3    3    0    0  0.22975002898E+03  0.19515954219E+03  0.10563784856E+04  0.10985480543E+04  0.00000000000E+00 0. -1.
         22    1    1    2    0    0 -0.61960746956E+03 -0.40763624465E+03 -0.87529169310E+03  0.11472646915E+04  0.00000000000E+00 0.  1.
<mgrwt>
<rscale>  0 0.33342766E+04</rscale>
<asrwt>0</asrwt>
<pdfrwt beam="1">  1        1 0.40042889E+00 0.33342766E+04</pdfrwt>
<pdfrwt beam="2">  1       -1 0.16428244E+00 0.33342766E+04</pdfrwt>
<totfact> 0.25771973E-01</totfact>
</mgrwt>
</event>
<event>
 6    1  0.1028026E-006  0.2411857E+04  0.7818608E-02  0.8435078E-01
         -2   -1    0    0    0  501 -0.00000000000E+00  0.00000000000E+00  0.98239041884E+03  0.98239041884E+03  0.00000000000E+00 0.  1.
          2   -1    0    0  501    0  0.00000000000E+00 -0.00000000000E+00 -0.14803319283E+04  0.14803319283E+04  0.00000000000E+00 0. -1.
         23    2    1    2    0    0  0.59130032043E+03 -0.28974068174E+03 -0.12787561881E+04  0.14413226732E+04  0.92778920026E+02 0.  0.
         11    1    3    3    0    0  0.56465435898E+03 -0.27244764023E+03 -0.11622457259E+04  0.13205594985E+04  0.00000000000E+00 0. -1.
        -11    1    3    3    0    0  0.26645961450E+02 -0.17293041509E+02 -0.11651046228E+03  0.12076317472E+03  0.00000000000E+00 0.  1.
         22    1    1    2    0    0 -0.59130032043E+03  0.28974068174E+03  0.78081467864E+03  0.10213996740E+04  0.00000000000E+00 0.  1.
<mgrwt>
<rscale>  0 0.24118573E+04</rscale>
<asrwt>0</asrwt>
<pdfrwt beam="1">  1        2 0.22774337E+00 0.24118573E+04</pdfrwt>
<pdfrwt beam="2">  1       -2 0.15113699E+00 0.24118573E+04</pdfrwt>
<totfact> 0.34363638E+00</totfact>
</mgrwt>
</event>
<event>
 6    1  0.1028026E-006  0.1182578E+04  0.7818608E-02  0.9128244E-01
          1   -1    0    0  501    0  0.00000000000E+00  0.00000000000E+00  0.11792666948E+04  0.11792666948E+04  0.00000000000E+00 0. -1.
         -1   -1    0    0    0  501 -0.00000000000E+00 -0.00000000000E+00 -0.29647481265E+03  0.29647481265E+03  0.00000000000E+00 0.  1.
         23    2    1    2    0    0 -0.45632849131E+03  0.32257050447E+03  0.21643518934E+03  0.60607567254E+03  0.90532355120E+02 0.  0.
         11    1    3    3    0    0 -0.24391147666E+03  0.11991578018E+03  0.88619299023E+02  0.28587756635E+03  0.00000000000E+00 0.  1.
        -11    1    3    3    0    0 -0.21241701465E+03  0.20265472429E+03  0.12781589032E+03  0.32019810619E+03  0.00000000000E+00 0. -1.
         22    1    1    2    0    0  0.45632849131E+03 -0.32257050447E+03  0.66635669280E+03  0.86966583489E+03  0.00000000000E+00 0. -1.
<mgrwt>
<rscale>  0 0.11825783E+04</rscale>
<asrwt>0</asrwt>
<pdfrwt beam="1">  1        1 0.18142564E+00 0.11825783E+04</pdfrwt>
<pdfrwt beam="2">  1       -1 0.45611510E-01 0.11825783E+04</pdfrwt>
<totfact> 0.52345620E+01</totfact>
</mgrwt>
</event>
<event>
 6    1  0.1028026E-006  0.3513792E+04  0.7818608E-02  0.8110529E-01
         -1   -1    0    0    0  501 -0.00000000000E+00  0.00000000000E+00  0.11083743342E+04  0.11083743342E+04  0.00000000000E+00 0.  1.
          1   -1    0    0  501    0  0.00000000000E+00 -0.00000000000E+00 -0.27848746644E+04  0.27848746644E+04  0.00000000000E+00 0. -1.
         23    2    1    2    0    0 -0.10558963759E+04  0.46097836550E+03 -0.23067064760E+04  0.25800171089E+04  0.90417397610E+02 0.  0.
         11    1    3    3    0    0 -0.26238458482E+03  0.14343544615E+03 -0.66557315197E+03  0.72966226309E+03  0.00000000000E+00 0.  1.
        -11    1    3    3    0    0 -0.79351179109E+03  0.31754291935E+03 -0.16411333240E+04  0.18503548458E+04  0.00000000000E+00 0. -1.
         22    1    1    2    0    0  0.10558963759E+04 -0.46097836550E+03  0.63020614578E+03  0.13132318898E+04  0.00000000000E+00 0.  1.
<mgrwt>
<rscale>  0 0.35137920E+04</rscale>
<asrwt>0</asrwt>
<pdfrwt beam="1">  1        1 0.42844225E+00 0.35137920E+04</pdfrwt>
<pdfrwt beam="2">  1       -1 0.17051913E+00 0.35137920E+04</pdfrwt>
<totfact> 0.16973282E-01</totfact>
</mgrwt>
</event>
<event>
 6    1  0.1028026E-006  0.4884710E+04  0.7818608E-02  0.7846542E-01
          1   -1    0    0  501    0  0.00000000000E+00  0.00000000000E+00  0.39829543887E+04  0.39829543887E+04  0.00000000000E+00 0. -1.
         -1   -1    0    0    0  501 -0.00000000000E+00 -0.00000000000E+00 -0.14976566170E+04  0.14976566170E+04  0.00000000000E+00 0.  1.
         23    2    1    2    0    0 -0.27138241474E+03  0.16501082629E+04 -0.75280992285E+03  0.18361841460E+04  0.91344096057E+02 0.  0.
         13    1    3    3    0    0 -0.44879989687E+02  0.50963328649E+03 -0.21130527402E+03  0.55352526500E+03  0.00000000000E+00 0. -1.
        -13    1    3    3    0    0 -0.22650242505E+03  0.11404749764E+04 -0.54150464883E+03  0.12826588810E+04  0.00000000000E+00 0.  1.
         22    1    1    2    0    0  0.27138241474E+03 -0.16501082629E+04  0.32381076945E+04  0.36444268597E+04  0.00000000000E+00 0. -1.
<mgrwt>
<rscale>  0 0.48847100E+04</rscale>
<asrwt>0</asrwt>
<pdfrwt beam="1">  1        1 0.61276221E+00 0.48847100E+04</pdfrwt>
<pdfrwt beam="2">  1       -1 0.23040871E+00 0.48847100E+04</pdfrwt>
<totfact> 0.67649830E-03</totfact>
</mgrwt>
</event>
<event>
 6    1  0.1028026E-006  0.4444820E+04  0.7818608E-02  0.7920369E-01
         -2   -1    0    0    0  501 -0.00000000000E+00  0.00000000000E+00  0.21114681402E+04  0.21114681402E+04  0.00000000000E+00 0.  1.
          2   -1    0    0  501    0  0.00000000000E+00 -0.00000000000E+00 -0.23391814982E+04  0.23391814982E+04  0.00000000000E+00 0. -1.
         23    2    1    2    0    0 -0.80998314627E+02  0.13225432539E+04  0.16712406331E+04  0.21351134920E+04  0.99914887520E+02 0.  0.
         11    1    3    3    0    0 -0.66110173361E+02  0.45274472253E+03  0.62161759870E+03  0.77185282134E+03  0.00000000000E+00 0.  1.
        -11    1    3    3    0    0 -0.14888141266E+02  0.86979853132E+03  0.10496230344E+04  0.13632606706E+04  0.00000000000E+00 0. -1.
         22    1    1    2    0    0  0.80998314627E+02 -0.13225432539E+04 -0.18989539910E+04  0.23155361464E+04  0.00000000000E+00 0. -1.
<mgrwt>
<rscale>  0 0.44448204E+04</rscale>
<asrwt>0</asrwt>
<pdfrwt beam="1">  1        2 0.35987408E+00 0.44448204E+04</pdfrwt>
<pdfrwt beam="2">  1       -2 0.32484125E+00 0.44448204E+04</pdfrwt>
<totfact> 0.73252955E-02</totfact>
</mgrwt>
</event>
<event>
 6    1  0.1028026E-006  0.1757869E+04  0.7818608E-02  0.8729031E-01
          2   -1    0    0  501    0  0.00000000000E+00  0.00000000000E+00  0.73431979095E+03  0.73431979095E+03  0.00000000000E+00 0. -1.
         -2   -1    0    0    0  501 -0.00000000000E+00 -0.00000000000E+00 -0.10520293044E+04  0.10520293044E+04  0.00000000000E+00 0.  1.
         23    2    1    2    0    0  0.46003081490E+03  0.95066266671E+02  0.59294269661E+03  0.76167676071E+03  0.88907258507E+02 0.  0.
         13    1    3    3    0    0  0.32477163608E+03  0.80466557109E+02  0.35673527770E+03  0.48909256872E+03  0.00000000000E+00 0.  1.
        -13    1    3    3    0    0  0.13525917882E+03  0.14599709562E+02  0.23620741891E+03  0.27258419199E+03  0.00000000000E+00 0. -1.
         22    1    1    2    0    0 -0.46003081490E+03 -0.95066266671E+02 -0.91065221011E+03  0.10246723347E+04  0.00000000000E+00 0.  1.
<mgrwt>
<rscale>  0 0.17578691E+04</rscale>
<asrwt>0</asrwt>
<pdfrwt beam="1">  1        2 0.11297228E+00 0.17578691E+04</pdfrwt>
<pdfrwt beam="2">  1       -2 0.16185066E+00 0.17578691E+04</pdfrwt>
<totfact> 0.89060052E+00</totfact>
</mgrwt>
</event>
<event>
 6    1  0.1028026E-006  0.7578740E+03  0.7818608E-02  0.9623078E-01
         -2   -1    0    0    0  501 -0.00000000000E+00  0.00000000000E+00  0.90077296216E+03  0.90077296216E+03  0.00000000000E+00 0.  1.
          2   -1    0    0  501    0  0.00000000000E+00 -0.00000000000E+00 -0.15941116419E+03  0.15941116419E+03  0.00000000000E+00 0. -1.
         23    2    1    2    0    0 -0.22194602792E+03 -0.73833269086E+02  0.78302862257E+03  0.82259726812E+03  0.93920449395E+02 0.  0.
         11    1    3    3    0    0 -0.11636068662E+03 -0.85012069665E+02  0.49817312056E+03  0.51859745412E+03  0.00000000000E+00 0. -1.
        -11    1    3    3    0    0 -0.10558534130E+03  0.11178800579E+02  0.28485550202E+03  0.30399981399E+03  0.00000000000E+00 0.  1.
         22    1    1    2    0    0  0.22194602792E+03  0.73833269086E+02 -0.41666824593E+02  0.23758685823E+03  0.00000000000E+00 0. -1.
<mgrwt>
<rscale>  0 0.75787404E+03</rscale>
<asrwt>0</asrwt>
<pdfrwt beam="1">  1        2 0.24524795E-01 0.75787404E+03</pdfrwt>
<pdfrwt beam="2">  1       -2 0.13858045E+00 0.75787404E+03</pdfrwt>
<totfact> 0.83432109E+01</totfact>
</mgrwt>
</event>
<event>
 6    1  0.1028026E-006  0.7352948E+03  0.7818608E-02  0.9658707E-01
         -2   -1    0    0    0  501 -0.00000000000E+00  0.00000000000E+00  0.45660696283E+03  0.45660696283E+03  0.00000000000E+00 0.  1.
          2   -1    0    0  501    0  0.00000000000E+00 -0.00000000000E+00 -0.29601963673E+03  0.29601963673E+03  0.00000000000E+00 0. -1.
         23    2    1    2    0    0 -0.11328657347E+03 -0.32515167138E+03 -0.36422661557E+02  0.35592722677E+03  0.82462860465E+02 0.  0.
         11    1    3    3    0    0 -0.75724588566E+02 -0.15533966890E+03 -0.54175924351E+02  0.18110675533E+03  0.00000000000E+00 0. -1.
        -11    1    3    3    0    0 -0.37561984900E+02 -0.16981200248E+03  0.17753262794E+02  0.17482047144E+03  0.00000000000E+00 0.  1.
         22    1    1    2    0    0  0.11328657347E+03  0.32515167138E+03  0.19700998766E+03  0.39669937278E+03  0.00000000000E+00 0.  1.
<mgrwt>
<rscale>  0 0.73529484E+03</rscale>
<asrwt>0</asrwt>
<pdfrwt beam="1">  1        2 0.45541482E-01 0.73529484E+03</pdfrwt>
<pdfrwt beam="2">  1       -2 0.70247225E-01 0.73529484E+03</pdfrwt>
<totfact> 0.20748171E+02</totfact>
</mgrwt>
</event>
<event>
 6    1  0.1028026E-006  0.2868089E+04  0.7818608E-02  0.8282436E-01
          1   -1    0    0  501    0  0.00000000000E+00  0.00000000000E+00  0.13187416770E+04  0.13187416770E+04  0.00000000000E+00 0. -1.
         -1   -1    0    0    0  501 -0.00000000000E+00 -0.00000000000E+00 -0.15594291802E+04  0.15594291802E+04  0.00000000000E+00 0.  1.
         23    2    1    2    0    0  0.59322804951E+03  0.11537896746E+03  0.11829400021E+04  0.13315787653E+04  0.92320825079E+02 0.  0.
         13    1    3    3    0    0  0.22946782169E+03  0.89883781260E+02  0.45815777643E+03  0.52023372000E+03  0.00000000000E+00 0. -1.
        -13    1    3    3    0    0  0.36376022783E+03  0.25495186196E+02  0.72478222570E+03  0.81134504531E+03  0.00000000000E+00 0.  1.
         22    1    1    2    0    0 -0.59322804951E+03 -0.11537896746E+03 -0.14236275053E+04  0.15465920919E+04  0.00000000000E+00 0.  1.
<mgrwt>
<rscale>  0 0.28680894E+04</rscale>
<asrwt>0</asrwt>
<pdfrwt beam="1">  1        1 0.20288334E+00 0.28680894E+04</pdfrwt>
<pdfrwt beam="2">  1       -1 0.23991218E+00 0.28680894E+04</pdfrwt>
<totfact> 0.61285550E-01</totfact>
</mgrwt>
</event>
<event>
 6    1  0.1048078E-006  0.1629429E+04  0.7818608E-02  0.8802670E-01
          2   -1    0    0  501    0  0.00000000000E+00  0.00000000000E+00  0.10005186211E+04  0.10005186211E+04  0.00000000000E+00 0. -1.
         -2   -1    0    0    0  501 -0.00000000000E+00 -0.00000000000E+00 -0.66341562860E+03  0.66341562860E+03  0.00000000000E+00 0.  1.
         23    2    1    2    0    0  0.42447276541E+03  0.69190616529E+03  0.19732613773E+03  0.84025419087E+03  0.90433569590E+02 0.  0.
         11    1    3    3    0    0  0.12122465045E+03  0.27629414458E+03  0.87919582240E+02  0.31426696159E+03  0.00000000000E+00 0. -1.
        -11    1    3    3    0    0  0.30324811496E+03  0.41561202071E+03  0.10940655549E+03  0.52598722928E+03  0.00000000000E+00 0.  1.
         22    1    1    2    0    0 -0.42447276541E+03 -0.69190616529E+03  0.13977685474E+03  0.82368005880E+03  0.00000000000E+00 0. -1.
<mgrwt>
<rscale>  0 0.16294290E+04</rscale>
<asrwt>0</asrwt>
<pdfrwt beam="1">  1        2 0.15392594E+00 0.16294290E+04</pdfrwt>
<pdfrwt beam="2">  1       -2 0.10206394E+00 0.16294290E+04</pdfrwt>
<totfact> 0.18949568E+01</totfact>
</mgrwt>
</event>
<event>
 6    1  0.1028026E-006  0.6215203E+03  0.7818608E-02  0.9861738E-01
          1   -1    0    0  501    0  0.00000000000E+00  0.00000000000E+00  0.16275612172E+04  0.16275612172E+04  0.00000000000E+00 0. -1.
         -1   -1    0    0    0  501 -0.00000000000E+00 -0.00000000000E+00 -0.59335313796E+02  0.59335313796E+02  0.00000000000E+00 0.  1.
         23    2    1    2    0    0 -0.21874400381E+03 -0.20611741498E+03  0.92526161507E+03  0.97715263068E+03  0.91568986954E+02 0.  0.
         11    1    3    3    0    0 -0.21963043606E+03 -0.17549208198E+03  0.86518915814E+03  0.90971824135E+03  0.00000000000E+00 0. -1.
        -11    1    3    3    0    0  0.88643225278E+00 -0.30625332995E+02  0.60072456930E+02  0.67434389334E+02  0.00000000000E+00 0.  1.
         22    1    1    2    0    0  0.21874400381E+03  0.20611741498E+03  0.64296428833E+03  0.70974390031E+03  0.00000000000E+00 0.  1.
<mgrwt>
<rscale>  0 0.62152025E+03</rscale>
<asrwt>0</asrwt>
<pdfrwt beam="1">  1        1 0.25039400E+00 0.62152025E+03</pdfrwt>
<pdfrwt beam="2">  1       -1 0.91285110E-02 0.62152025E+03</pdfrwt>
<totfact> 0.40065128E+02</totfact>
</mgrwt>
</event>
<event>
 6    1  0.1028026E-006  0.2458960E+04  0.7818608E-02  0.8417754E-01
         -1   -1    0    0    0  501 -0.00000000000E+00  0.00000000000E+00  0.56088983106E+03  0.56088983106E+03  0.00000000000E+00 0.  1.
          1   -1    0    0  501    0  0.00000000000E+00 -0.00000000000E+00 -0.26950412633E+04  0.26950412633E+04  0.00000000000E+00 0. -1.
         23    2    1    2    0    0  0.36862962641E+03 -0.10219668729E+04 -0.31095553043E+03  0.11335863092E+04  0.89557176097E+02 0.  0.
         11    1    3    3    0    0  0.17637273047E+03 -0.54833477752E+03 -0.20619458162E+03  0.61179618647E+03  0.00000000000E+00 0. -1.
        -11    1    3    3    0    0  0.19225689593E+03 -0.47363209534E+03 -0.10476094881E+03  0.52179012272E+03  0.00000000000E+00 0.  1.
         22    1    1    2    0    0 -0.36862962641E+03  0.10219668729E+04 -0.18231959018E+04  0.21223447851E+04  0.00000000000E+00 0. -1.
<mgrwt>
<rscale>  0 0.24589601E+04</rscale>
<asrwt>0</asrwt>
<pdfrwt beam="1">  1        1 0.41462173E+00 0.24589601E+04</pdfrwt>
<pdfrwt beam="2">  1       -1 0.86290744E-01 0.24589601E+04</pdfrwt>
<totfact> 0.11683920E+00</totfact>
</mgrwt>
</event>
<event>
 6    1  0.1028026E-006  0.2940153E+04  0.7818608E-02  0.8261030E-01
         -2   -1    0    0    0  501 -0.00000000000E+00  0.00000000000E+00  0.19911320884E+04  0.19911320884E+04  0.00000000000E+00 0.  1.
          2   -1    0    0  501    0  0.00000000000E+00 -0.00000000000E+00 -0.10853746659E+04  0.10853746659E+04  0.00000000000E+00 0. -1.
         23    2    1    2    0    0  0.12319494014E+04  0.77879382272E+03  0.63982868192E+03  0.15949746956E+04  0.10170738250E+03 0.  0.
         13    1    3    3    0    0  0.30388030048E+03  0.17640221333E+03  0.10968278360E+03  0.36809141650E+03  0.00000000000E+00 0. -1.
        -13    1    3    3    0    0  0.92806910087E+03  0.60239160939E+03  0.53014589832E+03  0.12268832791E+04  0.00000000000E+00 0.  1.
         22    1    1    2    0    0 -0.12319494014E+04 -0.77879382272E+03  0.26592874060E+03  0.14815320587E+04  0.00000000000E+00 0. -1.
<mgrwt>
<rscale>  0 0.29401526E+04</rscale>
<asrwt>0</asrwt>
<pdfrwt beam="1">  1        2 0.16698072E+00 0.29401526E+04</pdfrwt>
<pdfrwt beam="2">  1       -2 0.30632801E+00 0.29401526E+04</pdfrwt>
<totfact> 0.55619432E-01</totfact>
</mgrwt>
</event>
<event>
 6    1  0.1028026E-006  0.1820881E+04  0.7818608E-02  0.8695273E-01
         -1   -1    0    0    0  501 -0.00000000000E+00  0.00000000000E+00  0.66884422531E+03  0.66884422531E+03  0.00000000000E+00 0.  1.
          1   -1    0    0  501    0  0.00000000000E+00 -0.00000000000E+00 -0.12393054037E+04  0.12393054037E+04  0.00000000000E+00 0. -1.
         23    2    1    2    0    0 -0.89612676648E+03  0.77152689829E+02 -0.41758719762E+03  0.99580858907E+03  0.90884318287E+02 0.  0.
         11    1    3    3    0    0 -0.66102140892E+03  0.25595688475E+02 -0.27789708782E+03  0.71751741006E+03  0.00000000000E+00 0. -1.
        -11    1    3    3    0    0 -0.23510535755E+03  0.51557001354E+02 -0.13969010980E+03  0.27829117901E+03  0.00000000000E+00 0.  1.
         22    1    1    2    0    0  0.89612676648E+03 -0.77152689829E+02 -0.15287398076E+03  0.91234103993E+03  0.00000000000E+00 0. -1.
<mgrwt>
<rscale>  0 0.18208814E+04</rscale>
<asrwt>0</asrwt>
<pdfrwt beam="1">  1        1 0.19066237E+00 0.18208814E+04</pdfrwt>
<pdfrwt beam="2">  1       -1 0.10289911E+00 0.18208814E+04</pdfrwt>
<totfact> 0.84088979E+00</totfact>
</mgrwt>
</event>
<event>
 6    1  0.1028026E-006  0.1792911E+04  0.7818608E-02  0.8710078E-01
          2   -1    0    0  501    0  0.00000000000E+00  0.00000000000E+00  0.17265826582E+04  0.17265826582E+04  0.00000000000E+00 0. -1.
         -2   -1    0    0    0  501 -0.00000000000E+00 -0.00000000000E+00 -0.46544703073E+03  0.46544703073E+03  0.00000000000E+00 0.  1.
         23    2    1    2    0    0 -0.46544985080E+03 -0.75008014069E+03  0.80578708666E+03  0.11987492277E+04  0.91886347421E+02 0.  0.
         13    1    3    3    0    0 -0.13015586919E+03 -0.26527553142E+03  0.22667986127E+03  0.37241833650E+03  0.00000000000E+00 0.  1.
        -13    1    3    3    0    0 -0.33529398161E+03 -0.48480460927E+03  0.57910722539E+03  0.82633089121E+03  0.00000000000E+00 0. -1.
         22    1    1    2    0    0  0.46544985080E+03  0.75008014069E+03  0.45534854085E+03  0.99328046126E+03  0.00000000000E+00 0.  1.
<mgrwt>
<rscale>  0 0.17929113E+04</rscale>
<asrwt>0</asrwt>
<pdfrwt beam="1">  1        2 0.26562810E+00 0.17929113E+04</pdfrwt>
<pdfrwt beam="2">  1       -2 0.71607236E-01 0.17929113E+04</pdfrwt>
<totfact> 0.15834159E+01</totfact>
</mgrwt>
</event>
<event>
 6    1  0.1028026E-006  0.1285117E+04  0.7818608E-02  0.9041451E-01
         -1   -1    0    0    0  501 -0.00000000000E+00  0.00000000000E+00  0.37112078566E+03  0.37112078566E+03  0.00000000000E+00 0.  1.
          1   -1    0    0  501    0  0.00000000000E+00 -0.00000000000E+00 -0.11125258657E+04  0.11125258657E+04  0.00000000000E+00 0. -1.
         23    2    1    2    0    0  0.65045895549E+02  0.48263939635E+03  0.10623185121E+03  0.50606794728E+03  0.87451733031E+02 0.  0.
         13    1    3    3    0    0  0.27997592029E+02  0.37544660560E+03  0.11112900049E+03  0.39254767043E+03  0.00000000000E+00 0. -1.
        -13    1    3    3    0    0  0.37048303520E+02  0.10719279075E+03 -0.48971492743E+01  0.11352027684E+03  0.00000000000E+00 0.  1.
         22    1    1    2    0    0 -0.65045895549E+02 -0.48263939635E+03 -0.84763693124E+03  0.97757870406E+03  0.00000000000E+00 0.  1.
<mgrwt>
<rscale>  0 0.12851171E+04</rscale>
<asrwt>0</asrwt>
<pdfrwt beam="1">  1        1 0.17115782E+00 0.12851171E+04</pdfrwt>
<pdfrwt beam="2">  1       -1 0.57095507E-01 0.12851171E+04</pdfrwt>
<totfact> 0.37899733E+01</totfact>
</mgrwt>
</event>
<event>
 6    1  0.1028026E-006  0.2438829E+04  0.7818608E-02  0.8425108E-01
         -1   -1    0    0    0  501 -0.00000000000E+00  0.00000000000E+00  0.11000940583E+04  0.11000940583E+04  0.00000000000E+00 0.  1.
          1   -1    0    0  501    0  0.00000000000E+00 -0.00000000000E+00 -0.13516771819E+04  0.13516771819E+04  0.00000000000E+00 0. -1.
         23    2    1    2    0    0  0.71176629969E+03 -0.98702721736E+03 -0.10478779604E+03  0.12260539557E+04  0.10674187053E+03 0.  0.
         13    1    3    3    0    0  0.31087818252E+03 -0.51133478752E+03 -0.25885464849E+02  0.59898127399E+03  0.00000000000E+00 0. -1.
        -13    1    3    3    0    0  0.40088811717E+03 -0.47569242984E+03 -0.78902331188E+02  0.62707268172E+03  0.00000000000E+00 0.  1.
         22    1    1    2    0    0 -0.71176629969E+03  0.98702721736E+03 -0.14679532755E+03  0.12257172844E+04  0.00000000000E+00 0.  1.
<mgrwt>
<rscale>  0 0.24388293E+04</rscale>
<asrwt>0</asrwt>
<pdfrwt beam="1">  1        1 0.20795034E+00 0.24388293E+04</pdfrwt>
<pdfrwt beam="2">  1       -1 0.16924524E+00 0.24388293E+04</pdfrwt>
<totfact> 0.18500370E+00</totfact>
</mgrwt>
</event>
<event>
 6    1  0.1028026E-006  0.2244390E+04  0.7818608E-02  0.8500176E-01
          1   -1    0    0  501    0  0.00000000000E+00  0.00000000000E+00  0.68723650988E+03  0.68723650988E+03  0.00000000000E+00 0. -1.
         -1   -1    0    0    0  501 -0.00000000000E+00 -0.00000000000E+00 -0.18324421190E+04  0.18324421190E+04  0.00000000000E+00 0.  1.
         23    2    1    2    0    0 -0.11140765867E+03 -0.55741738017E+03  0.51011122054E+03  0.76947875211E+03  0.93585738766E+02 0.  0.
         11    1    3    3    0    0 -0.36368052094E+02 -0.37450877375E+03  0.36517677468E+03  0.52434104703E+03  0.00000000000E+00 0. -1.
        -11    1    3    3    0    0 -0.75039606573E+02 -0.18290860642E+03  0.14493444586E+03  0.24513770508E+03  0.00000000000E+00 0.  1.
         22    1    1    2    0    0  0.11140765867E+03  0.55741738017E+03 -0.16553168296E+04  0.17501998768E+04  0.00000000000E+00 0.  1.
<mgrwt>
<rscale>  0 0.22443896E+04</rscale>
<asrwt>0</asrwt>
<pdfrwt beam="1">  1        1 0.10572869E+00 0.22443896E+04</pdfrwt>
<pdfrwt beam="2">  1       -1 0.28191417E+00 0.22443896E+04</pdfrwt>
<totfact> 0.11007767E+00</totfact>
</mgrwt>
</event>
<event>
 6    1  0.1028026E-006  0.4466220E+04  0.7818608E-02  0.7916577E-01
          1   -1    0    0  501    0  0.00000000000E+00  0.00000000000E+00  0.36784698056E+04  0.36784698056E+04  0.00000000000E+00 0. -1.
         -1   -1    0    0    0  501 -0.00000000000E+00 -0.00000000000E+00 -0.13556670923E+04  0.13556670923E+04  0.00000000000E+00 0.  1.
         23    2    1    2    0    0 -0.21784908894E+04 -0.32278009966E+03  0.75139093692E+03  0.23287081853E+04  0.91016064986E+02 0.  0.
         13    1    3    3    0    0 -0.10251725703E+04 -0.19508051870E+03  0.37216915517E+03  0.11079463379E+04  0.00000000000E+00 0. -1.
        -13    1    3    3    0    0 -0.11533183191E+04 -0.12769958096E+03  0.37922178174E+03  0.12207618473E+04  0.00000000000E+00 0.  1.
         22    1    1    2    0    0  0.21784908894E+04  0.32278009966E+03  0.15714117764E+04  0.27054287126E+04  0.00000000000E+00 0. -1.
<mgrwt>
<rscale>  0 0.44662201E+04</rscale>
<asrwt>0</asrwt>
<pdfrwt beam="1">  1        1 0.56591843E+00 0.44662201E+04</pdfrwt>
<pdfrwt beam="2">  1       -1 0.20856417E+00 0.44662201E+04</pdfrwt>
<totfact> 0.17765481E-02</totfact>
</mgrwt>
</event>
<event>
 6    1  0.1028026E-006  0.2599305E+04  0.7818608E-02  0.8368437E-01
          2   -1    0    0  501    0  0.00000000000E+00  0.00000000000E+00  0.18563513269E+04  0.18563513269E+04  0.00000000000E+00 0. -1.
         -2   -1    0    0    0  501 -0.00000000000E+00 -0.00000000000E+00 -0.90990112080E+03  0.90990112080E+03  0.00000000000E+00 0.  1.
         23    2    1    2    0    0 -0.12075432650E+04  0.15581506611E+03 -0.62119165861E+01  0.12202886087E+04  0.81404109217E+02 0.  0.
         13    1    3    3    0    0 -0.75710211041E+03  0.13679156792E+03 -0.10208996462E+02  0.76942820474E+03  0.00000000000E+00 0.  1.
        -13    1    3    3    0    0 -0.45044115454E+03  0.19023498188E+02  0.39970798755E+01  0.45086040394E+03  0.00000000000E+00 0. -1.
         22    1    1    2    0    0  0.12075432650E+04 -0.15581506611E+03  0.95266212271E+03  0.15459638390E+04  0.00000000000E+00 0.  1.
<mgrwt>
<rscale>  0 0.25993046E+04</rscale>
<asrwt>0</asrwt>
<pdfrwt beam="1">  1        2 0.28559251E+00 0.25993046E+04</pdfrwt>
<pdfrwt beam="2">  1       -2 0.13998479E+00 0.25993046E+04</pdfrwt>
<totfact> 0.25520046E+00</totfact>
</mgrwt>
</event>
<event>
 6    1  0.1028026E-006  0.2752268E+04  0.7818608E-02  0.8318242E-01
         -2   -1    0    0    0  501 -0.00000000000E+00  0.00000000000E+00  0.12551015728E+04  0.12551015728E+04  0.00000000000E+00 0.  1.
          2   -1    0    0  501    0  0.00000000000E+00 -0.00000000000E+00 -0.15088374786E+04  0.15088374786E+04  0.00000000000E+00 0. -1.
         23    2    1    2    0    0  0.31385657393E+03 -0.29170273933E+03  0.11844896331E+04  0.12632428337E+04  0.95761834279E+02 0.  0.
         11    1    3    3    0    0  0.13372571166E+03 -0.11328801316E+03  0.62268693749E+03  0.64688156722E+03  0.00000000000E+00 0. -1.
        -11    1    3    3    0    0  0.18013086227E+03 -0.17841472616E+03  0.56180269561E+03  0.61636126650E+03  0.00000000000E+00 0.  1.
         22    1    1    2    0    0 -0.31385657393E+03  0.29170273933E+03 -0.14382255389E+04  0.15006962177E+04  0.00000000000E+00 0. -1.
<mgrwt>
<rscale>  0 0.27522676E+04</rscale>
<asrwt>0</asrwt>
<pdfrwt beam="1">  1        2 0.23212884E+00 0.27522676E+04</pdfrwt>
<pdfrwt beam="2">  1       -2 0.19309255E+00 0.27522676E+04</pdfrwt>
<totfact> 0.16201934E+00</totfact>
</mgrwt>
</event>
<event>
 6    1  0.1028026E-006  0.2721890E+04  0.7818608E-02  0.8327937E-01
          1   -1    0    0  501    0  0.00000000000E+00  0.00000000000E+00  0.20701122607E+04  0.20701122607E+04  0.00000000000E+00 0. -1.
         -1   -1    0    0    0  501 -0.00000000000E+00 -0.00000000000E+00 -0.89472001731E+03  0.89472001731E+03  0.00000000000E+00 0.  1.
         23    2    1    2    0    0  0.76622005894E+03 -0.69604322611E+03 -0.36889767878E+03  0.11056924998E+04  0.12206987868E+03 0.  0.
         13    1    3    3    0    0  0.43694193997E+03 -0.47020317029E+03 -0.20180385515E+03  0.67285516733E+03  0.00000000000E+00 0.  1.
        -13    1    3    3    0    0  0.32927811897E+03 -0.22584005581E+03 -0.16709382364E+03  0.43283733242E+03  0.00000000000E+00 0. -1.
         22    1    1    2    0    0 -0.76622005894E+03  0.69604322611E+03  0.15442899221E+04  0.18591397782E+04  0.00000000000E+00 0. -1.
<mgrwt>
<rscale>  0 0.27218897E+04</rscale>
<asrwt>0</asrwt>
<pdfrwt beam="1">  1        1 0.31847881E+00 0.27218897E+04</pdfrwt>
<pdfrwt beam="2">  1       -1 0.13764923E+00 0.27218897E+04</pdfrwt>
<totfact> 0.10194712E+00</totfact>
</mgrwt>
</event>
<event>
 6    1  0.1028026E-006  0.3246255E+03  0.7818608E-02  0.1073540E+00
         -1   -1    0    0    0  501 -0.00000000000E+00  0.00000000000E+00  0.10757603075E+03  0.10757603075E+03  0.00000000000E+00 0.  1.
          1   -1    0    0  501    0  0.00000000000E+00 -0.00000000000E+00 -0.24490048347E+03  0.24490048347E+03  0.00000000000E+00 0. -1.
         23    2    1    2    0    0 -0.19827695735E+02 -0.14547264374E+03 -0.10188916551E+03  0.20144311667E+03  0.92965045091E+02 0.  0.
         13    1    3    3    0    0  0.20490292310E+02 -0.92385493068E+02 -0.21558080139E+02  0.97055047409E+02  0.00000000000E+00 0.  1.
        -13    1    3    3    0    0 -0.40317988044E+02 -0.53087150674E+02 -0.80331085368E+02  0.10438806926E+03  0.00000000000E+00 0. -1.
         22    1    1    2    0    0  0.19827695735E+02  0.14547264374E+03 -0.35435287217E+02  0.15103339755E+03  0.00000000000E+00 0.  1.
<mgrwt>
<rscale>  0 0.32462546E+03</rscale>
<asrwt>0</asrwt>
<pdfrwt beam="1">  1        1 0.37676997E-01 0.32462546E+03</pdfrwt>
<pdfrwt beam="2">  1       -1 0.16550159E-01 0.32462546E+03</pdfrwt>
<totfact> 0.31134871E+03</totfact>
</mgrwt>
</event>
<event>
 6    1  0.1028026E-006  0.2550006E+04  0.7818608E-02  0.8385384E-01
          2   -1    0    0  501    0  0.00000000000E+00  0.00000000000E+00  0.13574201568E+04  0.13574201568E+04  0.00000000000E+00 0. -1.
         -2   -1    0    0    0  501 -0.00000000000E+00 -0.00000000000E+00 -0.11975898787E+04  0.11975898787E+04  0.00000000000E+00 0.  1.
         23    2    1    2    0    0  0.57238760074E+03 -0.12420321873E+03 -0.10526116616E+04  0.12085073574E+04  0.97183938061E+02 0.  0.
         11    1    3    3    0    0  0.11387258587E+03 -0.65224978388E+02 -0.22011865095E+03  0.25626838298E+03  0.00000000000E+00 0. -1.
        -11    1    3    3    0    0  0.45851501487E+03 -0.58978240346E+02 -0.83249301064E+03  0.95223897445E+03  0.00000000000E+00 0.  1.
         22    1    1    2    0    0 -0.57238760074E+03  0.12420321873E+03  0.12124419397E+04  0.13465026781E+04  0.00000000000E+00 0. -1.
<mgrwt>
<rscale>  0 0.25500060E+04</rscale>
<asrwt>0</asrwt>
<pdfrwt beam="1">  1        2 0.20883387E+00 0.25500060E+04</pdfrwt>
<pdfrwt beam="2">  1       -2 0.18424460E+00 0.25500060E+04</pdfrwt>
<totfact> 0.23058639E+00</totfact>
</mgrwt>
</event>
<event>
 6    1  0.1028026E-006  0.1481282E+04  0.7818608E-02  0.8896996E-01
         -2   -1    0    0    0  501 -0.00000000000E+00  0.00000000000E+00  0.89754734405E+03  0.89754734405E+03  0.00000000000E+00 0.  1.
          2   -1    0    0  501    0  0.00000000000E+00 -0.00000000000E+00 -0.61116472384E+03  0.61116472384E+03  0.00000000000E+00 0. -1.
         23    2    1    2    0    0  0.44992264647E+03 -0.19122636677E+03 -0.41968116410E+03  0.64991990521E+03  0.85239031778E+02 0.  0.
         13    1    3    3    0    0  0.19895769919E+03 -0.88098400496E+02 -0.13212828203E+03  0.25456507449E+03  0.00000000000E+00 0.  1.
        -13    1    3    3    0    0  0.25096494728E+03 -0.10312796627E+03 -0.28755288207E+03  0.39535483072E+03  0.00000000000E+00 0. -1.
         22    1    1    2    0    0 -0.44992264647E+03  0.19122636677E+03  0.70606378430E+03  0.85879216267E+03  0.00000000000E+00 0.  1.
<mgrwt>
<rscale>  0 0.14812822E+04</rscale>
<asrwt>0</asrwt>
<pdfrwt beam="1">  1        2 0.94025342E-01 0.14812822E+04</pdfrwt>
<pdfrwt beam="2">  1       -2 0.13808421E+00 0.14812822E+04</pdfrwt>
<totfact> 0.17457238E+01</totfact>
</mgrwt>
</event>
<event>
 6    1  0.1028026E-006  0.1268709E+04  0.7818608E-02  0.9054754E-01
         -2   -1    0    0    0  501 -0.00000000000E+00  0.00000000000E+00  0.47695200391E+03  0.47695200391E+03  0.00000000000E+00 0.  1.
          2   -1    0    0  501    0  0.00000000000E+00 -0.00000000000E+00 -0.84370196443E+03  0.84370196443E+03  0.00000000000E+00 0. -1.
         23    2    1    2    0    0 -0.25303819091E+03  0.22045243685E+03  0.37191079531E+03  0.50932954792E+03  0.92039913897E+02 0.  0.
         11    1    3    3    0    0 -0.19118355228E+03  0.19728124557E+03  0.33644748591E+03  0.43435924221E+03  0.00000000000E+00 0. -1.
        -11    1    3    3    0    0 -0.61854638635E+02  0.23171191275E+02  0.35463309398E+02  0.74970305716E+02  0.00000000000E+00 0.  1.
         22    1    1    2    0    0  0.25303819091E+03 -0.22045243685E+03 -0.73866075583E+03  0.81132442042E+03  0.00000000000E+00 0. -1.
<mgrwt>
<rscale>  0 0.12687085E+04</rscale>
<asrwt>0</asrwt>
<pdfrwt beam="1">  1        2 0.12980030E+00 0.12687085E+04</pdfrwt>
<pdfrwt beam="2">  1       -2 0.73377231E-01 0.12687085E+04</pdfrwt>
<totfact> 0.52806868E+01</totfact>
</mgrwt>
</event>
<event>
 6    1  0.1028026E-006  0.1406679E+04  0.7818608E-02  0.8948998E-01
         -1   -1    0    0    0  501 -0.00000000000E+00  0.00000000000E+00  0.43453202825E+03  0.43453202825E+03  0.00000000000E+00 0.  1.
          1   -1    0    0  501    0  0.00000000000E+00 -0.00000000000E+00 -0.11384346485E+04  0.11384346485E+04  0.00000000000E+00 0. -1.
         23    2    1    2    0    0  0.48959227054E+02  0.69426402513E+03 -0.44061002710E+03  0.82884132971E+03  0.91876065155E+02 0.  0.
         11    1    3    3    0    0  0.75950147470E+02  0.46332042122E+03 -0.29634414328E+03  0.55520634802E+03  0.00000000000E+00 0. -1.
        -11    1    3    3    0    0 -0.26990920416E+02  0.23094360391E+03 -0.14426588382E+03  0.27363498169E+03  0.00000000000E+00 0.  1.
         22    1    1    2    0    0 -0.48959227054E+02 -0.69426402513E+03 -0.26329259314E+03  0.74412534704E+03  0.00000000000E+00 0. -1.
<mgrwt>
<rscale>  0 0.14066788E+04</rscale>
<asrwt>0</asrwt>
<pdfrwt beam="1">  1        1 0.17514379E+00 0.14066788E+04</pdfrwt>
<pdfrwt beam="2">  1       -1 0.66851082E-01 0.14066788E+04</pdfrwt>
<totfact> 0.26214146E+01</totfact>
</mgrwt>
</event>
<event>
 6    1  0.1028026E-006  0.3542187E+04  0.7818608E-02  0.8103864E-01
         -2   -1    0    0    0  501 -0.00000000000E+00  0.00000000000E+00  0.12999123644E+04  0.12999123644E+04  0.00000000000E+00 0.  1.
          2   -1    0    0  501    0  0.00000000000E+00 -0.00000000000E+00 -0.24130647687E+04  0.24130647687E+04  0.00000000000E+00 0. -1.
         23    2    1    2    0    0  0.13464907281E+04 -0.10613519618E+04 -0.96430818049E+02  0.17196813569E+04  0.92194353121E+02 0.  0.
         11    1    3    3    0    0  0.78266499096E+03 -0.67358135545E+03 -0.50409242746E+02  0.10338362647E+04  0.00000000000E+00 0.  1.
        -11    1    3    3    0    0  0.56382573715E+03 -0.38777060635E+03 -0.46021575304E+02  0.68584509214E+03  0.00000000000E+00 0. -1.
         22    1    1    2    0    0 -0.13464907281E+04  0.10613519618E+04 -0.10167215863E+04  0.19932957763E+04  0.00000000000E+00 0. -1.
<mgrwt>
<rscale>  0 0.35421873E+04</rscale>
<asrwt>0</asrwt>
<pdfrwt beam="1">  1        2 0.37124073E+00 0.35421873E+04</pdfrwt>
<pdfrwt beam="2">  1       -2 0.19998652E+00 0.35421873E+04</pdfrwt>
<totfact> 0.42563442E-01</totfact>
</mgrwt>
</event>
<event>
 6    1  0.1028026E-006  0.3728733E+04  0.7818608E-02  0.8061624E-01
         -2   -1    0    0    0  501 -0.00000000000E+00  0.00000000000E+00  0.31924944826E+04  0.31924944826E+04  0.00000000000E+00 0.  1.
          2   -1    0    0  501    0  0.00000000000E+00 -0.00000000000E+00 -0.10887605910E+04  0.10887605910E+04  0.00000000000E+00 0. -1.
         23    2    1    2    0    0 -0.82810186849E+03 -0.36194868977E+02  0.29684250988E+04  0.30834430446E+04  0.94924541798E+02 0.  0.
         13    1    3    3    0    0 -0.54026141267E+03 -0.12228538451E+02  0.17671436714E+04  0.18479255089E+04  0.00000000000E+00 0. -1.
        -13    1    3    3    0    0 -0.28784045582E+03 -0.23966330527E+02  0.12012814274E+04  0.12355175357E+04  0.00000000000E+00 0.  1.
         22    1    1    2    0    0  0.82810186849E+03  0.36194868977E+02 -0.86469120715E+03  0.11978120290E+04  0.00000000000E+00 0. -1.
<mgrwt>
<rscale>  0 0.37287329E+04</rscale>
<asrwt>0</asrwt>
<pdfrwt beam="1">  1        2 0.16750163E+00 0.37287329E+04</pdfrwt>
<pdfrwt beam="2">  1       -2 0.49115299E+00 0.37287329E+04</pdfrwt>
<totfact> 0.33452939E-02</totfact>
</mgrwt>
</event>
<event>
 6    1  0.1028026E-006  0.1934263E+04  0.7818608E-02  0.8637987E-01
         -1   -1    0    0    0  501 -0.00000000000E+00  0.00000000000E+00  0.59508847487E+03  0.59508847487E+03  0.00000000000E+00 0.  1.
          1   -1    0    0  501    0  0.00000000000E+00 -0.00000000000E+00 -0.15717712389E+04  0.15717712389E+04  0.00000000000E+00 0. -1.
         23    2    1    2    0    0 -0.37335539171E+03 -0.50653569863E+02 -0.14846706772E+04  0.15343948905E+04  0.90336191061E+02 0.  0.
         13    1    3    3    0    0 -0.34470314905E+03 -0.62598383359E+02 -0.12678765560E+04  0.13153895924E+04  0.00000000000E+00 0.  1.
        -13    1    3    3    0    0 -0.28652242656E+02  0.11944813496E+02 -0.21679412121E+03  0.21900529804E+03  0.00000000000E+00 0. -1.
         22    1    1    2    0    0  0.37335539171E+03  0.50653569863E+02  0.50798791325E+03  0.63246482326E+03  0.00000000000E+00 0.  1.
<mgrwt>
<rscale>  0 0.19342626E+04</rscale>
<asrwt>0</asrwt>
<pdfrwt beam="1">  1        1 0.24181096E+00 0.19342626E+04</pdfrwt>
<pdfrwt beam="2">  1       -1 0.91552073E-01 0.19342626E+04</pdfrwt>
<totfact> 0.63307846E+00</totfact>
</mgrwt>
</event>
<event>
 6    1  0.1028026E-006  0.3453252E+04  0.7818608E-02  0.8124959E-01
         -2   -1    0    0    0  501 -0.00000000000E+00  0.00000000000E+00  0.96420990250E+03  0.96420990250E+03  0.00000000000E+00 0.  1.
          2   -1    0    0  501    0  0.00000000000E+00 -0.00000000000E+00 -0.30918962734E+04  0.30918962734E+04  0.00000000000E+00 0. -1.
         23    2    1    2    0    0 -0.33117783191E+03  0.15363772754E+04 -0.22842388100E+03  0.15908816640E+04  0.92699033008E+02 0.  0.
         11    1    3    3    0    0 -0.28877667533E+03  0.12535811703E+04 -0.15553481109E+03  0.12957811529E+04  0.00000000000E+00 0.  1.
        -11    1    3    3    0    0 -0.42401156586E+02  0.28279610504E+03 -0.72889069911E+02  0.29510051104E+03  0.00000000000E+00 0. -1.
         22    1    1    2    0    0  0.33117783191E+03 -0.15363772754E+04 -0.18992624899E+04  0.24652245119E+04  0.00000000000E+00 0.  1.
<mgrwt>
<rscale>  0 0.34532518E+04</rscale>
<asrwt>0</asrwt>
<pdfrwt beam="1">  1        2 0.47567636E+00 0.34532518E+04</pdfrwt>
<pdfrwt beam="2">  1       -2 0.14833998E+00 0.34532518E+04</pdfrwt>
<totfact> 0.38729945E-01</totfact>
</mgrwt>
</event>
<event>
 6    1  0.1028026E-006  0.1898717E+04  0.7818608E-02  0.8655495E-01
         -2   -1    0    0    0  501 -0.00000000000E+00  0.00000000000E+00  0.53532156155E+03  0.53532156155E+03  0.00000000000E+00 0.  1.
          2   -1    0    0  501    0  0.00000000000E+00 -0.00000000000E+00 -0.16836260231E+04  0.16836260231E+04  0.00000000000E+00 0. -1.
         23    2    1    2    0    0 -0.46610790843E+03  0.33611736597E+03 -0.14552983738E+04  0.15674287989E+04  0.93317827894E+02 0.  0.
         13    1    3    3    0    0 -0.25561031641E+03  0.15095389515E+03 -0.85036720491E+03  0.90069311949E+03  0.00000000000E+00 0.  1.
        -13    1    3    3    0    0 -0.21049759203E+03  0.18516347082E+03 -0.60493116887E+03  0.66673567944E+03  0.00000000000E+00 0. -1.
         22    1    1    2    0    0  0.46610790843E+03 -0.33611736597E+03  0.30699391221E+03  0.65151878572E+03  0.00000000000E+00 0.  1.
<mgrwt>
<rscale>  0 0.18987167E+04</rscale>
<asrwt>0</asrwt>
<pdfrwt beam="1">  1        2 0.25901939E+00 0.18987167E+04</pdfrwt>
<pdfrwt beam="2">  1       -2 0.82357163E-01 0.18987167E+04</pdfrwt>
<totfact> 0.12143176E+01</totfact>
</mgrwt>
</event>
<event>
 6    1  0.1028026E-006  0.5382750E+03  0.7818608E-02  0.1004245E+00
         -1   -1    0    0    0  501 -0.00000000000E+00  0.00000000000E+00  0.62072392561E+02  0.62072392561E+02  0.00000000000E+00 0.  1.
          1   -1    0    0  501    0  0.00000000000E+00 -0.00000000000E+00 -0.11669437777E+04  0.11669437777E+04  0.00000000000E+00 0. -1.
         23    2    1    2    0    0 -0.19304428755E+03 -0.12791872754E+03 -0.29156574385E+03  0.38338305599E+03  0.91338309690E+02 0.  0.
         11    1    3    3    0    0 -0.15954398399E+02 -0.46605925272E+02 -0.92597163907E+02  0.10488512698E+03  0.00000000000E+00 0.  1.
        -11    1    3    3    0    0 -0.17708988915E+03 -0.81312802264E+02 -0.19896857995E+03  0.27849792900E+03  0.00000000000E+00 0. -1.
         22    1    1    2    0    0  0.19304428755E+03  0.12791872754E+03 -0.81330564127E+03  0.84563311426E+03  0.00000000000E+00 0. -1.
<mgrwt>
<rscale>  0 0.53827499E+03</rscale>
<asrwt>0</asrwt>
<pdfrwt beam="1">  1        1 0.17952980E+00 0.53827499E+03</pdfrwt>
<pdfrwt beam="2">  1       -1 0.95495994E-02 0.53827499E+03</pdfrwt>
<totfact> 0.78163603E+02</totfact>
</mgrwt>
</event>
<event>
 6    1  0.1028026E-006  0.3415809E+04  0.7818608E-02  0.8134037E-01
         -1   -1    0    0    0  501 -0.00000000000E+00  0.00000000000E+00  0.10083585718E+04  0.10083585718E+04  0.00000000000E+00 0.  1.
          1   -1    0    0  501    0  0.00000000000E+00 -0.00000000000E+00 -0.28927588451E+04  0.28927588451E+04  0.00000000000E+00 0. -1.
         23    2    1    2    0    0 -0.91098775490E+02  0.16097789787E+04 -0.15819557129E+04  0.22606418581E+04  0.90721471820E+02 0.  0.
         11    1    3    3    0    0 -0.37906872948E+02  0.64414616899E+03 -0.69578343538E+03  0.94893403722E+03  0.00000000000E+00 0.  1.
        -11    1    3    3    0    0 -0.53191902542E+02  0.96563280973E+03 -0.88617227756E+03  0.13117078208E+04  0.00000000000E+00 0. -1.
         22    1    1    2    0    0  0.91098775490E+02 -0.16097789787E+04 -0.30244456038E+03  0.16404755589E+04  0.00000000000E+00 0.  1.
<mgrwt>
<rscale>  0 0.34158092E+04</rscale>
<asrwt>0</asrwt>
<pdfrwt beam="1">  1        1 0.44503982E+00 0.34158092E+04</pdfrwt>
<pdfrwt beam="2">  1       -1 0.15513209E+00 0.34158092E+04</pdfrwt>
<totfact> 0.18691983E-01</totfact>
</mgrwt>
</event>
<event>
 6    1  0.1028026E-006  0.4846229E+04  0.7818608E-02  0.7852676E-01
          1   -1    0    0  501    0  0.00000000000E+00  0.00000000000E+00  0.26830380821E+04  0.26830380821E+04  0.00000000000E+00 0. -1.
         -1   -1    0    0    0  501 -0.00000000000E+00 -0.00000000000E+00 -0.21883709828E+04  0.21883709828E+04  0.00000000000E+00 0.  1.
         23    2    1    2    0    0  0.18202783971E+04  0.79859829906E+03 -0.11439608015E+04  0.22953123890E+04  0.92951391734E+02 0.  0.
         13    1    3    3    0    0  0.77273465642E+03  0.33244947596E+03 -0.43178433848E+03  0.94555762291E+03  0.00000000000E+00 0. -1.
        -13    1    3    3    0    0  0.10475437407E+04  0.46614882310E+03 -0.71217646302E+03  0.13497547661E+04  0.00000000000E+00 0.  1.
         22    1    1    2    0    0 -0.18202783971E+04 -0.79859829906E+03  0.16386279008E+04  0.25760966759E+04  0.00000000000E+00 0.  1.
<mgrwt>
<rscale>  0 0.48462285E+04</rscale>
<asrwt>0</asrwt>
<pdfrwt beam="1">  1        1 0.41277509E+00 0.48462285E+04</pdfrwt>
<pdfrwt beam="2">  1       -1 0.33667246E+00 0.48462285E+04</pdfrwt>
<totfact> 0.14031152E-02</totfact>
</mgrwt>
</event>
<event>
 6    1  0.1028026E-006  0.5063284E+04  0.7818608E-02  0.7818818E-01
         -2   -1    0    0    0  501 -0.00000000000E+00  0.00000000000E+00  0.19879364382E+04  0.19879364382E+04  0.00000000000E+00 0.  1.
          2   -1    0    0  501    0  0.00000000000E+00 -0.00000000000E+00 -0.32240529489E+04  0.32240529489E+04  0.00000000000E+00 0. -1.
         23    2    1    2    0    0 -0.12973671075E+03 -0.63447354209E+03  0.19001319479E+04  0.20095773768E+04  0.92257921912E+02 0.  0.
         13    1    3    3    0    0 -0.45160416033E+02 -0.13206965667E+03  0.52019533596E+03  0.53859543717E+03  0.00000000000E+00 0.  1.
        -13    1    3    3    0    0 -0.84576294721E+02 -0.50240388542E+03  0.13799366120E+04  0.14709819396E+04  0.00000000000E+00 0. -1.
         22    1    1    2    0    0  0.12973671075E+03  0.63447354209E+03 -0.31362484586E+04  0.32024120103E+04  0.00000000000E+00 0. -1.
<mgrwt>
<rscale>  0 0.50632844E+04</rscale>
<asrwt>0</asrwt>
<pdfrwt beam="1">  1        2 0.49600814E+00 0.50632844E+04</pdfrwt>
<pdfrwt beam="2">  1       -2 0.30583638E+00 0.50632844E+04</pdfrwt>
<totfact> 0.26488079E-02</totfact>
</mgrwt>
</event>
<event>
 6    1  0.1028026E-006  0.1066684E+04  0.7818608E-02  0.9238286E-01
          1   -1    0    0  501    0  0.00000000000E+00  0.00000000000E+00  0.27130263435E+04  0.27130263435E+04  0.00000000000E+00 0. -1.
         -1   -1    0    0    0  501 -0.00000000000E+00 -0.00000000000E+00 -0.10484739897E+03  0.10484739897E+03  0.00000000000E+00 0.  1.
         23    2    1    2    0    0 -0.42261136425E+03  0.81148382028E+02  0.21286922146E+04  0.21735966675E+04  0.89479067334E+02 0.  0.
         13    1    3    3    0    0 -0.21243229897E+02 -0.10432682696E+02  0.20399236024E+03  0.20536065524E+03  0.00000000000E+00 0. -1.
        -13    1    3    3    0    0 -0.40136813436E+03  0.91581064724E+02  0.19246998544E+04  0.19682360123E+04  0.00000000000E+00 0.  1.
         22    1    1    2    0    0  0.42261136425E+03 -0.81148382028E+02  0.47948672989E+03  0.64427707490E+03  0.00000000000E+00 0.  1.
<mgrwt>
<rscale>  0 0.10666841E+04</rscale>
<asrwt>0</asrwt>
<pdfrwt beam="1">  1        1 0.41738861E+00 0.10666841E+04</pdfrwt>
<pdfrwt beam="2">  1       -1 0.16130371E-01 0.10666841E+04</pdfrwt>
<totfact> 0.28413917E+01</totfact>
</mgrwt>
</event>
<event>
 6    1  0.1028026E-006  0.2541061E+04  0.7818608E-02  0.8388502E-01
         -2   -1    0    0    0  501 -0.00000000000E+00  0.00000000000E+00  0.12446378565E+04  0.12446378565E+04  0.00000000000E+00 0.  1.
          2   -1    0    0  501    0  0.00000000000E+00 -0.00000000000E+00 -0.12969620133E+04  0.12969620133E+04  0.00000000000E+00 0. -1.
         23    2    1    2    0    0  0.21909263764E+03 -0.54299392093E+03 -0.11519499295E+04  0.12957985927E+04  0.96236016827E+02 0.  0.
         11    1    3    3    0    0  0.11558680867E+03 -0.17010280352E+03 -0.36945432014E+03  0.42283775703E+03  0.00000000000E+00 0.  1.
        -11    1    3    3    0    0  0.10350582897E+03 -0.37289111741E+03 -0.78249560933E+03  0.87296083571E+03  0.00000000000E+00 0. -1.
         22    1    1    2    0    0 -0.21909263764E+03  0.54299392093E+03  0.10996257727E+04  0.12458012771E+04  0.00000000000E+00 0.  1.
<mgrwt>
<rscale>  0 0.25410612E+04</rscale>
<asrwt>0</asrwt>
<pdfrwt beam="1">  1        2 0.19953262E+00 0.25410612E+04</pdfrwt>
<pdfrwt beam="2">  1       -2 0.19148275E+00 0.25410612E+04</pdfrwt>
<totfact> 0.22353088E+00</totfact>
</mgrwt>
</event>
<event>
 6    1  0.1028026E-006  0.1635483E+04  0.7818608E-02  0.8799041E-01
         -2   -1    0    0    0  501 -0.00000000000E+00  0.00000000000E+00  0.14086460974E+04  0.14086460974E+04  0.00000000000E+00 0.  1.
          2   -1    0    0  501    0  0.00000000000E+00 -0.00000000000E+00 -0.47471208731E+03  0.47471208731E+03  0.00000000000E+00 0. -1.
         23    2    1    2    0    0  0.56013743864E+03 -0.37492679923E+03 -0.60813281402E+02  0.68175665806E+03  0.82278980712E+02 0.  0.
         13    1    3    3    0    0  0.35501244350E+03 -0.20047031058E+03 -0.62536848811E+02  0.41247186319E+03  0.00000000000E+00 0. -1.
        -13    1    3    3    0    0  0.20512499513E+03 -0.17445648865E+03  0.17235674089E+01  0.26928479487E+03  0.00000000000E+00 0.  1.
         22    1    1    2    0    0 -0.56013743864E+03  0.37492679923E+03  0.99474729149E+03  0.12016015267E+04  0.00000000000E+00 0.  1.
<mgrwt>
<rscale>  0 0.16354832E+04</rscale>
<asrwt>0</asrwt>
<pdfrwt beam="1">  1        2 0.73032629E-01 0.16354832E+04</pdfrwt>
<pdfrwt beam="2">  1       -2 0.21671478E+00 0.16354832E+04</pdfrwt>
<totfact> 0.64811556E+00</totfact>
</mgrwt>
</event>
<event>
 6    1  0.1028026E-006  0.1318510E+04  0.7818608E-02  0.9015014E-01
         -2   -1    0    0    0  501 -0.00000000000E+00  0.00000000000E+00  0.31320470956E+03  0.31320470956E+03  0.00000000000E+00 0.  1.
          2   -1    0    0  501    0  0.00000000000E+00 -0.00000000000E+00 -0.13876446497E+04  0.13876446497E+04  0.00000000000E+00 0. -1.
         23    2    1    2    0    0  0.11495343890E+03  0.35186159858E+03 -0.12386203777E+04  0.12959097418E+04  0.90447449774E+02 0.  0.
         13    1    3    3    0    0  0.31902722978E+02  0.38466664532E+02 -0.26665009616E+03  0.27129272345E+03  0.00000000000E+00 0. -1.
        -13    1    3    3    0    0  0.83050715925E+02  0.31339493405E+03 -0.97197028157E+03  0.10246170184E+04  0.00000000000E+00 0.  1.
         22    1    1    2    0    0 -0.11495343890E+03 -0.35186159858E+03  0.16418043759E+03  0.40493961742E+03  0.00000000000E+00 0.  1.
<mgrwt>
<rscale>  0 0.13185095E+04</rscale>
<asrwt>0</asrwt>
<pdfrwt beam="1">  1        2 0.21348379E+00 0.13185095E+04</pdfrwt>
<pdfrwt beam="2">  1       -2 0.48185340E-01 0.13185095E+04</pdfrwt>
<totfact> 0.58729797E+01</totfact>
</mgrwt>
</event>
<event>
 6    1  0.1028026E-006  0.1047812E+04  0.7818608E-02  0.9257606E-01
          2   -1    0    0  501    0  0.00000000000E+00  0.00000000000E+00  0.20385948675E+04  0.20385948675E+04  0.00000000000E+00 0. -1.
         -2   -1    0    0    0  501 -0.00000000000E+00 -0.00000000000E+00 -0.13464063238E+03  0.13464063238E+03  0.00000000000E+00 0.  1.
         23    2    1    2    0    0 -0.40972999972E+03  0.24630481189E+03  0.13830707502E+04  0.14662246528E+04  0.91571280214E+02 0.  0.
         11    1    3    3    0    0 -0.83936664911E+02  0.90711101116E+02  0.41540412917E+03  0.43339872878E+03  0.00000000000E+00 0. -1.
        -11    1    3    3    0    0 -0.32579333481E+03  0.15559371078E+03  0.96766662101E+03  0.10328259240E+04  0.00000000000E+00 0.  1.
         22    1    1    2    0    0  0.40972999972E+03 -0.24630481189E+03  0.52088348492E+03  0.70701084708E+03  0.00000000000E+00 0.  1.
<mgrwt>
<rscale>  0 0.10478124E+04</rscale>
<asrwt>0</asrwt>
<pdfrwt beam="1">  1        2 0.31362996E+00 0.10478124E+04</pdfrwt>
<pdfrwt beam="2">  1       -2 0.20713945E-01 0.10478124E+04</pdfrwt>
<totfact> 0.12764811E+02</totfact>
</mgrwt>
</event>
<event>
 6    1  0.1028026E-006  0.1877000E+04  0.7818608E-02  0.8666391E-01
          2   -1    0    0  501    0  0.00000000000E+00  0.00000000000E+00  0.10995125310E+04  0.10995125310E+04  0.00000000000E+00 0. -1.
         -2   -1    0    0    0  501 -0.00000000000E+00 -0.00000000000E+00 -0.80106592094E+03  0.80106592094E+03  0.00000000000E+00 0.  1.
         23    2    1    2    0    0 -0.42442528905E+03 -0.34618759605E+03  0.91843574580E+03  0.10733123484E+04  0.92154763532E+02 0.  0.
         11    1    3    3    0    0 -0.68193447882E+02 -0.81136955118E+02  0.12322283596E+03  0.16253436289E+03  0.00000000000E+00 0.  1.
        -11    1    3    3    0    0 -0.35623184117E+03 -0.26505064094E+03  0.79521290984E+03  0.91077798552E+03  0.00000000000E+00 0. -1.
         22    1    1    2    0    0  0.42442528905E+03  0.34618759605E+03 -0.61998913573E+03  0.82726610354E+03  0.00000000000E+00 0.  1.
<mgrwt>
<rscale>  0 0.18769998E+04</rscale>
<asrwt>0</asrwt>
<pdfrwt beam="1">  1        2 0.16915577E+00 0.18769998E+04</pdfrwt>
<pdfrwt beam="2">  1       -2 0.12324091E+00 0.18769998E+04</pdfrwt>
<totfact> 0.10164216E+01</totfact>
</mgrwt>
</event>
<event>
 6    1  0.1028026E-006  0.2266193E+04  0.7818608E-02  0.8491371E-01
         -2   -1    0    0    0  501 -0.00000000000E+00  0.00000000000E+00  0.94771207084E+03  0.94771207084E+03  0.00000000000E+00 0.  1.
          2   -1    0    0  501    0  0.00000000000E+00 -0.00000000000E+00 -0.13547443796E+04  0.13547443796E+04  0.00000000000E+00 0. -1.
         23    2    1    2    0    0 -0.20352707807E+03  0.86692319973E+03 -0.91274637542E+03  0.12783832974E+04  0.90436737263E+02 0.  0.
         13    1    3    3    0    0 -0.15960162368E+02  0.75232877369E+02 -0.11926718641E+03  0.14191326356E+03  0.00000000000E+00 0.  1.
        -13    1    3    3    0    0 -0.18756691571E+03  0.79169032236E+03 -0.79347918901E+03  0.11364700338E+04  0.00000000000E+00 0. -1.
         22    1    1    2    0    0  0.20352707807E+03 -0.86692319973E+03  0.50571406662E+03  0.10240731531E+04  0.00000000000E+00 0.  1.
<mgrwt>
<rscale>  0 0.22661929E+04</rscale>
<asrwt>0</asrwt>
<pdfrwt beam="1">  1        2 0.20842221E+00 0.22661929E+04</pdfrwt>
<pdfrwt beam="2">  1       -2 0.14580186E+00 0.22661929E+04</pdfrwt>
<totfact> 0.45118782E+00</totfact>
</mgrwt>
</event>
<event>
 6    1  0.1028026E-006  0.3511068E+04  0.7818608E-02  0.8111172E-01
          2   -1    0    0  501    0  0.00000000000E+00  0.00000000000E+00  0.21393909939E+04  0.21393909939E+04  0.00000000000E+00 0. -1.
         -2   -1    0    0    0  501 -0.00000000000E+00 -0.00000000000E+00 -0.14405498018E+04  0.14405498018E+04  0.00000000000E+00 0.  1.
         23    2    1    2    0    0  0.14373810683E+04 -0.86563195076E+03 -0.17231452579E+03  0.16893601191E+04  0.94139824654E+02 0.  0.
         11    1    3    3    0    0  0.66188587747E+03 -0.45270440643E+03 -0.74228923576E+02  0.80532237489E+03  0.00000000000E+00 0. -1.
        -11    1    3    3    0    0  0.77549519083E+03 -0.41292754433E+03 -0.98085602217E+02  0.88403774423E+03  0.00000000000E+00 0.  1.
         22    1    1    2    0    0 -0.14373810683E+04  0.86563195076E+03  0.87115571797E+03  0.18905806766E+04  0.00000000000E+00 0. -1.
<mgrwt>
<rscale>  0 0.35110678E+04</rscale>
<asrwt>0</asrwt>
<pdfrwt beam="1">  1        2 0.32913707E+00 0.35110678E+04</pdfrwt>
<pdfrwt beam="2">  1       -2 0.22162305E+00 0.35110678E+04</pdfrwt>
<totfact> 0.44258995E-01</totfact>
</mgrwt>
</event>
<event>
 6    1  0.1028026E-006  0.2983152E+04  0.7818608E-02  0.8248558E-01
          2   -1    0    0  501    0  0.00000000000E+00  0.00000000000E+00  0.34165004805E+04  0.34165004805E+04  0.00000000000E+00 0. -1.
         -2   -1    0    0    0  501 -0.00000000000E+00 -0.00000000000E+00 -0.65119230345E+03  0.65119230345E+03  0.00000000000E+00 0.  1.
         23    2    1    2    0    0 -0.46896813832E+03 -0.66755815233E+03  0.30843809935E+04  0.31916948024E+04  0.89132467241E+02 0.  0.
         11    1    3    3    0    0 -0.48506443925E+02 -0.52706861457E+02  0.19154118415E+03  0.20449673242E+03  0.00000000000E+00 0.  1.
        -11    1    3    3    0    0 -0.42046169440E+03 -0.61485129087E+03  0.28928398094E+04  0.29871980700E+04  0.00000000000E+00 0. -1.
         22    1    1    2    0    0  0.46896813832E+03  0.66755815233E+03 -0.31907281649E+03  0.87599798157E+03  0.00000000000E+00 0.  1.
<mgrwt>
<rscale>  0 0.29831519E+04</rscale>
<asrwt>0</asrwt>
<pdfrwt beam="1">  1        2 0.52561545E+00 0.29831519E+04</pdfrwt>
<pdfrwt beam="2">  1       -2 0.10018343E+00 0.29831519E+04</pdfrwt>
<totfact> 0.65438204E-01</totfact>
</mgrwt>
</event>
<event>
 6    1  0.1028026E-006  0.5031774E+04  0.7818608E-02  0.7823624E-01
         -2   -1    0    0    0  501 -0.00000000000E+00  0.00000000000E+00  0.25259859590E+04  0.25259859590E+04  0.00000000000E+00 0.  1.
          2   -1    0    0  501    0  0.00000000000E+00 -0.00000000000E+00 -0.25058287222E+04  0.25058287222E+04  0.00000000000E+00 0. -1.
         23    2    1    2    0    0 -0.70881447395E+03  0.19447367237E+03 -0.23952134607E+04  0.25070862653E+04  0.90532048099E+02 0.  0.
         13    1    3    3    0    0 -0.25906885014E+03  0.11004877712E+03 -0.83619046600E+03  0.88229354406E+03  0.00000000000E+00 0. -1.
        -13    1    3    3    0    0 -0.44974562382E+03  0.84424895252E+02 -0.15590229947E+04  0.16247927213E+04  0.00000000000E+00 0.  1.
         22    1    1    2    0    0  0.70881447395E+03 -0.19447367237E+03  0.24153706975E+04  0.25247284159E+04  0.00000000000E+00 0.  1.
<mgrwt>
<rscale>  0 0.50317743E+04</rscale>
<asrwt>0</asrwt>
<pdfrwt beam="1">  1        2 0.38551211E+00 0.50317743E+04</pdfrwt>
<pdfrwt beam="2">  1       -2 0.38861322E+00 0.50317743E+04</pdfrwt>
<totfact> 0.22098985E-02</totfact>
</mgrwt>
</event>
<event>
 6    1  0.1028026E-006  0.6396796E+03  0.7818608E-02  0.9826340E-01
         -1   -1    0    0    0  501 -0.00000000000E+00  0.00000000000E+00  0.85277330293E+02  0.85277330293E+02  0.00000000000E+00 0.  1.
          1   -1    0    0  501    0  0.00000000000E+00 -0.00000000000E+00 -0.11995861144E+04  0.11995861144E+04  0.00000000000E+00 0. -1.
         23    2    1    2    0    0  0.10586197722E+03  0.25640490108E+03 -0.27710544394E+03  0.40289991693E+03  0.92685945438E+02 0.  0.
         11    1    3    3    0    0  0.11803128131E+03  0.18290691484E+03 -0.19847995697E+03  0.29458549894E+03  0.00000000000E+00 0.  1.
        -11    1    3    3    0    0 -0.12169304099E+02  0.73497986242E+02 -0.78625486961E+02  0.10831441799E+03  0.00000000000E+00 0. -1.
         22    1    1    2    0    0 -0.10586197722E+03 -0.25640490108E+03 -0.83720334019E+03  0.88196352779E+03  0.00000000000E+00 0. -1.
<mgrwt>
<rscale>  0 0.63967961E+03</rscale>
<asrwt>0</asrwt>
<pdfrwt beam="1">  1        1 0.18455169E+00 0.63967961E+03</pdfrwt>
<pdfrwt beam="2">  1       -1 0.13119590E-01 0.63967961E+03</pdfrwt>
<totfact> 0.44487892E+02</totfact>
</mgrwt>
</event>
<event>
 6    1  0.1028026E-006  0.2055349E+03  0.7818608E-02  0.1145151E+00
         -1   -1    0    0    0  501 -0.00000000000E+00  0.00000000000E+00  0.15105119290E+03  0.15105119290E+03  0.00000000000E+00 0.  1.
          1   -1    0    0  501    0  0.00000000000E+00 -0.00000000000E+00 -0.69917679363E+02  0.69917679363E+02  0.00000000000E+00 0. -1.
         23    2    1    2    0    0  0.17548716005E+02 -0.52511234439E+02  0.11161100652E+03  0.15776867643E+03  0.96791277026E+02 0.  0.
         13    1    3    3    0    0 -0.33291996657E+02 -0.42648063387E+02  0.32193900690E+02  0.62957617440E+02  0.00000000000E+00 0. -1.
        -13    1    3    3    0    0  0.50840712662E+02 -0.98631710522E+01  0.79417105832E+02  0.94811058986E+02  0.00000000000E+00 0.  1.
         22    1    1    2    0    0 -0.17548716005E+02  0.52511234439E+02 -0.30477492983E+02  0.63200195840E+02  0.00000000000E+00 0. -1.
<mgrwt>
<rscale>  0 0.20553490E+03</rscale>
<asrwt>0</asrwt>
<pdfrwt beam="1">  1        1 0.10756566E-01 0.20553490E+03</pdfrwt>
<pdfrwt beam="2">  1       -1 0.23238645E-01 0.20553490E+03</pdfrwt>
<totfact> 0.88899045E+03</totfact>
</mgrwt>
</event>
<event>
 6    1  0.1028026E-006  0.6614378E+03  0.7818608E-02  0.9785551E-01
          2   -1    0    0  501    0  0.00000000000E+00  0.00000000000E+00  0.11019531255E+04  0.11019531255E+04  0.00000000000E+00 0. -1.
         -2   -1    0    0    0  501 -0.00000000000E+00 -0.00000000000E+00 -0.99255578862E+02  0.99255578862E+02  0.00000000000E+00 0.  1.
         23    2    1    2    0    0  0.30954680297E+03  0.97511293208E+02  0.49469115821E+03  0.59838355043E+03  0.89531312300E+02 0.  0.
         13    1    3    3    0    0  0.97547014113E+02  0.48973016038E+02  0.23875382950E+03  0.26252079415E+03  0.00000000000E+00 0. -1.
        -13    1    3    3    0    0  0.21199978886E+03  0.48538277170E+02  0.25593732871E+03  0.33586275628E+03  0.00000000000E+00 0.  1.
         22    1    1    2    0    0 -0.30954680297E+03 -0.97511293208E+02  0.50800638845E+03  0.60282515395E+03  0.00000000000E+00 0. -1.
<mgrwt>
<rscale>  0 0.66143781E+03</rscale>
<asrwt>0</asrwt>
<pdfrwt beam="1">  1        2 0.16953124E+00 0.66143781E+03</pdfrwt>
<pdfrwt beam="2">  1       -2 0.15270090E-01 0.66143781E+03</pdfrwt>
<totfact> 0.74509420E+02</totfact>
</mgrwt>
</event>
<event>
 6    1  0.1028026E-006  0.2151399E+04  0.7818608E-02  0.8538934E-01
         -2   -1    0    0    0  501 -0.00000000000E+00  0.00000000000E+00  0.61738075810E+03  0.61738075810E+03  0.00000000000E+00 0.  1.
          2   -1    0    0  501    0  0.00000000000E+00 -0.00000000000E+00 -0.18742556683E+04  0.18742556683E+04  0.00000000000E+00 0. -1.
         23    2    1    2    0    0  0.74736397788E+03  0.58971365335E+03 -0.54447459911E+02  0.95796537903E+03  0.91749840002E+02 0.  0.
         11    1    3    3    0    0  0.55856233484E+03  0.43607211549E+03 -0.42624069496E+00  0.70862610275E+03  0.00000000000E+00 0.  1.
        -11    1    3    3    0    0  0.18880164303E+03  0.15364153786E+03 -0.54021219216E+02  0.24933927628E+03  0.00000000000E+00 0. -1.
         22    1    1    2    0    0 -0.74736397788E+03 -0.58971365335E+03 -0.12024274503E+04  0.15336710474E+04  0.00000000000E+00 0.  1.
<mgrwt>
<rscale>  0 0.21513990E+04</rscale>
<asrwt>0</asrwt>
<pdfrwt beam="1">  1        2 0.28834702E+00 0.21513990E+04</pdfrwt>
<pdfrwt beam="2">  1       -2 0.94981658E-01 0.21513990E+04</pdfrwt>
<totfact> 0.67146881E+00</totfact>
</mgrwt>
</event>
<event>
 6    1  0.1028026E-006  0.9477174E+03  0.7818608E-02  0.9367823E-01
         -1   -1    0    0    0  501 -0.00000000000E+00  0.00000000000E+00  0.33765768345E+03  0.33765768345E+03  0.00000000000E+00 0.  1.
          1   -1    0    0  501    0  0.00000000000E+00 -0.00000000000E+00 -0.66499918871E+03  0.66499918871E+03  0.00000000000E+00 0. -1.
         23    2    1    2    0    0 -0.28842059242E+02  0.26154524221E+03 -0.57641890851E+03  0.64033473523E+03  0.92369025940E+02 0.  0.
         13    1    3    3    0    0 -0.58599692944E+02  0.11209218761E+03 -0.26115678975E+03  0.29017486343E+03  0.00000000000E+00 0.  1.
        -13    1    3    3    0    0  0.29757633702E+02  0.14945305460E+03 -0.31526211876E+03  0.35015987180E+03  0.00000000000E+00 0. -1.
         22    1    1    2    0    0  0.28842059242E+02 -0.26154524221E+03  0.24907740325E+03  0.36232213693E+03  0.00000000000E+00 0.  1.
<mgrwt>
<rscale>  0 0.94771744E+03</rscale>
<asrwt>0</asrwt>
<pdfrwt beam="1">  1        1 0.10230757E+00 0.94771744E+03</pdfrwt>
<pdfrwt beam="2">  1       -1 0.51947336E-01 0.94771744E+03</pdfrwt>
<totfact> 0.11040742E+02</totfact>
</mgrwt>
</event>
<event>
 6    1  0.1028026E-006  0.3112128E+04  0.7818608E-02  0.8212417E-01
         -2   -1    0    0    0  501 -0.00000000000E+00  0.00000000000E+00  0.12969882017E+04  0.12969882017E+04  0.00000000000E+00 0.  1.
          2   -1    0    0  501    0  0.00000000000E+00 -0.00000000000E+00 -0.18668912607E+04  0.18668912607E+04  0.00000000000E+00 0. -1.
         23    2    1    2    0    0 -0.23280492870E+03 -0.12305970526E+04  0.65135331278E+03  0.14145840711E+04  0.90662646258E+02 0.  0.
         11    1    3    3    0    0 -0.17297749801E+03 -0.74024270873E+03  0.42870671875E+03  0.87273703562E+03  0.00000000000E+00 0.  1.
        -11    1    3    3    0    0 -0.59827430685E+02 -0.49035434386E+03  0.22264659403E+03  0.54184703547E+03  0.00000000000E+00 0. -1.
         22    1    1    2    0    0  0.23280492870E+03  0.12305970526E+04 -0.12212563718E+04  0.17492953914E+04  0.00000000000E+00 0. -1.
<mgrwt>
<rscale>  0 0.31121285E+04</rscale>
<asrwt>0</asrwt>
<pdfrwt beam="1">  1        2 0.28721404E+00 0.31121285E+04</pdfrwt>
<pdfrwt beam="2">  1       -2 0.19953665E+00 0.31121285E+04</pdfrwt>
<totfact> 0.90000425E-01</totfact>
</mgrwt>
</event>
<event>
 6    1  0.1028026E-006  0.5921803E+04  0.7818608E-02  0.7700174E-01
         -2   -1    0    0    0  501 -0.00000000000E+00  0.00000000000E+00  0.32266242906E+04  0.32266242906E+04  0.00000000000E+00 0.  1.
          2   -1    0    0  501    0  0.00000000000E+00 -0.00000000000E+00 -0.27170615669E+04  0.27170615669E+04  0.00000000000E+00 0. -1.
         23    2    1    2    0    0 -0.24037081346E+04 -0.15600190304E+04 -0.49042032328E+03  0.29086507233E+04  0.90910753758E+02 0.  0.
         11    1    3    3    0    0 -0.73824020947E+03 -0.52387641325E+03 -0.17455833493E+03  0.92190873493E+03  0.00000000000E+00 0.  1.
        -11    1    3    3    0    0 -0.16654679251E+04 -0.10361426172E+04 -0.31586198834E+03  0.19867419884E+04  0.00000000000E+00 0. -1.
         22    1    1    2    0    0  0.24037081346E+04  0.15600190304E+04  0.99998304702E+03  0.30350351342E+04  0.00000000000E+00 0. -1.
<mgrwt>
<rscale>  0 0.59218027E+04</rscale>
<asrwt>0</asrwt>
<pdfrwt beam="1">  1        2 0.41800947E+00 0.59218027E+04</pdfrwt>
<pdfrwt beam="2">  1       -2 0.49640374E+00 0.59218027E+04</pdfrwt>
<totfact> 0.30832679E-03</totfact>
</mgrwt>
</event>
<event>
 6    1  0.1028026E-006  0.7434238E+03  0.7818608E-02  0.9645724E-01
          1   -1    0    0  501    0  0.00000000000E+00  0.00000000000E+00  0.54057318455E+03  0.54057318455E+03  0.00000000000E+00 0. -1.
         -1   -1    0    0    0  501 -0.00000000000E+00 -0.00000000000E+00 -0.25559859753E+03  0.25559859753E+03  0.00000000000E+00 0.  1.
         23    2    1    2    0    0 -0.25327286234E+03 -0.10878774353E+03  0.40258630139E+03  0.49648122284E+03  0.91847474818E+02 0.  0.
         11    1    3    3    0    0 -0.13284293213E+03 -0.10161180374E+03  0.26633599441E+03  0.31449493667E+03  0.00000000000E+00 0. -1.
        -11    1    3    3    0    0 -0.12042993021E+03 -0.71759397933E+01  0.13625030698E+03  0.18198628617E+03  0.00000000000E+00 0.  1.
         22    1    1    2    0    0  0.25327286234E+03  0.10878774353E+03 -0.11761171437E+03  0.29969055924E+03  0.00000000000E+00 0.  1.
<mgrwt>
<rscale>  0 0.74342383E+03</rscale>
<asrwt>0</asrwt>
<pdfrwt beam="1">  1        1 0.83165105E-01 0.74342383E+03</pdfrwt>
<pdfrwt beam="2">  1       -1 0.39322861E-01 0.74342383E+03</pdfrwt>
<totfact> 0.25278582E+02</totfact>
</mgrwt>
</event>
<event>
 6    1  0.1028026E-006  0.4373425E+04  0.7818608E-02  0.7933179E-01
          2   -1    0    0  501    0  0.00000000000E+00  0.00000000000E+00  0.21097634939E+04  0.21097634939E+04  0.00000000000E+00 0. -1.
         -2   -1    0    0    0  501 -0.00000000000E+00 -0.00000000000E+00 -0.22664682650E+04  0.22664682650E+04  0.00000000000E+00 0.  1.
         23    2    1    2    0    0  0.18628984799E+03 -0.15538817160E+04  0.14484508543E+04  0.21344073062E+04  0.91827972885E+02 0.  0.
         11    1    3    3    0    0  0.28030809363E+02 -0.60654905015E+03  0.55331880922E+03  0.82149204570E+03  0.00000000000E+00 0.  1.
        -11    1    3    3    0    0  0.15825903863E+03 -0.94733266582E+03  0.89513204510E+03  0.13129152605E+04  0.00000000000E+00 0. -1.
         22    1    1    2    0    0 -0.18628984799E+03  0.15538817160E+04 -0.16051556254E+04  0.22418244527E+04  0.00000000000E+00 0.  1.
<mgrwt>
<rscale>  0 0.43734252E+04</rscale>
<asrwt>0</asrwt>
<pdfrwt beam="1">  1        2 0.32457900E+00 0.43734252E+04</pdfrwt>
<pdfrwt beam="2">  1       -2 0.34868743E+00 0.43734252E+04</pdfrwt>
<totfact> 0.70428974E-02</totfact>
</mgrwt>
</event>
<event>
 6    1  0.1028026E-006  0.2564913E+04  0.7818608E-02  0.8380218E-01
          1   -1    0    0  501    0  0.00000000000E+00  0.00000000000E+00  0.26919665977E+04  0.26919665977E+04  0.00000000000E+00 0. -1.
         -1   -1    0    0    0  501 -0.00000000000E+00 -0.00000000000E+00 -0.61096415365E+03  0.61096415365E+03  0.00000000000E+00 0.  1.
         23    2    1    2    0    0 -0.23358902372E+03 -0.61541696965E+03  0.24567097532E+04  0.25450007674E+04  0.91127472034E+02 0.  0.
         13    1    3    3    0    0 -0.18665736595E+03 -0.44928308574E+03  0.19463328985E+04  0.20062173400E+04  0.00000000000E+00 0.  1.
        -13    1    3    3    0    0 -0.46931657773E+02 -0.16613388391E+03  0.51037685465E+03  0.53878342740E+03  0.00000000000E+00 0. -1.
         22    1    1    2    0    0  0.23358902372E+03  0.61541696965E+03 -0.37570730909E+03  0.75792998400E+03  0.00000000000E+00 0.  1.
<mgrwt>
<rscale>  0 0.25649133E+04</rscale>
<asrwt>0</asrwt>
<pdfrwt beam="1">  1        1 0.41414870E+00 0.25649133E+04</pdfrwt>
<pdfrwt beam="2">  1       -1 0.93994487E-01 0.25649133E+04</pdfrwt>
<totfact> 0.96293089E-01</totfact>
</mgrwt>
</event>
<event>
 6    1  0.1028026E-006  0.2930250E+04  0.7818608E-02  0.8263934E-01
          1   -1    0    0  501    0  0.00000000000E+00  0.00000000000E+00  0.16380633895E+04  0.16380633895E+04  0.00000000000E+00 0. -1.
         -1   -1    0    0    0  501 -0.00000000000E+00 -0.00000000000E+00 -0.13104450094E+04  0.13104450094E+04  0.00000000000E+00 0.  1.
         23    2    1    2    0    0  0.78800172023E+03 -0.11253531546E+04  0.67211832333E+03  0.15321586382E+04  0.91654887960E+02 0.  0.
         13    1    3    3    0    0  0.20032062342E+03 -0.30915811598E+03  0.22353385922E+03  0.43089961599E+03  0.00000000000E+00 0. -1.
        -13    1    3    3    0    0  0.58768109681E+03 -0.81619503862E+03  0.44858446411E+03  0.11012590222E+04  0.00000000000E+00 0.  1.
         22    1    1    2    0    0 -0.78800172023E+03  0.11253531546E+04 -0.34449994327E+03  0.14163497607E+04  0.00000000000E+00 0.  1.
<mgrwt>
<rscale>  0 0.29302505E+04</rscale>
<asrwt>0</asrwt>
<pdfrwt beam="1">  1        1 0.25200975E+00 0.29302505E+04</pdfrwt>
<pdfrwt beam="2">  1       -1 0.20160692E+00 0.29302505E+04</pdfrwt>
<totfact> 0.66002435E-01</totfact>
</mgrwt>
</event>
<event>
 6    1  0.1028026E-006  0.3570708E+04  0.7818608E-02  0.8097235E-01
         -2   -1    0    0    0  501 -0.00000000000E+00  0.00000000000E+00  0.10948394985E+04  0.10948394985E+04  0.00000000000E+00 0.  1.
          2   -1    0    0  501    0  0.00000000000E+00 -0.00000000000E+00 -0.29113754697E+04  0.29113754697E+04  0.00000000000E+00 0. -1.
         23    2    1    2    0    0  0.17059314623E+04 -0.39964982305E+02 -0.32434489001E+03  0.17394036446E+04  0.92336760772E+02 0.  0.
         13    1    3    3    0    0  0.58442320161E+03  0.88663193016E+01 -0.72923878487E+02  0.58902205583E+03  0.00000000000E+00 0. -1.
        -13    1    3    3    0    0  0.11215082607E+04 -0.48831301606E+02 -0.25142101152E+03  0.11503815888E+04  0.00000000000E+00 0.  1.
         22    1    1    2    0    0 -0.17059314623E+04  0.39964982305E+02 -0.14921910811E+04  0.22668113235E+04  0.00000000000E+00 0.  1.
<mgrwt>
<rscale>  0 0.35707080E+04</rscale>
<asrwt>0</asrwt>
<pdfrwt beam="1">  1        2 0.44790392E+00 0.35707080E+04</pdfrwt>
<pdfrwt beam="2">  1       -2 0.16843685E+00 0.35707080E+04</pdfrwt>
<totfact> 0.35299047E-01</totfact>
</mgrwt>
</event>
<event>
 6    1  0.1028026E-006  0.4494970E+04  0.7818608E-02  0.7911518E-01
          2   -1    0    0  501    0  0.00000000000E+00  0.00000000000E+00  0.30332675539E+04  0.30332675539E+04  0.00000000000E+00 0. -1.
         -2   -1    0    0    0  501 -0.00000000000E+00 -0.00000000000E+00 -0.16652634435E+04  0.16652634435E+04  0.00000000000E+00 0.  1.
         23    2    1    2    0    0  0.59622924422E+03  0.15145513633E+04  0.23028428639E+04  0.28214911367E+04  0.91497732440E+02 0.  0.
         13    1    3    3    0    0  0.38895284803E+03  0.91679575934E+03  0.14702881514E+04  0.17758226348E+04  0.00000000000E+00 0. -1.
        -13    1    3    3    0    0  0.20727639620E+03  0.59775560392E+03  0.83255471254E+03  0.10456685019E+04  0.00000000000E+00 0.  1.
         22    1    1    2    0    0 -0.59622924422E+03 -0.15145513633E+04 -0.93483875355E+03  0.18770398607E+04  0.00000000000E+00 0.  1.
<mgrwt>
<rscale>  0 0.44949703E+04</rscale>
<asrwt>0</asrwt>
<pdfrwt beam="1">  1        2 0.46665655E+00 0.44949703E+04</pdfrwt>
<pdfrwt beam="2">  1       -2 0.25619438E+00 0.44949703E+04</pdfrwt>
<totfact> 0.73996666E-02</totfact>
</mgrwt>
</event>
<event>
 6    1  0.1028026E-006  0.3586114E+03  0.7818608E-02  0.1059135E+00
         -1   -1    0    0    0  501 -0.00000000000E+00  0.00000000000E+00  0.28145978757E+02  0.28145978757E+02  0.00000000000E+00 0.  1.
          1   -1    0    0  501    0  0.00000000000E+00 -0.00000000000E+00 -0.11422777654E+04  0.11422777654E+04  0.00000000000E+00 0. -1.
         23    2    1    2    0    0  0.92922219601E+02 -0.53039635958E+01 -0.10487133793E+04  0.10566597827E+04  0.89819114697E+02 0.  0.
         11    1    3    3    0    0  0.14394821010E+01 -0.32790108775E+02 -0.32950816570E+03  0.33113878450E+03  0.00000000000E+00 0. -1.
        -11    1    3    3    0    0  0.91482737500E+02  0.27486145179E+02 -0.71920521364E+03  0.72552099816E+03  0.00000000000E+00 0.  1.
         22    1    1    2    0    0 -0.92922219601E+02  0.53039635958E+01 -0.65418407351E+02  0.11376396154E+03  0.00000000000E+00 0.  1.
<mgrwt>
<rscale>  0 0.35861135E+03</rscale>
<asrwt>0</asrwt>
<pdfrwt beam="1">  1        1 0.17573500E+00 0.35861135E+03</pdfrwt>
<pdfrwt beam="2">  1       -1 0.43301517E-02 0.35861135E+03</pdfrwt>
<totfact> 0.27531707E+03</totfact>
</mgrwt>
</event>
<event>
 6    1  0.1028026E-006  0.2214524E+04  0.7818608E-02  0.8512407E-01
         -1   -1    0    0    0  501 -0.00000000000E+00  0.00000000000E+00  0.65879039556E+03  0.65879039556E+03  0.00000000000E+00 0.  1.
          1   -1    0    0  501    0  0.00000000000E+00 -0.00000000000E+00 -0.18610313255E+04  0.18610313255E+04  0.00000000000E+00 0. -1.
         23    2    1    2    0    0 -0.85514646771E+03  0.63622435619E+03 -0.93584613047E+03  0.14211756899E+04  0.88743726306E+02 0.  0.
         13    1    3    3    0    0 -0.35632259816E+03  0.22398110165E+03 -0.40647585342E+03  0.58511191004E+03  0.00000000000E+00 0. -1.
        -13    1    3    3    0    0 -0.49882386955E+03  0.41224325455E+03 -0.52937027706E+03  0.83606377985E+03  0.00000000000E+00 0.  1.
         22    1    1    2    0    0  0.85514646771E+03 -0.63622435619E+03 -0.26639479949E+03  0.10986460312E+04  0.00000000000E+00 0.  1.
<mgrwt>
<rscale>  0 0.22145244E+04</rscale>
<asrwt>0</asrwt>
<pdfrwt beam="1">  1        1 0.28631251E+00 0.22145244E+04</pdfrwt>
<pdfrwt beam="2">  1       -1 0.10135237E+00 0.22145244E+04</pdfrwt>
<totfact> 0.31154866E+00</totfact>
</mgrwt>
</event>
<event>
 6    1  0.1028026E-006  0.1866396E+04  0.7818608E-02  0.8671767E-01
         -1   -1    0    0    0  501 -0.00000000000E+00  0.00000000000E+00  0.35460505274E+03  0.35460505274E+03  0.00000000000E+00 0.  1.
          1   -1    0    0  501    0  0.00000000000E+00 -0.00000000000E+00 -0.24558535130E+04  0.24558535130E+04  0.00000000000E+00 0. -1.
         23    2    1    2    0    0  0.30529142127E+03  0.87767274458E+03 -0.11368103231E+04  0.14711851736E+04  0.92389425104E+02 0.  0.
         11    1    3    3    0    0  0.14682257010E+03  0.50591535863E+03 -0.58519411368E+03  0.78737498555E+03  0.00000000000E+00 0. -1.
        -11    1    3    3    0    0  0.15846885117E+03  0.37175738595E+03 -0.55161620941E+03  0.68381018805E+03  0.00000000000E+00 0.  1.
         22    1    1    2    0    0 -0.30529142127E+03 -0.87767274458E+03 -0.96443813720E+03  0.13392733922E+04  0.00000000000E+00 0.  1.
<mgrwt>
<rscale>  0 0.18663955E+04</rscale>
<asrwt>0</asrwt>
<pdfrwt beam="1">  1        1 0.37782361E+00 0.18663955E+04</pdfrwt>
<pdfrwt beam="2">  1       -1 0.54554624E-01 0.18663955E+04</pdfrwt>
<totfact> 0.46330179E+00</totfact>
</mgrwt>
</event>
<event>
 6    1  0.1028026E-006  0.2567377E+04  0.7818608E-02  0.8379368E-01
          2   -1    0    0  501    0  0.00000000000E+00  0.00000000000E+00  0.78277246565E+03  0.78277246565E+03  0.00000000000E+00 0. -1.
         -2   -1    0    0    0  501 -0.00000000000E+00 -0.00000000000E+00 -0.21051531108E+04  0.21051531108E+04  0.00000000000E+00 0.  1.
         23    2    1    2    0    0  0.79268536477E+03  0.76790256394E+03 -0.13958814818E+04  0.17818393193E+04  0.91879340660E+02 0.  0.
         11    1    3    3    0    0  0.50394749582E+03  0.43497165147E+03 -0.80147698570E+03  0.10418871219E+04  0.00000000000E+00 0. -1.
        -11    1    3    3    0    0  0.28873786895E+03  0.33293091248E+03 -0.59440449611E+03  0.73995219741E+03  0.00000000000E+00 0.  1.
         22    1    1    2    0    0 -0.79268536477E+03 -0.76790256394E+03  0.73500836699E+02  0.11060862571E+04  0.00000000000E+00 0. -1.
<mgrwt>
<rscale>  0 0.25673768E+04</rscale>
<asrwt>0</asrwt>
<pdfrwt beam="1">  1        2 0.12042654E+00 0.25673768E+04</pdfrwt>
<pdfrwt beam="2">  1       -2 0.32386970E+00 0.25673768E+04</pdfrwt>
<totfact> 0.71276825E-01</totfact>
</mgrwt>
</event>
<event>
 6    1  0.1028026E-006  0.2668884E+04  0.7818608E-02  0.8345172E-01
         -2   -1    0    0    0  501 -0.00000000000E+00  0.00000000000E+00  0.99748962932E+03  0.99748962932E+03  0.00000000000E+00 0.  1.
          2   -1    0    0  501    0  0.00000000000E+00 -0.00000000000E+00 -0.17852167669E+04  0.17852167669E+04  0.00000000000E+00 0. -1.
         23    2    1    2    0    0  0.38325678576E+03 -0.68677747176E+03  0.72769455121E+03  0.10753540733E+04  0.91093159184E+02 0.  0.
         11    1    3    3    0    0  0.26444875667E+03 -0.38197245354E+03  0.43012812843E+03  0.63312424297E+03  0.00000000000E+00 0. -1.
        -11    1    3    3    0    0  0.11880802909E+03 -0.30480501822E+03  0.29756642279E+03  0.44222983038E+03  0.00000000000E+00 0.  1.
         22    1    1    2    0    0 -0.38325678576E+03  0.68677747176E+03 -0.15154216888E+04  0.17073523229E+04  0.00000000000E+00 0. -1.
<mgrwt>
<rscale>  0 0.26688838E+04</rscale>
<asrwt>0</asrwt>
<pdfrwt beam="1">  1        2 0.27464873E+00 0.26688838E+04</pdfrwt>
<pdfrwt beam="2">  1       -2 0.15345994E+00 0.26688838E+04</pdfrwt>
<totfact> 0.21810771E+00</totfact>
</mgrwt>
</event>
<event>
 6    1  0.1028026E-006  0.4359665E+04  0.7818608E-02  0.7935677E-01
         -2   -1    0    0    0  501 -0.00000000000E+00  0.00000000000E+00  0.19900047374E+04  0.19900047374E+04  0.00000000000E+00 0.  1.
          2   -1    0    0  501    0  0.00000000000E+00 -0.00000000000E+00 -0.23877677302E+04  0.23877677302E+04  0.00000000000E+00 0. -1.
         23    2    1    2    0    0  0.16489596274E+04 -0.39626425093E+03 -0.15726659659E+04  0.23146461493E+04  0.90638550614E+02 0.  0.
         11    1    3    3    0    0  0.99547355593E+03 -0.22865886768E+03 -0.88784700844E+03  0.13533383866E+04  0.00000000000E+00 0. -1.
        -11    1    3    3    0    0  0.65348607148E+03 -0.16760538326E+03 -0.68481895743E+03  0.96130776267E+03  0.00000000000E+00 0.  1.
         22    1    1    2    0    0 -0.16489596274E+04  0.39626425093E+03  0.11749029730E+04  0.20631263183E+04  0.00000000000E+00 0.  1.
<mgrwt>
<rscale>  0 0.43596647E+04</rscale>
<asrwt>0</asrwt>
<pdfrwt beam="1">  1        2 0.36734888E+00 0.43596647E+04</pdfrwt>
<pdfrwt beam="2">  1       -2 0.30615458E+00 0.43596647E+04</pdfrwt>
<totfact> 0.90218299E-02</totfact>
</mgrwt>
</event>
<event>
 6    1  0.1028026E-006  0.1170658E+04  0.7818608E-02  0.9138934E-01
          1   -1    0    0  501    0  0.00000000000E+00  0.00000000000E+00  0.28528715627E+04  0.28528715627E+04  0.00000000000E+00 0. -1.
         -1   -1    0    0    0  501 -0.00000000000E+00 -0.00000000000E+00 -0.12009310408E+03  0.12009310408E+03  0.00000000000E+00 0.  1.
         23    2    1    2    0    0  0.46452660847E+03 -0.31679613743E+03  0.17503834055E+04  0.18410438202E+04  0.97239491846E+02 0.  0.
         11    1    3    3    0    0  0.10510591451E+03 -0.12437181087E+03  0.48503404874E+03  0.51163818177E+03  0.00000000000E+00 0.  1.
        -11    1    3    3    0    0  0.35942069395E+03 -0.19242432656E+03  0.12653493568E+04  0.13294056384E+04  0.00000000000E+00 0. -1.
         22    1    1    2    0    0 -0.46452660847E+03  0.31679613743E+03  0.98239505307E+03  0.11319208466E+04  0.00000000000E+00 0.  1.
<mgrwt>
<rscale>  0 0.11706583E+04</rscale>
<asrwt>0</asrwt>
<pdfrwt beam="1">  1        1 0.43890327E+00 0.11706583E+04</pdfrwt>
<pdfrwt beam="2">  1       -1 0.18475864E-01 0.11706583E+04</pdfrwt>
<totfact> 0.17899878E+01</totfact>
</mgrwt>
</event>
<event>
 6    1  0.1028026E-006  0.3391284E+04  0.7818608E-02  0.8140049E-01
          2   -1    0    0  501    0  0.00000000000E+00  0.00000000000E+00  0.15525074396E+04  0.15525074396E+04  0.00000000000E+00 0. -1.
         -2   -1    0    0    0  501 -0.00000000000E+00 -0.00000000000E+00 -0.18519732782E+04  0.18519732782E+04  0.00000000000E+00 0.  1.
         23    2    1    2    0    0 -0.95009868294E+03 -0.25488908355E+03 -0.15348062037E+04  0.18253284865E+04  0.92401560596E+02 0.  0.
         11    1    3    3    0    0 -0.11430617602E+03 -0.41884265677E+02 -0.24701557049E+03  0.27538497718E+03  0.00000000000E+00 0. -1.
        -11    1    3    3    0    0 -0.83579250692E+03 -0.21300481787E+03 -0.12877906332E+04  0.15499435093E+04  0.00000000000E+00 0.  1.
         22    1    1    2    0    0  0.95009868294E+03  0.25488908355E+03  0.12353403650E+04  0.15791522313E+04  0.00000000000E+00 0. -1.
<mgrwt>
<rscale>  0 0.33912843E+04</rscale>
<asrwt>0</asrwt>
<pdfrwt beam="1">  1        2 0.23884730E+00 0.33912843E+04</pdfrwt>
<pdfrwt beam="2">  1       -2 0.28491896E+00 0.33912843E+04</pdfrwt>
<totfact> 0.38631271E-01</totfact>
</mgrwt>
</event>
<event>
 6    1  0.1028026E-006  0.2446671E+04  0.7818608E-02  0.8422234E-01
          2   -1    0    0  501    0  0.00000000000E+00  0.00000000000E+00  0.89812765482E+03  0.89812765482E+03  0.00000000000E+00 0. -1.
         -2   -1    0    0    0  501 -0.00000000000E+00 -0.00000000000E+00 -0.16662995020E+04  0.16662995020E+04  0.00000000000E+00 0.  1.
         23    2    1    2    0    0  0.11819109052E+04 -0.94503623950E+02 -0.75891843544E+02  0.11914392012E+04  0.89013905928E+02 0.  0.
         13    1    3    3    0    0  0.92950055151E+03 -0.58686699213E+02 -0.92660340571E+02  0.93594943380E+03  0.00000000000E+00 0. -1.
        -13    1    3    3    0    0  0.25241035371E+03 -0.35816924736E+02  0.16768497027E+02  0.25548976741E+03  0.00000000000E+00 0.  1.
         22    1    1    2    0    0 -0.11819109052E+04  0.94503623950E+02 -0.69228000364E+03  0.13729879556E+04  0.00000000000E+00 0.  1.
<mgrwt>
<rscale>  0 0.24466709E+04</rscale>
<asrwt>0</asrwt>
<pdfrwt beam="1">  1        2 0.13817349E+00 0.24466709E+04</pdfrwt>
<pdfrwt beam="2">  1       -2 0.25635377E+00 0.24466709E+04</pdfrwt>
<totfact> 0.15471566E+00</totfact>
</mgrwt>
</event>
<event>
 6    1  0.1028026E-006  0.2088864E+04  0.7818608E-02  0.8566165E-01
          1   -1    0    0  501    0  0.00000000000E+00  0.00000000000E+00  0.11596985744E+04  0.11596985744E+04  0.00000000000E+00 0. -1.
         -1   -1    0    0    0  501 -0.00000000000E+00 -0.00000000000E+00 -0.94062207981E+03  0.94062207981E+03  0.00000000000E+00 0.  1.
         23    2    1    2    0    0 -0.50325894614E+03 -0.32033435841E+03 -0.74971910318E+03  0.96258229312E+03  0.92748419499E+02 0.  0.
         11    1    3    3    0    0 -0.32201238483E+03 -0.20178300232E+03 -0.40408921826E+03  0.55470393213E+03  0.00000000000E+00 0. -1.
        -11    1    3    3    0    0 -0.18124656131E+03 -0.11855135609E+03 -0.34562988492E+03  0.40787836099E+03  0.00000000000E+00 0.  1.
         22    1    1    2    0    0  0.50325894614E+03  0.32033435841E+03  0.96879559778E+03  0.11377383611E+04  0.00000000000E+00 0. -1.
<mgrwt>
<rscale>  0 0.20888639E+04</rscale>
<asrwt>0</asrwt>
<pdfrwt beam="1">  1        1 0.17841516E+00 0.20888639E+04</pdfrwt>
<pdfrwt beam="2">  1       -1 0.14471109E+00 0.20888639E+04</pdfrwt>
<totfact> 0.40460025E+00</totfact>
</mgrwt>
</event>
<event>
 6    1  0.1028026E-006  0.4975110E+04  0.7818608E-02  0.7832358E-01
         -1   -1    0    0    0  501 -0.00000000000E+00  0.00000000000E+00  0.26415462698E+04  0.26415462698E+04  0.00000000000E+00 0.  1.
          1   -1    0    0  501    0  0.00000000000E+00 -0.00000000000E+00 -0.23425406465E+04  0.23425406465E+04  0.00000000000E+00 0. -1.
         23    2    1    2    0    0 -0.34225467338E+03 -0.54259374425E+03  0.25564567237E+04  0.26372525157E+04  0.89908944283E+02 0.  0.
         13    1    3    3    0    0 -0.27833455124E+03 -0.36484107832E+03  0.18072360517E+04  0.18645860885E+04  0.00000000000E+00 0.  1.
        -13    1    3    3    0    0 -0.63920122135E+02 -0.17775266592E+03  0.74922067206E+03  0.77266642718E+03  0.00000000000E+00 0. -1.
         22    1    1    2    0    0  0.34225467338E+03  0.54259374425E+03 -0.22574511005E+04  0.23468344006E+04  0.00000000000E+00 0. -1.
<mgrwt>
<rscale>  0 0.49751099E+04</rscale>
<asrwt>0</asrwt>
<pdfrwt beam="1">  1        1 0.36039087E+00 0.49751099E+04</pdfrwt>
<pdfrwt beam="2">  1       -1 0.40639173E+00 0.49751099E+04</pdfrwt>
<totfact> 0.81460514E-03</totfact>
</mgrwt>
</event>
<event>
 6    1  0.1028026E-006  0.3069832E+04  0.7818608E-02  0.8224066E-01
         -1   -1    0    0    0  501 -0.00000000000E+00  0.00000000000E+00  0.10844243752E+04  0.10844243752E+04  0.00000000000E+00 0.  1.
          1   -1    0    0  501    0  0.00000000000E+00 -0.00000000000E+00 -0.21725502566E+04  0.21725502566E+04  0.00000000000E+00 0. -1.
         23    2    1    2    0    0  0.92006078188E+03 -0.28315596986E+03 -0.18108617758E+04  0.20532153873E+04  0.98913647559E+02 0.  0.
         13    1    3    3    0    0  0.59049969024E+03 -0.19007853129E+03 -0.10650312895E+04  0.12325223649E+04  0.00000000000E+00 0. -1.
        -13    1    3    3    0    0  0.32956109164E+03 -0.93077438572E+02 -0.74583048630E+03  0.82069302238E+03  0.00000000000E+00 0.  1.
         22    1    1    2    0    0 -0.92006078188E+03  0.28315596986E+03  0.72273589447E+03  0.12037592445E+04  0.00000000000E+00 0.  1.
<mgrwt>
<rscale>  0 0.30698316E+04</rscale>
<asrwt>0</asrwt>
<pdfrwt beam="1">  1        1 0.33423850E+00 0.30698316E+04</pdfrwt>
<pdfrwt beam="2">  1       -1 0.16683452E+00 0.30698316E+04</pdfrwt>
<totfact> 0.49964298E-01</totfact>
</mgrwt>
</event>
<event>
 6    1  0.1028026E-006  0.1249260E+04  0.7818608E-02  0.9070800E-01
         -1   -1    0    0    0  501 -0.00000000000E+00  0.00000000000E+00  0.51458514401E+03  0.51458514401E+03  0.00000000000E+00 0.  1.
          1   -1    0    0  501    0  0.00000000000E+00 -0.00000000000E+00 -0.75820759630E+03  0.75820759630E+03  0.00000000000E+00 0. -1.
         23    2    1    2    0    0  0.39293236354E+03 -0.29361229343E+03 -0.51053850034E+03  0.71435903978E+03  0.95159109963E+02 0.  0.
         11    1    3    3    0    0  0.16810867437E+03 -0.13599115041E+03 -0.29249495270E+03  0.36374086482E+03  0.00000000000E+00 0.  1.
        -11    1    3    3    0    0  0.22482368917E+03 -0.15762114303E+03 -0.21804354765E+03  0.35061817496E+03  0.00000000000E+00 0. -1.
         22    1    1    2    0    0 -0.39293236354E+03  0.29361229343E+03  0.26691604806E+03  0.55843370053E+03  0.00000000000E+00 0.  1.
<mgrwt>
<rscale>  0 0.12492596E+04</rscale>
<asrwt>0</asrwt>
<pdfrwt beam="1">  1        1 0.11664732E+00 0.12492596E+04</pdfrwt>
<pdfrwt beam="2">  1       -1 0.79166945E-01 0.12492596E+04</pdfrwt>
<totfact> 0.37893477E+01</totfact>
</mgrwt>
</event>
<event>
 6    1  0.1028026E-006  0.1002835E+04  0.7818608E-02  0.9305441E-01
         -2   -1    0    0    0  501 -0.00000000000E+00  0.00000000000E+00  0.29818730368E+03  0.29818730368E+03  0.00000000000E+00 0.  1.
          2   -1    0    0  501    0  0.00000000000E+00 -0.00000000000E+00 -0.84315975777E+03  0.84315975777E+03  0.00000000000E+00 0. -1.
         23    2    1    2    0    0  0.30686154304E+03  0.39208428866E+03 -0.28210515877E+03  0.57832547131E+03  0.83563952434E+02 0.  0.
         13    1    3    3    0    0  0.17351922112E+03  0.22245252633E+03 -0.11189238366E+03  0.30350280409E+03  0.00000000000E+00 0.  1.
        -13    1    3    3    0    0  0.13334232192E+03  0.16963176233E+03 -0.17021277511E+03  0.27482266722E+03  0.00000000000E+00 0. -1.
         22    1    1    2    0    0 -0.30686154304E+03 -0.39208428866E+03 -0.26286729532E+03  0.56302159014E+03  0.00000000000E+00 0.  1.
<mgrwt>
<rscale>  0 0.10028351E+04</rscale>
<asrwt>0</asrwt>
<pdfrwt beam="1">  1        2 0.12971689E+00 0.10028351E+04</pdfrwt>
<pdfrwt beam="2">  1       -2 0.45874969E-01 0.10028351E+04</pdfrwt>
<totfact> 0.14429098E+02</totfact>
</mgrwt>
</event>
<event>
 6    1  0.1028026E-006  0.4866373E+04  0.7818608E-02  0.7849458E-01
          1   -1    0    0  501    0  0.00000000000E+00  0.00000000000E+00  0.20946860202E+04  0.20946860202E+04  0.00000000000E+00 0. -1.
         -1   -1    0    0    0  501 -0.00000000000E+00 -0.00000000000E+00 -0.28263885021E+04  0.28263885021E+04  0.00000000000E+00 0.  1.
         23    2    1    2    0    0  0.16138733387E+04 -0.26321755995E+03 -0.21868770346E+04  0.27321470187E+04  0.91244343229E+02 0.  0.
         11    1    3    3    0    0  0.12199248503E+04 -0.22439728437E+03 -0.17067476516E+04  0.21098716378E+04  0.00000000000E+00 0.  1.
        -11    1    3    3    0    0  0.39394848843E+03 -0.38820275589E+02 -0.48012938295E+03  0.62227538092E+03  0.00000000000E+00 0. -1.
         22    1    1    2    0    0 -0.16138733387E+04  0.26321755995E+03  0.14551745527E+04  0.21889275036E+04  0.00000000000E+00 0. -1.
<mgrwt>
<rscale>  0 0.48663730E+04</rscale>
<asrwt>0</asrwt>
<pdfrwt beam="1">  1        1 0.32225939E+00 0.48663730E+04</pdfrwt>
<pdfrwt beam="2">  1       -1 0.43482900E+00 0.48663730E+04</pdfrwt>
<totfact> 0.77317303E-03</totfact>
</mgrwt>
</event>
<event>
 6    1  0.1028026E-006  0.2012219E+04  0.7818608E-02  0.8600929E-01
          2   -1    0    0  501    0  0.00000000000E+00  0.00000000000E+00  0.15474995705E+04  0.15474995705E+04  0.00000000000E+00 0. -1.
         -2   -1    0    0    0  501 -0.00000000000E+00 -0.00000000000E+00 -0.65412357777E+03  0.65412357777E+03  0.00000000000E+00 0.  1.
         23    2    1    2    0    0  0.19664457017E+03 -0.39257194448E+03  0.14356163763E+04  0.15039079828E+04  0.89235767677E+02 0.  0.
         13    1    3    3    0    0  0.12081235686E+03 -0.31904922719E+03  0.10460326657E+04  0.11002601386E+04  0.00000000000E+00 0.  1.
        -13    1    3    3    0    0  0.75832213309E+02 -0.73522717292E+02  0.38958371066E+03  0.40364784422E+03  0.00000000000E+00 0. -1.
         22    1    1    2    0    0 -0.19664457017E+03  0.39257194448E+03 -0.54224038357E+03  0.69771516548E+03  0.00000000000E+00 0.  1.
<mgrwt>
<rscale>  0 0.20122186E+04</rscale>
<asrwt>0</asrwt>
<pdfrwt beam="1">  1        2 0.23807686E+00 0.20122186E+04</pdfrwt>
<pdfrwt beam="2">  1       -2 0.10063440E+00 0.20122186E+04</pdfrwt>
<totfact> 0.90141073E+00</totfact>
</mgrwt>
</event>
<event>
 6    1  0.1028026E-006  0.4056929E+04  0.7818608E-02  0.7993160E-01
          2   -1    0    0  501    0  0.00000000000E+00  0.00000000000E+00  0.25300885789E+04  0.25300885789E+04  0.00000000000E+00 0. -1.
         -2   -1    0    0    0  501 -0.00000000000E+00 -0.00000000000E+00 -0.16262943538E+04  0.16262943538E+04  0.00000000000E+00 0.  1.
         23    2    1    2    0    0 -0.59097284102E+03  0.91257202391E+03 -0.13010758313E+04  0.16980321516E+04  0.92077529184E+02 0.  0.
         11    1    3    3    0    0 -0.55574032934E+03  0.82813275870E+03 -0.12201255424E+04  0.15758672276E+04  0.00000000000E+00 0. -1.
        -11    1    3    3    0    0 -0.35232511681E+02  0.84439265210E+02 -0.80950288888E+02  0.12216492402E+03  0.00000000000E+00 0.  1.
         22    1    1    2    0    0  0.59097284102E+03 -0.91257202391E+03  0.22048700563E+04  0.24583507811E+04  0.00000000000E+00 0. -1.
<mgrwt>
<rscale>  0 0.40569293E+04</rscale>
<asrwt>0</asrwt>
<pdfrwt beam="1">  1        2 0.38924439E+00 0.40569293E+04</pdfrwt>
<pdfrwt beam="2">  1       -2 0.25019913E+00 0.40569293E+04</pdfrwt>
<totfact> 0.16825658E-01</totfact>
</mgrwt>
</event>
<event>
 6    1  0.1028026E-006  0.3244972E+04  0.7818608E-02  0.8177040E-01
         -2   -1    0    0    0  501 -0.00000000000E+00  0.00000000000E+00  0.25256750410E+04  0.25256750410E+04  0.00000000000E+00 0.  1.
          2   -1    0    0  501    0  0.00000000000E+00 -0.00000000000E+00 -0.10422803155E+04  0.10422803155E+04  0.00000000000E+00 0. -1.
         23    2    1    2    0    0  0.11140655850E+04 -0.33517572697E+03  0.19837403097E+04  0.23015310203E+04  0.91293621965E+02 0.  0.
         13    1    3    3    0    0  0.68203770982E+03 -0.24037430087E+03  0.12870135701E+04  0.14762652782E+04  0.00000000000E+00 0. -1.
        -13    1    3    3    0    0  0.43202787516E+03 -0.94801426098E+02  0.69672673961E+03  0.82526574205E+03  0.00000000000E+00 0.  1.
         22    1    1    2    0    0 -0.11140655850E+04  0.33517572697E+03 -0.50034558421E+03  0.12664243362E+04  0.00000000000E+00 0. -1.
<mgrwt>
<rscale>  0 0.32449723E+04</rscale>
<asrwt>0</asrwt>
<pdfrwt beam="1">  1        2 0.16035082E+00 0.32449723E+04</pdfrwt>
<pdfrwt beam="2">  1       -2 0.38856539E+00 0.32449723E+04</pdfrwt>
<totfact> 0.17487004E-01</totfact>
</mgrwt>
</event>
<event>
 6    1  0.1028026E-006  0.1857611E+04  0.7818608E-02  0.8676249E-01
         -1   -1    0    0    0  501 -0.00000000000E+00  0.00000000000E+00  0.23875078936E+03  0.23875078936E+03  0.00000000000E+00 0.  1.
          1   -1    0    0  501    0  0.00000000000E+00 -0.00000000000E+00 -0.36133054410E+04  0.36133054410E+04  0.00000000000E+00 0. -1.
         23    2    1    2    0    0  0.77745544961E+03  0.53586142137E+02 -0.27304841482E+04  0.28410491759E+04  0.93318195008E+02 0.  0.
         13    1    3    3    0    0  0.55373951126E+03 -0.44018354589E+01 -0.19287442398E+04  0.20066641884E+04  0.00000000000E+00 0. -1.
        -13    1    3    3    0    0  0.22371593835E+03  0.57987977596E+02 -0.80173990838E+03  0.83438498747E+03  0.00000000000E+00 0.  1.
         22    1    1    2    0    0 -0.77745544961E+03 -0.53586142137E+02 -0.64407050344E+03  0.10110070545E+04  0.00000000000E+00 0.  1.
<mgrwt>
<rscale>  0 0.18576109E+04</rscale>
<asrwt>0</asrwt>
<pdfrwt beam="1">  1        1 0.55589313E+00 0.18576109E+04</pdfrwt>
<pdfrwt beam="2">  1       -1 0.36730892E-01 0.18576109E+04</pdfrwt>
<totfact> 0.13648008E+00</totfact>
</mgrwt>
</event>
<event>
 6    1  0.1028026E-006  0.3181632E+04  0.7818608E-02  0.8193685E-01
         -1   -1    0    0    0  501 -0.00000000000E+00  0.00000000000E+00  0.15297458681E+04  0.15297458681E+04  0.00000000000E+00 0.  1.
          1   -1    0    0  501    0  0.00000000000E+00 -0.00000000000E+00 -0.16543242930E+04  0.16543242930E+04  0.00000000000E+00 0. -1.
         23    2    1    2    0    0 -0.80333015522E+03  0.12500854577E+04 -0.62684094333E+03  0.16155292380E+04  0.94615858322E+02 0.  0.
         11    1    3    3    0    0 -0.43946736560E+03  0.69544118001E+03 -0.29630806849E+03  0.87439606114E+03  0.00000000000E+00 0. -1.
        -11    1    3    3    0    0 -0.36386278962E+03  0.55464427771E+03 -0.33053287484E+03  0.74113317684E+03  0.00000000000E+00 0.  1.
         22    1    1    2    0    0  0.80333015522E+03 -0.12500854577E+04  0.50226251843E+03  0.15685409231E+04  0.00000000000E+00 0.  1.
<mgrwt>
<rscale>  0 0.31816321E+04</rscale>
<asrwt>0</asrwt>
<pdfrwt beam="1">  1        1 0.25451143E+00 0.31816321E+04</pdfrwt>
<pdfrwt beam="2">  1       -1 0.23534552E+00 0.31816321E+04</pdfrwt>
<totfact> 0.37340038E-01</totfact>
</mgrwt>
</event>
<event>
 6    1  0.1028026E-006  0.2708482E+04  0.7818608E-02  0.8332258E-01
         -1   -1    0    0    0  501 -0.00000000000E+00  0.00000000000E+00  0.70223076839E+03  0.70223076839E+03  0.00000000000E+00 0.  1.
          1   -1    0    0  501    0  0.00000000000E+00 -0.00000000000E+00 -0.26116326925E+04  0.26116326925E+04  0.00000000000E+00 0. -1.
         23    2    1    2    0    0  0.67765897881E+03  0.89815310085E+03 -0.37186818595E+02  0.11295809505E+04  0.93110579543E+02 0.  0.
         11    1    3    3    0    0  0.45243847499E+03  0.56061007693E+03 -0.61806879895E+02  0.72305208831E+03  0.00000000000E+00 0.  1.
        -11    1    3    3    0    0  0.22522050382E+03  0.33754302392E+03  0.24620061300E+02  0.40652886215E+03  0.00000000000E+00 0. -1.
         22    1    1    2    0    0 -0.67765897881E+03 -0.89815310085E+03 -0.18722151055E+04  0.21842825105E+04  0.00000000000E+00 0. -1.
<mgrwt>
<rscale>  0 0.27084821E+04</rscale>
<asrwt>0</asrwt>
<pdfrwt beam="1">  1        1 0.40178965E+00 0.27084821E+04</pdfrwt>
<pdfrwt beam="2">  1       -1 0.10803550E+00 0.27084821E+04</pdfrwt>
<totfact> 0.78645472E-01</totfact>
</mgrwt>
</event>
<event>
 6    1  0.1898059E-006  0.3287288E+04  0.7818608E-02  0.8166137E-01
         -2   -1    0    0    0  501 -0.00000000000E+00  0.00000000000E+00  0.14047248646E+04  0.14047248646E+04  0.00000000000E+00 0.  1.
          2   -1    0    0  501    0  0.00000000000E+00 -0.00000000000E+00 -0.19231994432E+04  0.19231994432E+04  0.00000000000E+00 0. -1.
         23    2    1    2    0    0  0.46910026483E+03  0.46158213165E+03 -0.17828096134E+04  0.19025625281E+04  0.90669360350E+02 0.  0.
         11    1    3    3    0    0  0.16702203055E+03  0.22610703188E+03 -0.77830767217E+03  0.82751651410E+03  0.00000000000E+00 0.  1.
        -11    1    3    3    0    0  0.30207823428E+03  0.23547509978E+03 -0.10045019413E+04  0.10750460140E+04  0.00000000000E+00 0. -1.
         22    1    1    2    0    0 -0.46910026483E+03 -0.46158213165E+03  0.12643350348E+04  0.14253617797E+04  0.00000000000E+00 0.  1.
<mgrwt>
<rscale>  0 0.32872883E+04</rscale>
<asrwt>0</asrwt>
<pdfrwt beam="1">  1        2 0.29587684E+00 0.32872883E+04</pdfrwt>
<pdfrwt beam="2">  1       -2 0.21611152E+00 0.32872883E+04</pdfrwt>
<totfact> 0.64487593E-01</totfact>
</mgrwt>
</event>
<event>
 6    1  0.1100656E-006  0.2366363E+04  0.7818608E-02  0.8452205E-01
          1   -1    0    0  501    0  0.00000000000E+00  0.00000000000E+00  0.14401291587E+04  0.14401291587E+04  0.00000000000E+00 0. -1.
         -1   -1    0    0    0  501 -0.00000000000E+00 -0.00000000000E+00 -0.97207868527E+03  0.97207868527E+03  0.00000000000E+00 0.  1.
         23    2    1    2    0    0 -0.88570445032E+03 -0.36730579756E+03  0.93796617030E+03  0.13444032343E+04  0.90849312067E+02 0.  0.
         13    1    3    3    0    0 -0.19165809260E+03 -0.12008391722E+03  0.23224983271E+03  0.32418043807E+03  0.00000000000E+00 0.  1.
        -13    1    3    3    0    0 -0.69404635772E+03 -0.24722188034E+03  0.70571633759E+03  0.10202227962E+04  0.00000000000E+00 0. -1.
         22    1    1    2    0    0  0.88570445032E+03  0.36730579756E+03 -0.46991569689E+03  0.10678046097E+04  0.00000000000E+00 0.  1.
<mgrwt>
<rscale>  0 0.23663633E+04</rscale>
<asrwt>0</asrwt>
<pdfrwt beam="1">  1        1 0.22155833E+00 0.23663633E+04</pdfrwt>
<pdfrwt beam="2">  1       -1 0.14955057E+00 0.23663633E+04</pdfrwt>
<totfact> 0.22764311E+00</totfact>
</mgrwt>
</event>
<event>
 6    1  0.1028026E-006  0.3646121E+04  0.7818608E-02  0.8080008E-01
          2   -1    0    0  501    0  0.00000000000E+00  0.00000000000E+00  0.23684642553E+04  0.23684642553E+04  0.00000000000E+00 0. -1.
         -2   -1    0    0    0  501 -0.00000000000E+00 -0.00000000000E+00 -0.14032507742E+04  0.14032507742E+04  0.00000000000E+00 0.  1.
         23    2    1    2    0    0  0.14568548660E+04 -0.86689234522E+03  0.11733682554E+04  0.20637171229E+04  0.90591732321E+02 0.  0.
         11    1    3    3    0    0  0.60455891391E+03 -0.32184585842E+03  0.51060358763E+03  0.85427879564E+03  0.00000000000E+00 0. -1.
        -11    1    3    3    0    0  0.85229595205E+03 -0.54504648680E+03  0.66276466777E+03  0.12094383273E+04  0.00000000000E+00 0.  1.
         22    1    1    2    0    0 -0.14568548660E+04  0.86689234522E+03 -0.20815477432E+03  0.17079979065E+04  0.00000000000E+00 0.  1.
<mgrwt>
<rscale>  0 0.36461208E+04</rscale>
<asrwt>0</asrwt>
<pdfrwt beam="1">  1        2 0.36437912E+00 0.36461208E+04</pdfrwt>
<pdfrwt beam="2">  1       -2 0.21588473E+00 0.36461208E+04</pdfrwt>
<totfact> 0.35324224E-01</totfact>
</mgrwt>
</event>
<event>
 6    1  0.1028026E-006  0.2479383E+04  0.7818608E-02  0.8410367E-01
         -2   -1    0    0    0  501 -0.00000000000E+00  0.00000000000E+00  0.62274926671E+03  0.62274926671E+03  0.00000000000E+00 0.  1.
          2   -1    0    0  501    0  0.00000000000E+00 -0.00000000000E+00 -0.24678231861E+04  0.24678231861E+04  0.00000000000E+00 0. -1.
         23    2    1    2    0    0 -0.49394510792E+03 -0.87159625499E+03 -0.16659696395E+02  0.10056838773E+04  0.86375426428E+02 0.  0.
         11    1    3    3    0    0 -0.12520688852E+03 -0.26150127969E+03 -0.38523314961E+02  0.29247859752E+03  0.00000000000E+00 0. -1.
        -11    1    3    3    0    0 -0.36873821941E+03 -0.61009497531E+03  0.21863618566E+02  0.71320527982E+03  0.00000000000E+00 0.  1.
         22    1    1    2    0    0  0.49394510792E+03  0.87159625499E+03 -0.18284142230E+04  0.20848885755E+04  0.00000000000E+00 0. -1.
<mgrwt>
<rscale>  0 0.24793831E+04</rscale>
<asrwt>0</asrwt>
<pdfrwt beam="1">  1        2 0.37966512E+00 0.24793831E+04</pdfrwt>
<pdfrwt beam="2">  1       -2 0.95807577E-01 0.24793831E+04</pdfrwt>
<totfact> 0.29657252E+00</totfact>
</mgrwt>
</event>
<event>
 6    1  0.1028026E-006  0.2586452E+04  0.7818608E-02  0.8372818E-01
          1   -1    0    0  501    0  0.00000000000E+00  0.00000000000E+00  0.27073304103E+04  0.27073304103E+04  0.00000000000E+00 0. -1.
         -1   -1    0    0    0  501 -0.00000000000E+00 -0.00000000000E+00 -0.61774244494E+03  0.61774244494E+03  0.00000000000E+00 0.  1.
         23    2    1    2    0    0 -0.86465019712E+03 -0.68448717427E+03  0.19104363800E+04  0.22078271591E+04  0.92687362449E+02 0.  0.
         13    1    3    3    0    0 -0.32278962957E+03 -0.20314557965E+03  0.62725432979E+03  0.73410439702E+03  0.00000000000E+00 0.  1.
        -13    1    3    3    0    0 -0.54186056755E+03 -0.48134159462E+03  0.12831820502E+04  0.14737227621E+04  0.00000000000E+00 0. -1.
         22    1    1    2    0    0  0.86465019712E+03  0.68448717427E+03  0.17915158537E+03  0.11172456962E+04  0.00000000000E+00 0.  1.
<mgrwt>
<rscale>  0 0.25864516E+04</rscale>
<asrwt>0</asrwt>
<pdfrwt beam="1">  1        1 0.41651236E+00 0.25864516E+04</pdfrwt>
<pdfrwt beam="2">  1       -1 0.95037301E-01 0.25864516E+04</pdfrwt>
<totfact> 0.91445485E-01</totfact>
</mgrwt>
</event>
<event>
 6    1  0.1028026E-006  0.2313744E+04  0.7818608E-02  0.8472522E-01
         -2   -1    0    0    0  501 -0.00000000000E+00  0.00000000000E+00  0.18530492348E+04  0.18530492348E+04  0.00000000000E+00 0.  1.
          2   -1    0    0  501    0  0.00000000000E+00 -0.00000000000E+00 -0.72224352209E+03  0.72224352209E+03  0.00000000000E+00 0. -1.
         23    2    1    2    0    0 -0.72659584959E+03  0.53066459874E+03  0.13724591295E+04  0.16436582690E+04  0.91771445088E+02 0.  0.
         13    1    3    3    0    0 -0.38185184852E+03  0.32041560688E+03  0.81412759946E+03  0.95461025741E+03  0.00000000000E+00 0.  1.
        -13    1    3    3    0    0 -0.34474400106E+03  0.21024899186E+03  0.55833153007E+03  0.68904801162E+03  0.00000000000E+00 0. -1.
         22    1    1    2    0    0  0.72659584959E+03 -0.53066459874E+03 -0.24165341686E+03  0.93163448781E+03  0.00000000000E+00 0. -1.
<mgrwt>
<rscale>  0 0.23137440E+04</rscale>
<asrwt>0</asrwt>
<pdfrwt beam="1">  1        2 0.11111439E+00 0.23137440E+04</pdfrwt>
<pdfrwt beam="2">  1       -2 0.28508450E+00 0.23137440E+04</pdfrwt>
<totfact> 0.13982025E+00</totfact>
</mgrwt>
</event>
<event>
 6    1  0.1028026E-006  0.2474972E+04  0.7818608E-02  0.8411956E-01
         -1   -1    0    0    0  501 -0.00000000000E+00  0.00000000000E+00  0.58335118297E+03  0.58335118297E+03  0.00000000000E+00 0.  1.
          1   -1    0    0  501    0  0.00000000000E+00 -0.00000000000E+00 -0.26251291666E+04  0.26251291666E+04  0.00000000000E+00 0. -1.
         23    2    1    2    0    0  0.37044819399E+03 -0.11316926921E+04 -0.59368697347E+03  0.13336662821E+04  0.90781692909E+02 0.  0.
         13    1    3    3    0    0  0.16055421817E+03 -0.61318281375E+03 -0.34258380900E+03  0.72050987935E+03  0.00000000000E+00 0.  1.
        -13    1    3    3    0    0  0.20989397582E+03 -0.51850987837E+03 -0.25110316448E+03  0.61315640277E+03  0.00000000000E+00 0. -1.
         22    1    1    2    0    0 -0.37044819399E+03  0.11316926921E+04 -0.14480910101E+04  0.18748140674E+04  0.00000000000E+00 0. -1.
<mgrwt>
<rscale>  0 0.24749725E+04</rscale>
<asrwt>0</asrwt>
<pdfrwt beam="1">  1        1 0.40386602E+00 0.24749725E+04</pdfrwt>
<pdfrwt beam="2">  1       -1 0.89746337E-01 0.24749725E+04</pdfrwt>
<totfact> 0.11987569E+00</totfact>
</mgrwt>
</event>
<event>
 6    1  0.1028026E-006  0.2781776E+04  0.7818608E-02  0.8308948E-01
          2   -1    0    0  501    0  0.00000000000E+00  0.00000000000E+00  0.27051904868E+04  0.27051904868E+04  0.00000000000E+00 0. -1.
         -2   -1    0    0    0  501 -0.00000000000E+00 -0.00000000000E+00 -0.71513267093E+03  0.71513267093E+03  0.00000000000E+00 0.  1.
         23    2    1    2    0    0 -0.53078140643E+03  0.85235976807E+03  0.21768934597E+04  0.23989742294E+04  0.89253250729E+02 0.  0.
         13    1    3    3    0    0 -0.38425588903E+03  0.55880699716E+03  0.15331602418E+04  0.16764540481E+04  0.00000000000E+00 0.  1.
        -13    1    3    3    0    0 -0.14652551740E+03  0.29355277090E+03  0.64373321793E+03  0.72252018132E+03  0.00000000000E+00 0. -1.
         22    1    1    2    0    0  0.53078140643E+03 -0.85235976807E+03 -0.18683564383E+03  0.10213489283E+04  0.00000000000E+00 0.  1.
<mgrwt>
<rscale>  0 0.27817765E+04</rscale>
<asrwt>0</asrwt>
<pdfrwt beam="1">  1        2 0.41618315E+00 0.27817765E+04</pdfrwt>
<pdfrwt beam="2">  1       -2 0.11002041E+00 0.27817765E+04</pdfrwt>
<totfact> 0.15084552E+00</totfact>
</mgrwt>
</event>
<event>
 6    1  0.1028026E-006  0.1625523E+04  0.7818608E-02  0.8805020E-01
          2   -1    0    0  501    0  0.00000000000E+00  0.00000000000E+00  0.14351670600E+04  0.14351670600E+04  0.00000000000E+00 0. -1.
         -2   -1    0    0    0  501 -0.00000000000E+00 -0.00000000000E+00 -0.46028185082E+03  0.46028185082E+03  0.00000000000E+00 0.  1.
         23    2    1    2    0    0  0.66692912538E+03 -0.12475159751E+03  0.10043573899E+04  0.12163126735E+04  0.10161364980E+03 0.  0.
         13    1    3    3    0    0  0.17830930222E+03 -0.62712385990E+02  0.34386173722E+03  0.39238749335E+03  0.00000000000E+00 0.  1.
        -13    1    3    3    0    0  0.48861982316E+03 -0.62039211516E+02  0.66049565263E+03  0.82392518015E+03  0.00000000000E+00 0. -1.
         22    1    1    2    0    0 -0.66692912538E+03  0.12475159751E+03 -0.29472180705E+02  0.67913623729E+03  0.00000000000E+00 0.  1.
<mgrwt>
<rscale>  0 0.16255231E+04</rscale>
<asrwt>0</asrwt>
<pdfrwt beam="1">  1        2 0.22079493E+00 0.16255231E+04</pdfrwt>
<pdfrwt beam="2">  1       -2 0.70812593E-01 0.16255231E+04</pdfrwt>
<totfact> 0.23966143E+01</totfact>
</mgrwt>
</event>
<event>
 6    1  0.1028026E-006  0.1776402E+04  0.7818608E-02  0.8718950E-01
          1   -1    0    0  501    0  0.00000000000E+00  0.00000000000E+00  0.16063319811E+04  0.16063319811E+04  0.00000000000E+00 0. -1.
         -1   -1    0    0    0  501 -0.00000000000E+00 -0.00000000000E+00 -0.49111969359E+03  0.49111969359E+03  0.00000000000E+00 0.  1.
         23    2    1    2    0    0  0.72245091508E+03 -0.17807238521E+03  0.11266456569E+04  0.13532905221E+04  0.91758934859E+02 0.  0.
         13    1    3    3    0    0  0.39916147737E+03 -0.13428385167E+03  0.68722550997E+03  0.80600306413E+03  0.00000000000E+00 0.  1.
        -13    1    3    3    0    0  0.32328943771E+03 -0.43788533541E+02  0.43942014688E+03  0.54728745800E+03  0.00000000000E+00 0. -1.
         22    1    1    2    0    0 -0.72245091508E+03  0.17807238521E+03 -0.11433369314E+02  0.74416115258E+03  0.00000000000E+00 0.  1.
<mgrwt>
<rscale>  0 0.17764023E+04</rscale>
<asrwt>0</asrwt>
<pdfrwt beam="1">  1        1 0.24712799E+00 0.17764023E+04</pdfrwt>
<pdfrwt beam="2">  1       -1 0.75556877E-01 0.17764023E+04</pdfrwt>
<totfact> 0.91946300E+00</totfact>
</mgrwt>
</event>
<event>
 6    1  0.1028026E-006  0.1368940E+04  0.7818608E-02  0.8976613E-01
         -1   -1    0    0    0  501 -0.00000000000E+00  0.00000000000E+00  0.83770578811E+03  0.83770578811E+03  0.00000000000E+00 0.  1.
          1   -1    0    0  501    0  0.00000000000E+00 -0.00000000000E+00 -0.55926476866E+03  0.55926476866E+03  0.00000000000E+00 0. -1.
         23    2    1    2    0    0  0.61735938374E+03 -0.27364900280E+03  0.49240396084E+02  0.68384412256E+03  0.95925918933E+02 0.  0.
         11    1    3    3    0    0  0.42678597319E+03 -0.14066357934E+03  0.42281010550E+02  0.45135373413E+03  0.00000000000E+00 0. -1.
        -11    1    3    3    0    0  0.19057341055E+03 -0.13298542346E+03  0.69593855340E+01  0.23249038842E+03  0.00000000000E+00 0.  1.
         22    1    1    2    0    0 -0.61735938374E+03  0.27364900280E+03  0.22920062337E+03  0.71312643422E+03  0.00000000000E+00 0.  1.
<mgrwt>
<rscale>  0 0.13689402E+04</rscale>
<asrwt>0</asrwt>
<pdfrwt beam="1">  1        1 0.86040734E-01 0.13689402E+04</pdfrwt>
<pdfrwt beam="2">  1       -1 0.12887781E+00 0.13689402E+04</pdfrwt>
<totfact> 0.19199201E+01</totfact>
</mgrwt>
</event>
<event>
 6    1  0.1028026E-006  0.3132009E+04  0.7818608E-02  0.8207008E-01
         -1   -1    0    0    0  501 -0.00000000000E+00  0.00000000000E+00  0.18570950210E+04  0.18570950210E+04  0.00000000000E+00 0.  1.
          1   -1    0    0  501    0  0.00000000000E+00 -0.00000000000E+00 -0.13205407539E+04  0.13205407539E+04  0.00000000000E+00 0. -1.
         23    2    1    2    0    0 -0.99154805250E+03  0.86316149537E+03 -0.59229600332E+03  0.14448581664E+04  0.92656666467E+02 0.  0.
         11    1    3    3    0    0 -0.73807014561E+03  0.68134894014E+03 -0.48047457772E+03  0.11134809104E+04  0.00000000000E+00 0.  1.
        -11    1    3    3    0    0 -0.25347790688E+03  0.18181255523E+03 -0.11182142560E+03  0.33137725592E+03  0.00000000000E+00 0. -1.
         22    1    1    2    0    0  0.99154805250E+03 -0.86316149537E+03  0.11288502705E+04  0.17327776086E+04  0.00000000000E+00 0.  1.
<mgrwt>
<rscale>  0 0.31320087E+04</rscale>
<asrwt>0</asrwt>
<pdfrwt beam="1">  1        1 0.20316012E+00 0.31320087E+04</pdfrwt>
<pdfrwt beam="2">  1       -1 0.28570693E+00 0.31320087E+04</pdfrwt>
<totfact> 0.30078971E-01</totfact>
</mgrwt>
</event>
<event>
 6    1  0.1028026E-006  0.1961029E+04  0.7818608E-02  0.8625061E-01
          2   -1    0    0  501    0  0.00000000000E+00  0.00000000000E+00  0.27410502179E+04  0.27410502179E+04  0.00000000000E+00 0. -1.
         -2   -1    0    0    0  501 -0.00000000000E+00 -0.00000000000E+00 -0.35074468161E+03  0.35074468161E+03  0.00000000000E+00 0.  1.
         23    2    1    2    0    0 -0.32114809045E+03  0.72815316294E+03  0.30031107235E+03  0.85540942648E+03  0.90528570215E+02 0.  0.
         11    1    3    3    0    0 -0.18382259592E+03  0.41369239338E+03  0.21843077097E+03  0.50263719004E+03  0.00000000000E+00 0. -1.
        -11    1    3    3    0    0 -0.13732549454E+03  0.31446076956E+03  0.81880301383E+02  0.35277223643E+03  0.00000000000E+00 0.  1.
         22    1    1    2    0    0  0.32114809045E+03 -0.72815316294E+03  0.20899944640E+04  0.22363854731E+04  0.00000000000E+00 0. -1.
<mgrwt>
<rscale>  0 0.19610291E+04</rscale>
<asrwt>0</asrwt>
<pdfrwt beam="1">  1        2 0.42170002E+00 0.19610291E+04</pdfrwt>
<pdfrwt beam="2">  1       -2 0.53960722E-01 0.19610291E+04</pdfrwt>
<totfact> 0.75765199E+00</totfact>
</mgrwt>
</event>
<event>
 6    1  0.1028026E-006  0.4193075E+03  0.7818608E-02  0.1037292E+00
          4   -1    0    0  501    0  0.00000000000E+00  0.00000000000E+00  0.27078482614E+03  0.27078482614E+03  0.00000000000E+00 0. -1.
         -4   -1    0    0    0  501 -0.00000000000E+00 -0.00000000000E+00 -0.16232329418E+03  0.16232329418E+03  0.00000000000E+00 0.  1.
         23    2    1    2    0    0  0.15731994870E+03  0.10233611998E+03 -0.13184781705E+02  0.20945644173E+03  0.92064731597E+02 0.  0.
         13    1    3    3    0    0  0.66114141189E+02  0.42061339854E+02  0.39892414107E+02  0.87929748543E+02  0.00000000000E+00 0.  1.
        -13    1    3    3    0    0  0.91205807508E+02  0.60274780121E+02 -0.53077195812E+02  0.12152669319E+03  0.00000000000E+00 0. -1.
         22    1    1    2    0    0 -0.15731994870E+03 -0.10233611998E+03  0.12164631366E+03  0.22365167859E+03  0.00000000000E+00 0. -1.
<mgrwt>
<rscale>  0 0.41930745E+03</rscale>
<asrwt>0</asrwt>
<pdfrwt beam="1">  1        4 0.41659204E-01 0.41930745E+03</pdfrwt>
<pdfrwt beam="2">  1       -4 0.24972815E-01 0.41930745E+03</pdfrwt>
<totfact> 0.16403968E+02</totfact>
</mgrwt>
</event>
<event>
 6    1  0.1028026E-006  0.2125265E+04  0.7818608E-02  0.8550195E-01
         -1   -1    0    0    0  501 -0.00000000000E+00  0.00000000000E+00  0.68741446846E+03  0.68741446846E+03  0.00000000000E+00 0.  1.
          1   -1    0    0  501    0  0.00000000000E+00 -0.00000000000E+00 -0.16426592050E+04  0.16426592050E+04  0.00000000000E+00 0. -1.
         23    2    1    2    0    0  0.25978145372E+03 -0.13883837220E+03  0.63856532774E+03  0.70927355677E+03  0.92416466357E+02 0.  0.
         13    1    3    3    0    0  0.97170576414E+02 -0.76017808857E+01  0.16468445163E+03  0.19136581879E+03  0.00000000000E+00 0. -1.
        -13    1    3    3    0    0  0.16261087730E+03 -0.13123659131E+03  0.47388087611E+03  0.51790773798E+03  0.00000000000E+00 0.  1.
         22    1    1    2    0    0 -0.25978145372E+03  0.13883837220E+03 -0.15938100643E+04  0.16208001167E+04  0.00000000000E+00 0. -1.
<mgrwt>
<rscale>  0 0.21252649E+04</rscale>
<asrwt>0</asrwt>
<pdfrwt beam="1">  1        1 0.25271680E+00 0.21252649E+04</pdfrwt>
<pdfrwt beam="2">  1       -1 0.10575607E+00 0.21252649E+04</pdfrwt>
<totfact> 0.40073450E+00</totfact>
</mgrwt>
</event>
<event>
 6    1  0.1028026E-006  0.1334447E+04  0.7818608E-02  0.9002686E-01
         -3   -1    0    0    0  501 -0.00000000000E+00  0.00000000000E+00  0.49978118499E+03  0.49978118499E+03  0.00000000000E+00 0.  1.
          3   -1    0    0  501    0  0.00000000000E+00 -0.00000000000E+00 -0.89076365971E+03  0.89076365971E+03  0.00000000000E+00 0. -1.
         23    2    1    2    0    0  0.52851728040E+03 -0.35953047597E+03 -0.84344063884E+01  0.64560477770E+03  0.90231429901E+02 0.  0.
         13    1    3    3    0    0  0.26039203494E+03 -0.13799893274E+03  0.27346598454E+02  0.29596546040E+03  0.00000000000E+00 0.  1.
        -13    1    3    3    0    0  0.26812524546E+03 -0.22153154323E+03 -0.35781004842E+02  0.34963931731E+03  0.00000000000E+00 0. -1.
         22    1    1    2    0    0 -0.52851728040E+03  0.35953047597E+03 -0.38254806833E+03  0.74494006700E+03  0.00000000000E+00 0. -1.
<mgrwt>
<rscale>  0 0.13344466E+04</rscale>
<asrwt>0</asrwt>
<pdfrwt beam="1">  1        3 0.13704056E+00 0.13344466E+04</pdfrwt>
<pdfrwt beam="2">  1       -3 0.76889414E-01 0.13344466E+04</pdfrwt>
<totfact> 0.16593151E+00</totfact>
</mgrwt>
</event>
<event>
 6    1  0.1028026E-006  0.2623709E+04  0.7818608E-02  0.8360192E-01
         -2   -1    0    0    0  501 -0.00000000000E+00  0.00000000000E+00  0.58876971581E+03  0.58876971581E+03  0.00000000000E+00 0.  1.
          2   -1    0    0  501    0  0.00000000000E+00 -0.00000000000E+00 -0.29229791827E+04  0.29229791827E+04  0.00000000000E+00 0. -1.
         23    2    1    2    0    0  0.11119027881E+04  0.60310766432E+01 -0.24018037953E+03  0.11408161701E+04  0.86085626956E+02 0.  0.
         13    1    3    3    0    0  0.66661876925E+03  0.38232357653E+02 -0.16855379722E+03  0.68866006073E+03  0.00000000000E+00 0. -1.
        -13    1    3    3    0    0  0.44528401883E+03 -0.32201281010E+02 -0.71626582307E+02  0.45215610935E+03  0.00000000000E+00 0.  1.
         22    1    1    2    0    0 -0.11119027881E+04 -0.60310766432E+01 -0.20940290874E+04  0.23709327285E+04  0.00000000000E+00 0. -1.
<mgrwt>
<rscale>  0 0.26237085E+04</rscale>
<asrwt>0</asrwt>
<pdfrwt beam="1">  1        2 0.44968912E+00 0.26237085E+04</pdfrwt>
<pdfrwt beam="2">  1       -2 0.90579954E-01 0.26237085E+04</pdfrwt>
<totfact> 0.17871317E+00</totfact>
</mgrwt>
</event>
<event>
 6    1  0.1028026E-006  0.1324987E+04  0.7818608E-02  0.9009982E-01
         -2   -1    0    0    0  501 -0.00000000000E+00  0.00000000000E+00  0.96737150129E+03  0.96737150129E+03  0.00000000000E+00 0.  1.
          2   -1    0    0  501    0  0.00000000000E+00 -0.00000000000E+00 -0.45370104095E+03  0.45370104095E+03  0.00000000000E+00 0. -1.
         23    2    1    2    0    0  0.21685096420E+03  0.17852117090E+03 -0.37974781189E+03  0.48454151857E+03  0.10806448744E+03 0.  0.
         11    1    3    3    0    0  0.19379082814E+03  0.18215635948E+03 -0.29753075740E+03  0.39907439904E+03  0.00000000000E+00 0. -1.
        -11    1    3    3    0    0  0.23060136061E+02 -0.36351885793E+01 -0.82217054494E+02  0.85467119530E+02  0.00000000000E+00 0.  1.
         22    1    1    2    0    0 -0.21685096420E+03 -0.17852117090E+03  0.89341827223E+03  0.93653102367E+03  0.00000000000E+00 0.  1.
<mgrwt>
<rscale>  0 0.13249867E+04</rscale>
<asrwt>0</asrwt>
<pdfrwt beam="1">  1        2 0.69800160E-01 0.13249867E+04</pdfrwt>
<pdfrwt beam="2">  1       -2 0.14882638E+00 0.13249867E+04</pdfrwt>
<totfact> 0.20604460E+01</totfact>
</mgrwt>
</event>
<event>
 6    1  0.1028026E-006  0.2326326E+04  0.7818608E-02  0.8467613E-01
         -1   -1    0    0    0  501 -0.00000000000E+00  0.00000000000E+00  0.13873596004E+04  0.13873596004E+04  0.00000000000E+00 0.  1.
          1   -1    0    0  501    0  0.00000000000E+00 -0.00000000000E+00 -0.97519663595E+03  0.97519663595E+03  0.00000000000E+00 0. -1.
         23    2    1    2    0    0 -0.98869375752E+03 -0.39779081415E+03  0.67528150966E+03  0.12648384917E+04  0.89768674440E+02 0.  0.
         11    1    3    3    0    0 -0.17643116781E+03 -0.68074947495E+02  0.80814771137E+02  0.20565306388E+03  0.00000000000E+00 0. -1.
        -11    1    3    3    0    0 -0.81226258972E+03 -0.32971586665E+03  0.59446673852E+03  0.10591854279E+04  0.00000000000E+00 0.  1.
         22    1    1    2    0    0  0.98869375752E+03  0.39779081415E+03 -0.26311854522E+03  0.10977177446E+04  0.00000000000E+00 0. -1.
<mgrwt>
<rscale>  0 0.23263262E+04</rscale>
<asrwt>0</asrwt>
<pdfrwt beam="1">  1        1 0.15003025E+00 0.23263262E+04</pdfrwt>
<pdfrwt beam="2">  1       -1 0.21343994E+00 0.23263262E+04</pdfrwt>
<totfact> 0.17388919E+00</totfact>
</mgrwt>
</event>
<event>
 6    1  0.1028026E-006  0.3021827E+04  0.7818608E-02  0.8237525E-01
          2   -1    0    0  501    0  0.00000000000E+00  0.00000000000E+00  0.20020135419E+04  0.20020135419E+04  0.00000000000E+00 0. -1.
         -2   -1    0    0    0  501 -0.00000000000E+00 -0.00000000000E+00 -0.11402819989E+04  0.11402819989E+04  0.00000000000E+00 0.  1.
         23    2    1    2    0    0 -0.10615259118E+03  0.12896205032E+04 -0.37772271034E+03  0.13504706997E+04  0.81897800720E+02 0.  0.
         13    1    3    3    0    0 -0.50630445683E+02  0.59126429609E+03 -0.21574393284E+03  0.63142881975E+03  0.00000000000E+00 0.  1.
        -13    1    3    3    0    0 -0.55522145497E+02  0.69835620716E+03 -0.16197877749E+03  0.71904187992E+03  0.00000000000E+00 0. -1.
         22    1    1    2    0    0  0.10615259118E+03 -0.12896205032E+04  0.12394542533E+04  0.17918248411E+04  0.00000000000E+00 0.  1.
<mgrwt>
<rscale>  0 0.30218273E+04</rscale>
<asrwt>0</asrwt>
<pdfrwt beam="1">  1        2 0.30800208E+00 0.30218273E+04</pdfrwt>
<pdfrwt beam="2">  1       -2 0.17542800E+00 0.30218273E+04</pdfrwt>
<totfact> 0.11111840E+00</totfact>
</mgrwt>
</event>
<event>
 6    1  0.1028026E-006  0.1628809E+04  0.7818608E-02  0.8803042E-01
         -2   -1    0    0    0  501 -0.00000000000E+00  0.00000000000E+00  0.12490250601E+04  0.12490250601E+04  0.00000000000E+00 0.  1.
          2   -1    0    0  501    0  0.00000000000E+00 -0.00000000000E+00 -0.53101788202E+03  0.53101788202E+03  0.00000000000E+00 0. -1.
         23    2    1    2    0    0 -0.42856947666E+03  0.25784178071E+01 -0.39344944321E+03  0.58881909013E+03  0.90702877471E+02 0.  0.
         13    1    3    3    0    0 -0.27399255821E+03 -0.63602589039E+01 -0.19149067029E+03  0.33433673393E+03  0.00000000000E+00 0. -1.
        -13    1    3    3    0    0 -0.15457691845E+03  0.89386767110E+01 -0.20195877292E+03  0.25448235620E+03  0.00000000000E+00 0.  1.
         22    1    1    2    0    0  0.42856947666E+03 -0.25784178071E+01  0.11114566213E+04  0.11912238520E+04  0.00000000000E+00 0.  1.
<mgrwt>
<rscale>  0 0.16288089E+04</rscale>
<asrwt>0</asrwt>
<pdfrwt beam="1">  1        2 0.81695059E-01 0.16288089E+04</pdfrwt>
<pdfrwt beam="2">  1       -2 0.19215770E+00 0.16288089E+04</pdfrwt>
<totfact> 0.82239892E+00</totfact>
</mgrwt>
</event>
<event>
 6    1  0.1028026E-006  0.3449079E+04  0.7818608E-02  0.8125965E-01
          1   -1    0    0  501    0  0.00000000000E+00  0.00000000000E+00  0.28107573988E+04  0.28107573988E+04  0.00000000000E+00 0. -1.
         -1   -1    0    0    0  501 -0.00000000000E+00 -0.00000000000E+00 -0.10580906653E+04  0.10580906653E+04  0.00000000000E+00 0.  1.
         23    2    1    2    0    0  0.17188814242E+04  0.11584141959E+03  0.82708594127E+03  0.19131710999E+04  0.90442901330E+02 0.  0.
         13    1    3    3    0    0  0.46057796052E+03 -0.84124524221E+01  0.22875211470E+03  0.51432514721E+03  0.00000000000E+00 0. -1.
        -13    1    3    3    0    0  0.12583034637E+04  0.12425387201E+03  0.59833382657E+03  0.13988459527E+04  0.00000000000E+00 0.  1.
         22    1    1    2    0    0 -0.17188814242E+04 -0.11584141959E+03  0.92558079223E+03  0.19556769641E+04  0.00000000000E+00 0. -1.
<mgrwt>
<rscale>  0 0.34490788E+04</rscale>
<asrwt>0</asrwt>
<pdfrwt beam="1">  1        1 0.43242421E+00 0.34490788E+04</pdfrwt>
<pdfrwt beam="2">  1       -1 0.16278318E+00 0.34490788E+04</pdfrwt>
<totfact> 0.18668806E-01</totfact>
</mgrwt>
</event>
<event>
 6    1  0.1028026E-006  0.3067362E+04  0.7818608E-02  0.8224753E-01
          2   -1    0    0  501    0  0.00000000000E+00  0.00000000000E+00  0.31687235213E+04  0.31687235213E+04  0.00000000000E+00 0. -1.
         -2   -1    0    0    0  501 -0.00000000000E+00 -0.00000000000E+00 -0.74231078744E+03  0.74231078744E+03  0.00000000000E+00 0.  1.
         23    2    1    2    0    0 -0.10345838104E+04 -0.10927651710E+04  0.84596656085E+03  0.17287626746E+04  0.91986864373E+02 0.  0.
         13    1    3    3    0    0 -0.57410023638E+03 -0.60680782425E+03  0.41701537113E+03  0.93365338148E+03  0.00000000000E+00 0. -1.
        -13    1    3    3    0    0 -0.46048357398E+03 -0.48595734676E+03  0.42895118971E+03  0.79510929307E+03  0.00000000000E+00 0.  1.
         22    1    1    2    0    0  0.10345838104E+04  0.10927651710E+04  0.15804461731E+04  0.21822716342E+04  0.00000000000E+00 0. -1.
<mgrwt>
<rscale>  0 0.30673622E+04</rscale>
<asrwt>0</asrwt>
<pdfrwt beam="1">  1        2 0.48749592E+00 0.30673622E+04</pdfrwt>
<pdfrwt beam="2">  1       -2 0.11420166E+00 0.30673622E+04</pdfrwt>
<totfact> 0.69333584E-01</totfact>
</mgrwt>
</event>
<event>
 6    1  0.1028026E-006  0.1394680E+04  0.7818608E-02  0.8957679E-01
         -2   -1    0    0    0  501 -0.00000000000E+00  0.00000000000E+00  0.33664170240E+03  0.33664170240E+03  0.00000000000E+00 0.  1.
          2   -1    0    0  501    0  0.00000000000E+00 -0.00000000000E+00 -0.14445115567E+04  0.14445115567E+04  0.00000000000E+00 0. -1.
         23    2    1    2    0    0  0.19200888746E+02  0.68845797502E+03 -0.66989142177E+03  0.96496200404E+03  0.89744608631E+02 0.  0.
         13    1    3    3    0    0 -0.26258995148E+02  0.14087239024E+03 -0.16757379256E+03  0.22048932199E+03  0.00000000000E+00 0.  1.
        -13    1    3    3    0    0  0.45459883894E+02  0.54758558478E+03 -0.50231762921E+03  0.74447268205E+03  0.00000000000E+00 0. -1.
         22    1    1    2    0    0 -0.19200888746E+02 -0.68845797502E+03 -0.43797843254E+03  0.81619125508E+03  0.00000000000E+00 0. -1.
<mgrwt>
<rscale>  0 0.13946796E+04</rscale>
<asrwt>0</asrwt>
<pdfrwt beam="1">  1        2 0.22223254E+00 0.13946796E+04</pdfrwt>
<pdfrwt beam="2">  1       -2 0.51791032E-01 0.13946796E+04</pdfrwt>
<totfact> 0.46777036E+01</totfact>
</mgrwt>
</event>
<event>
 6    1  0.1028026E-006  0.3146747E+04  0.7818608E-02  0.8203024E-01
          1   -1    0    0  501    0  0.00000000000E+00  0.00000000000E+00  0.25784236449E+04  0.25784236449E+04  0.00000000000E+00 0. -1.
         -1   -1    0    0    0  501 -0.00000000000E+00 -0.00000000000E+00 -0.96008434180E+03  0.96008434180E+03  0.00000000000E+00 0.  1.
         23    2    1    2    0    0  0.13992500360E+04 -0.69952440783E+03  0.98439246615E+03  0.18505732568E+04  0.91420955752E+02 0.  0.
         11    1    3    3    0    0  0.25833678133E+03 -0.12596257078E+03  0.14018602012E+03  0.31977583095E+03  0.00000000000E+00 0. -1.
        -11    1    3    3    0    0  0.11409132546E+04 -0.57356183705E+03  0.84420644603E+03  0.15307974259E+04  0.00000000000E+00 0.  1.
         22    1    1    2    0    0 -0.13992500360E+04  0.69952440783E+03  0.63394683696E+03  0.16879347299E+04  0.00000000000E+00 0. -1.
<mgrwt>
<rscale>  0 0.31467470E+04</rscale>
<asrwt>0</asrwt>
<pdfrwt beam="1">  1        1 0.39668056E+00 0.31467470E+04</pdfrwt>
<pdfrwt beam="2">  1       -1 0.14770528E+00 0.31467470E+04</pdfrwt>
<totfact> 0.36499580E-01</totfact>
</mgrwt>
</event>
<event>
 6    1  0.1028026E-006  0.2155877E+04  0.7818608E-02  0.8537021E-01
         -1   -1    0    0    0  501 -0.00000000000E+00  0.00000000000E+00  0.11761386184E+04  0.11761386184E+04  0.00000000000E+00 0.  1.
          1   -1    0    0  501    0  0.00000000000E+00 -0.00000000000E+00 -0.98793769044E+03  0.98793769044E+03  0.00000000000E+00 0. -1.
         23    2    1    2    0    0 -0.10117102952E+04 -0.18790424236E+03 -0.22139887615E+03  0.10565395261E+04  0.91611036809E+02 0.  0.
         11    1    3    3    0    0 -0.18662117398E+03 -0.44230772324E+01 -0.59529012003E+02  0.19593552373E+03  0.00000000000E+00 0.  1.
        -11    1    3    3    0    0 -0.82508912122E+03 -0.18348116513E+03 -0.16186986415E+03  0.86060400233E+03  0.00000000000E+00 0. -1.
         22    1    1    2    0    0  0.10117102952E+04  0.18790424236E+03  0.40959980413E+03  0.11075367828E+04  0.00000000000E+00 0.  1.
<mgrwt>
<rscale>  0 0.21558772E+04</rscale>
<asrwt>0</asrwt>
<pdfrwt beam="1">  1        1 0.15199041E+00 0.21558772E+04</pdfrwt>
<pdfrwt beam="2">  1       -1 0.18094440E+00 0.21558772E+04</pdfrwt>
<totfact> 0.28998730E+00</totfact>
</mgrwt>
</event>
<event>
 6    1  0.1028026E-006  0.1671221E+04  0.7818608E-02  0.8777951E-01
          1   -1    0    0  501    0  0.00000000000E+00  0.00000000000E+00  0.23477233795E+04  0.23477233795E+04  0.00000000000E+00 0. -1.
         -1   -1    0    0    0  501 -0.00000000000E+00 -0.00000000000E+00 -0.29741351326E+03  0.29741351326E+03  0.00000000000E+00 0.  1.
         23    2    1    2    0    0  0.63710162382E+02 -0.77553763728E+03  0.56406234910E+03  0.96750484316E+03  0.11127298072E+03 0.  0.
         13    1    3    3    0    0  0.76542990824E+02 -0.69937715916E+03  0.47141924617E+03  0.84689039778E+03  0.00000000000E+00 0. -1.
        -13    1    3    3    0    0 -0.12832828442E+02 -0.76160478123E+02  0.92643102927E+02  0.12061444538E+03  0.00000000000E+00 0.  1.
         22    1    1    2    0    0 -0.63710162382E+02  0.77553763728E+03  0.14862475172E+04  0.16776320496E+04  0.00000000000E+00 0.  1.
<mgrwt>
<rscale>  0 0.16712207E+04</rscale>
<asrwt>0</asrwt>
<pdfrwt beam="1">  1        1 0.36118820E+00 0.16712207E+04</pdfrwt>
<pdfrwt beam="2">  1       -1 0.45755927E-01 0.16712207E+04</pdfrwt>
<totfact> 0.78242139E+00</totfact>
</mgrwt>
</event>
<event>
 6    1  0.1028026E-006  0.8307529E+03  0.7818608E-02  0.9516540E-01
          1   -1    0    0  501    0  0.00000000000E+00  0.00000000000E+00  0.13921655482E+04  0.13921655482E+04  0.00000000000E+00 0. -1.
         -1   -1    0    0    0  501 -0.00000000000E+00 -0.00000000000E+00 -0.12393467012E+03  0.12393467012E+03  0.00000000000E+00 0.  1.
         23    2    1    2    0    0  0.36610340568E+03 -0.57736974348E+02  0.31942116262E+03  0.49747117004E+03  0.89902302695E+02 0.  0.
         11    1    3    3    0    0  0.16342873320E+03  0.15182608519E+02  0.11409831436E+03  0.19989469172E+03  0.00000000000E+00 0. -1.
        -11    1    3    3    0    0  0.20267467248E+03 -0.72919582867E+02  0.20532284827E+03  0.29757647832E+03  0.00000000000E+00 0.  1.
         22    1    1    2    0    0 -0.36610340568E+03  0.57736974348E+02  0.94880971543E+03  0.10186290483E+04  0.00000000000E+00 0.  1.
<mgrwt>
<rscale>  0 0.83075286E+03</rscale>
<asrwt>0</asrwt>
<pdfrwt beam="1">  1        1 0.21417930E+00 0.83075286E+03</pdfrwt>
<pdfrwt beam="2">  1       -1 0.19066873E-01 0.83075286E+03</pdfrwt>
<totfact> 0.17439984E+02</totfact>
</mgrwt>
</event>
<event>
 6    1  0.1028026E-006  0.2441970E+04  0.7818608E-02  0.8423956E-01
         -1   -1    0    0    0  501 -0.00000000000E+00  0.00000000000E+00  0.39804608552E+03  0.39804608552E+03  0.00000000000E+00 0.  1.
          1   -1    0    0  501    0  0.00000000000E+00 -0.00000000000E+00 -0.37453066560E+04  0.37453066560E+04  0.00000000000E+00 0. -1.
         23    2    1    2    0    0  0.10171283999E+04 -0.39729524348E+02 -0.53619705302E+03  0.11536693609E+04  0.85540035869E+02 0.  0.
         11    1    3    3    0    0  0.71067222200E+03  0.52648789191E+01 -0.34907525341E+03  0.79179306553E+03  0.00000000000E+00 0.  1.
        -11    1    3    3    0    0  0.30645617788E+03 -0.44994403267E+02 -0.18712179962E+03  0.36187629541E+03  0.00000000000E+00 0. -1.
         22    1    1    2    0    0 -0.10171283999E+04  0.39729524348E+02 -0.28110635175E+04  0.29896833806E+04  0.00000000000E+00 0. -1.
<mgrwt>
<rscale>  0 0.24419702E+04</rscale>
<asrwt>0</asrwt>
<pdfrwt beam="1">  1        1 0.57620099E+00 0.24419702E+04</pdfrwt>
<pdfrwt beam="2">  1       -1 0.61237862E-01 0.24419702E+04</pdfrwt>
<totfact> 0.38306668E-01</totfact>
</mgrwt>
</event>
<event>
 6    1  0.1028026E-006  0.3753396E+03  0.7818608E-02  0.1052670E+00
         -1   -1    0    0    0  501 -0.00000000000E+00  0.00000000000E+00  0.42608360954E+03  0.42608360954E+03  0.00000000000E+00 0.  1.
          1   -1    0    0  501    0  0.00000000000E+00 -0.00000000000E+00 -0.82659728586E+02  0.82659728586E+02  0.00000000000E+00 0. -1.
         23    2    1    2    0    0 -0.10181979491E+03 -0.50725241697E+02 -0.42893236433E+01  0.14289529121E+03  0.86373289687E+02 0.  0.
         11    1    3    3    0    0 -0.89196698715E+02 -0.20730165391E+02  0.29280090621E+02  0.96141117767E+02  0.00000000000E+00 0.  1.
        -11    1    3    3    0    0 -0.12623096198E+02 -0.29995076306E+02 -0.33569414264E+02  0.46754173442E+02  0.00000000000E+00 0. -1.
         22    1    1    2    0    0  0.10181979491E+03  0.50725241697E+02  0.34771320459E+03  0.36584804691E+03  0.00000000000E+00 0.  1.
<mgrwt>
<rscale>  0 0.37533961E+03</rscale>
<asrwt>0</asrwt>
<pdfrwt beam="1">  1        1 0.12716882E-01 0.37533961E+03</pdfrwt>
<pdfrwt beam="2">  1       -1 0.65551323E-01 0.37533961E+03</pdfrwt>
<totfact> 0.11388490E+03</totfact>
</mgrwt>
</event>
<event>
 6    1  0.1028026E-006  0.3709073E+04  0.7818608E-02  0.8065954E-01
          2   -1    0    0  501    0  0.00000000000E+00  0.00000000000E+00  0.29990970558E+04  0.29990970558E+04  0.00000000000E+00 0. -1.
         -2   -1    0    0    0  501 -0.00000000000E+00 -0.00000000000E+00 -0.11467806604E+04  0.11467806604E+04  0.00000000000E+00 0.  1.
         23    2    1    2    0    0  0.16033360612E+04 -0.75521221994E+03  0.15328873563E+04  0.23450259918E+04  0.91494441076E+02 0.  0.
         13    1    3    3    0    0  0.56845214626E+03 -0.27652583383E+03  0.49032873859E+03  0.80001665686E+03  0.00000000000E+00 0.  1.
        -13    1    3    3    0    0  0.10348839149E+04 -0.47868638612E+03  0.10425586177E+04  0.15450093349E+04  0.00000000000E+00 0. -1.
         22    1    1    2    0    0 -0.16033360612E+04  0.75521221994E+03  0.31942903918E+03  0.18008517244E+04  0.00000000000E+00 0. -1.
<mgrwt>
<rscale>  0 0.37090735E+04</rscale>
<asrwt>0</asrwt>
<pdfrwt beam="1">  1        2 0.46139954E+00 0.37090735E+04</pdfrwt>
<pdfrwt beam="2">  1       -2 0.17642780E+00 0.37090735E+04</pdfrwt>
<totfact> 0.27022444E-01</totfact>
</mgrwt>
</event>
<event>
 6    1  0.1028026E-006  0.1363694E+04  0.7818608E-02  0.8980526E-01
          2   -1    0    0  501    0  0.00000000000E+00  0.00000000000E+00  0.93187539704E+03  0.93187539704E+03  0.00000000000E+00 0. -1.
         -2   -1    0    0    0  501 -0.00000000000E+00 -0.00000000000E+00 -0.49890269163E+03  0.49890269163E+03  0.00000000000E+00 0.  1.
         23    2    1    2    0    0 -0.64970702453E+03 -0.18976887437E+03  0.16003434935E+03  0.70096524306E+03  0.87234371640E+02 0.  0.
         13    1    3    3    0    0 -0.55308837703E+03 -0.18702761399E+03  0.15547254687E+03  0.60420012746E+03  0.00000000000E+00 0. -1.
        -13    1    3    3    0    0 -0.96618647507E+02 -0.27412603858E+01  0.45618024837E+01  0.96765115597E+02  0.00000000000E+00 0.  1.
         22    1    1    2    0    0  0.64970702453E+03  0.18976887437E+03  0.27293835607E+03  0.72981284561E+03  0.00000000000E+00 0.  1.
<mgrwt>
<rscale>  0 0.13636937E+04</rscale>
<asrwt>0</asrwt>
<pdfrwt beam="1">  1        2 0.14336545E+00 0.13636937E+04</pdfrwt>
<pdfrwt beam="2">  1       -2 0.76754260E-01 0.13636937E+04</pdfrwt>
<totfact> 0.41323659E+01</totfact>
</mgrwt>
</event>
<event>
 6    1  0.1028026E-006  0.1778814E+04  0.7818608E-02  0.8717648E-01
         -2   -1    0    0    0  501 -0.00000000000E+00  0.00000000000E+00  0.35807856675E+03  0.35807856675E+03  0.00000000000E+00 0.  1.
          2   -1    0    0  501    0  0.00000000000E+00 -0.00000000000E+00 -0.22091386801E+04  0.22091386801E+04  0.00000000000E+00 0. -1.
         23    2    1    2    0    0  0.91853827411E+02 -0.20868206665E+03 -0.21652558816E+04  0.21790107150E+04  0.88143816957E+02 0.  0.
         13    1    3    3    0    0  0.13994074620E+02 -0.95089107628E+02 -0.59338279733E+03  0.60111639196E+03  0.00000000000E+00 0.  1.
        -13    1    3    3    0    0  0.77859752791E+02 -0.11359295902E+03 -0.15718730843E+04  0.15778943230E+04  0.00000000000E+00 0. -1.
         22    1    1    2    0    0 -0.91853827411E+02  0.20868206665E+03  0.31419576831E+03  0.38820653186E+03  0.00000000000E+00 0.  1.
<mgrwt>
<rscale>  0 0.17788145E+04</rscale>
<asrwt>0</asrwt>
<pdfrwt beam="1">  1        2 0.33986748E+00 0.17788145E+04</pdfrwt>
<pdfrwt beam="2">  1       -2 0.55089011E-01 0.17788145E+04</pdfrwt>
<totfact> 0.14957889E+01</totfact>
</mgrwt>
</event>
<event>
 6    1  0.1028026E-006  0.1312105E+04  0.7818608E-02  0.9020021E-01
          1   -1    0    0  501    0  0.00000000000E+00  0.00000000000E+00  0.22153142352E+04  0.22153142352E+04  0.00000000000E+00 0. -1.
         -1   -1    0    0    0  501 -0.00000000000E+00 -0.00000000000E+00 -0.19428612099E+03  0.19428612099E+03  0.00000000000E+00 0.  1.
         23    2    1    2    0    0 -0.12419795589E+03  0.35715391621E+03  0.38541637686E+02  0.39137423365E+03  0.93296735287E+02 0.  0.
         13    1    3    3    0    0 -0.10208793876E+02  0.15952066844E+03  0.32654152416E+02  0.16314826632E+03  0.00000000000E+00 0. -1.
        -13    1    3    3    0    0 -0.11398916202E+03  0.19763324777E+03  0.58874852699E+01  0.22822596734E+03  0.00000000000E+00 0.  1.
         22    1    1    2    0    0  0.12419795589E+03 -0.35715391621E+03  0.19824864765E+04  0.20182261225E+04  0.00000000000E+00 0. -1.
<mgrwt>
<rscale>  0 0.13121049E+04</rscale>
<asrwt>0</asrwt>
<pdfrwt beam="1">  1        1 0.34081756E+00 0.13121049E+04</pdfrwt>
<pdfrwt beam="2">  1       -1 0.29890174E-01 0.13121049E+04</pdfrwt>
<totfact> 0.21491803E+01</totfact>
</mgrwt>
</event>
<event>
 6    1  0.1028026E-006  0.4161798E+04  0.7818608E-02  0.7972679E-01
          1   -1    0    0  501    0  0.00000000000E+00  0.00000000000E+00  0.43531168730E+04  0.43531168730E+04  0.00000000000E+00 0. -1.
         -1   -1    0    0    0  501 -0.00000000000E+00 -0.00000000000E+00 -0.99472211308E+03  0.99472211308E+03  0.00000000000E+00 0.  1.
         23    2    1    2    0    0 -0.19226307555E+04 -0.49922928084E+03  0.88772073476E+03  0.21776703730E+04  0.91985073760E+02 0.  0.
         11    1    3    3    0    0 -0.13927709319E+04 -0.35059765872E+03  0.68495292626E+03  0.15911914084E+04  0.00000000000E+00 0. -1.
        -11    1    3    3    0    0 -0.52985982358E+03 -0.14863162212E+03  0.20276780849E+03  0.58647896458E+03  0.00000000000E+00 0.  1.
         22    1    1    2    0    0  0.19226307555E+04  0.49922928084E+03  0.24706740251E+04  0.31701686130E+04  0.00000000000E+00 0. -1.
<mgrwt>
<rscale>  0 0.41617985E+04</rscale>
<asrwt>0</asrwt>
<pdfrwt beam="1">  1        1 0.66971028E+00 0.41617985E+04</pdfrwt>
<pdfrwt beam="2">  1       -1 0.15303417E+00 0.41617985E+04</pdfrwt>
<totfact> 0.11475383E-02</totfact>
</mgrwt>
</event>
<event>
 6    1  0.1028026E-006  0.5234723E+04  0.7818608E-02  0.7793285E-01
          1   -1    0    0  501    0  0.00000000000E+00  0.00000000000E+00  0.38324898520E+04  0.38324898520E+04  0.00000000000E+00 0. -1.
         -1   -1    0    0    0  501 -0.00000000000E+00 -0.00000000000E+00 -0.17875011306E+04  0.17875011306E+04  0.00000000000E+00 0.  1.
         23    2    1    2    0    0 -0.17280622802E+04  0.98801721786E+02 -0.10838623402E+04  0.20442854592E+04  0.91566598044E+02 0.  0.
         11    1    3    3    0    0 -0.70325631802E+03  0.18041896646E+02 -0.39440671222E+03  0.80650580501E+03  0.00000000000E+00 0. -1.
        -11    1    3    3    0    0 -0.10248059622E+04  0.80759825140E+02 -0.68945562794E+03  0.12377796542E+04  0.00000000000E+00 0.  1.
         22    1    1    2    0    0  0.17280622802E+04 -0.98801721786E+02  0.31288510615E+04  0.35757055233E+04  0.00000000000E+00 0. -1.
<mgrwt>
<rscale>  0 0.52347225E+04</rscale>
<asrwt>0</asrwt>
<pdfrwt beam="1">  1        1 0.58961382E+00 0.52347225E+04</pdfrwt>
<pdfrwt beam="2">  1       -1 0.27500017E+00 0.52347225E+04</pdfrwt>
<totfact> 0.45366293E-03</totfact>
</mgrwt>
</event>
<event>
 6    1  0.1028026E-006  0.3562831E+04  0.7818608E-02  0.8099059E-01
         -2   -1    0    0    0  501 -0.00000000000E+00  0.00000000000E+00  0.88391185841E+03  0.88391185841E+03  0.00000000000E+00 0.  1.
          2   -1    0    0  501    0  0.00000000000E+00 -0.00000000000E+00 -0.35902242484E+04  0.35902242484E+04  0.00000000000E+00 0. -1.
         23    2    1    2    0    0 -0.37888836467E+03  0.77096561849E+03 -0.33121448829E+04  0.34229570606E+04  0.91580212473E+02 0.  0.
         11    1    3    3    0    0 -0.33150138671E+03  0.60703381596E+03 -0.25696899907E+04  0.26611444665E+04  0.00000000000E+00 0.  1.
        -11    1    3    3    0    0 -0.47386977966E+02  0.16393180252E+03 -0.74245489217E+03  0.76181259406E+03  0.00000000000E+00 0. -1.
         22    1    1    2    0    0  0.37888836467E+03 -0.77096561849E+03  0.60583249293E+03  0.10511790462E+04  0.00000000000E+00 0.  1.
<mgrwt>
<rscale>  0 0.35628313E+04</rscale>
<asrwt>0</asrwt>
<pdfrwt beam="1">  1        2 0.55234219E+00 0.35628313E+04</pdfrwt>
<pdfrwt beam="2">  1       -2 0.13598644E+00 0.35628313E+04</pdfrwt>
<totfact> 0.22170694E-01</totfact>
</mgrwt>
</event>
<event>
 6    1  0.1028026E-006  0.6196997E+04  0.7818608E-02  0.7666445E-01
         -1   -1    0    0    0  501 -0.00000000000E+00  0.00000000000E+00  0.27200364045E+04  0.27200364045E+04  0.00000000000E+00 0.  1.
          1   -1    0    0  501    0  0.00000000000E+00 -0.00000000000E+00 -0.35296192750E+04  0.35296192750E+04  0.00000000000E+00 0. -1.
         23    2    1    2    0    0 -0.69863786236E+03 -0.27961821236E+04 -0.15502167559E+04  0.32738754653E+04  0.91428886455E+02 0.  0.
         11    1    3    3    0    0 -0.63687163472E+03 -0.26112800321E+04 -0.14646395178E+04  0.30609733423E+04  0.00000000000E+00 0.  1.
        -11    1    3    3    0    0 -0.61766227644E+02 -0.18490209143E+03 -0.85577238058E+02  0.21290212298E+03  0.00000000000E+00 0. -1.
         22    1    1    2    0    0  0.69863786236E+03  0.27961821236E+04  0.74063388538E+03  0.29757802142E+04  0.00000000000E+00 0.  1.
<mgrwt>
<rscale>  0 0.61969970E+04</rscale>
<asrwt>0</asrwt>
<pdfrwt beam="1">  1        1 0.54301834E+00 0.61969970E+04</pdfrwt>
<pdfrwt beam="2">  1       -1 0.41846714E+00 0.61969970E+04</pdfrwt>
<totfact> 0.83297028E-04</totfact>
</mgrwt>
</event>
<event>
 6    1  0.1028026E-006  0.1476896E+04  0.7818608E-02  0.8899964E-01
          2   -1    0    0  501    0  0.00000000000E+00  0.00000000000E+00  0.86633915980E+03  0.86633915980E+03  0.00000000000E+00 0. -1.
         -2   -1    0    0    0  501 -0.00000000000E+00 -0.00000000000E+00 -0.62943608430E+03  0.62943608430E+03  0.00000000000E+00 0.  1.
         23    2    1    2    0    0 -0.43566105037E+03  0.27143021171E+03  0.65252783921E+03  0.83530658107E+03  0.92030390636E+02 0.  0.
         13    1    3    3    0    0 -0.31790499621E+03  0.21886296583E+03  0.42753985056E+03  0.57598169089E+03  0.00000000000E+00 0. -1.
        -13    1    3    3    0    0 -0.11775605417E+03  0.52567245887E+02  0.22498798865E+03  0.25932489018E+03  0.00000000000E+00 0.  1.
         22    1    1    2    0    0  0.43566105037E+03 -0.27143021171E+03 -0.41562476371E+03  0.66046866303E+03  0.00000000000E+00 0.  1.
<mgrwt>
<rscale>  0 0.14768956E+04</rscale>
<asrwt>0</asrwt>
<pdfrwt beam="1">  1        2 0.13328295E+00 0.14768956E+04</pdfrwt>
<pdfrwt beam="2">  1       -2 0.96836320E-01 0.14768956E+04</pdfrwt>
<totfact> 0.26672975E+01</totfact>
</mgrwt>
</event>
<event>
 6    1  0.1028026E-006  0.3405529E+04  0.7818608E-02  0.8136551E-01
         -1   -1    0    0    0  501 -0.00000000000E+00  0.00000000000E+00  0.26624213127E+04  0.26624213127E+04  0.00000000000E+00 0.  1.
          1   -1    0    0  501    0  0.00000000000E+00 -0.00000000000E+00 -0.10890113532E+04  0.10890113532E+04  0.00000000000E+00 0. -1.
         23    2    1    2    0    0 -0.87862323174E+03 -0.91018249922E+03 -0.46639619320E+03  0.13511784905E+04  0.88016697628E+02 0.  0.
         11    1    3    3    0    0 -0.64601968254E+03 -0.61649871456E+03 -0.31094045766E+03  0.94556653044E+03  0.00000000000E+00 0. -1.
        -11    1    3    3    0    0 -0.23260354920E+03 -0.29368378466E+03 -0.15545573553E+03  0.40561196011E+03  0.00000000000E+00 0.  1.
         22    1    1    2    0    0  0.87862323174E+03  0.91018249922E+03  0.20398061527E+04  0.24002541753E+04  0.00000000000E+00 0.  1.
<mgrwt>
<rscale>  0 0.34055291E+04</rscale>
<asrwt>0</asrwt>
<pdfrwt beam="1">  1        1 0.16754021E+00 0.34055291E+04</pdfrwt>
<pdfrwt beam="2">  1       -1 0.40960328E+00 0.34055291E+04</pdfrwt>
<totfact> 0.65273217E-02</totfact>
</mgrwt>
</event>
<event>
 6    1  0.1028026E-006  0.3564409E+04  0.7818608E-02  0.8098693E-01
         -1   -1    0    0    0  501 -0.00000000000E+00  0.00000000000E+00  0.13374518030E+04  0.13374518030E+04  0.00000000000E+00 0.  1.
          1   -1    0    0  501    0  0.00000000000E+00 -0.00000000000E+00 -0.23748536159E+04  0.23748536159E+04  0.00000000000E+00 0. -1.
         23    2    1    2    0    0 -0.48872185237E+02 -0.53492036606E+03  0.12495366839E+04  0.13631319522E+04  0.90876323766E+02 0.  0.
         11    1    3    3    0    0 -0.72996947574E+02 -0.43114949749E+03  0.97130840529E+03  0.10652034837E+04  0.00000000000E+00 0. -1.
        -11    1    3    3    0    0  0.24124762337E+02 -0.10377086856E+03  0.27822827859E+03  0.29792846848E+03  0.00000000000E+00 0.  1.
         22    1    1    2    0    0  0.48872185237E+02  0.53492036606E+03 -0.22869384968E+04  0.23491734667E+04  0.00000000000E+00 0. -1.
<mgrwt>
<rscale>  0 0.35644086E+04</rscale>
<asrwt>0</asrwt>
<pdfrwt beam="1">  1        1 0.36536209E+00 0.35644086E+04</pdfrwt>
<pdfrwt beam="2">  1       -1 0.20576182E+00 0.35644086E+04</pdfrwt>
<totfact> 0.18432680E-01</totfact>
</mgrwt>
</event>
<event>
 6    1  0.1028026E-006  0.9816714E+03  0.7818608E-02  0.9328879E-01
          2   -1    0    0  501    0  0.00000000000E+00  0.00000000000E+00  0.13583777809E+04  0.13583777809E+04  0.00000000000E+00 0. -1.
         -2   -1    0    0    0  501 -0.00000000000E+00 -0.00000000000E+00 -0.17735838305E+03  0.17735838305E+03  0.00000000000E+00 0.  1.
         23    2    1    2    0    0  0.24820144408E+03  0.74595810323E+02 -0.48593315642E+02  0.27910737352E+03  0.91493846050E+02 0.  0.
         13    1    3    3    0    0  0.21131729854E+03  0.25825012743E+02 -0.28757994914E+02  0.21482307654E+03  0.00000000000E+00 0. -1.
        -13    1    3    3    0    0  0.36884145545E+02  0.48770797580E+02 -0.19835320728E+02  0.64284296975E+02  0.00000000000E+00 0.  1.
         22    1    1    2    0    0 -0.24820144408E+03 -0.74595810323E+02  0.12296127135E+04  0.12566287904E+04  0.00000000000E+00 0. -1.
<mgrwt>
<rscale>  0 0.98167140E+03</rscale>
<asrwt>0</asrwt>
<pdfrwt beam="1">  1        2 0.20898119E+00 0.98167140E+03</pdfrwt>
<pdfrwt beam="2">  1       -2 0.27285906E-01 0.98167140E+03</pdfrwt>
<totfact> 0.18656034E+02</totfact>
</mgrwt>
</event>
<event>
 6    1  0.1028026E-006  0.5010736E+04  0.7818608E-02  0.7826853E-01
         -2   -1    0    0    0  501 -0.00000000000E+00  0.00000000000E+00  0.25610798813E+04  0.25610798813E+04  0.00000000000E+00 0.  1.
          2   -1    0    0  501    0  0.00000000000E+00 -0.00000000000E+00 -0.24508684012E+04  0.24508684012E+04  0.00000000000E+00 0. -1.
         23    2    1    2    0    0 -0.15270859664E+04 -0.36350379517E+02 -0.19301927138E+04  0.24631128282E+04  0.89263613594E+02 0.  0.
         11    1    3    3    0    0 -0.95310684234E+03  0.10760806482E+02 -0.12470400298E+04  0.15695978095E+04  0.00000000000E+00 0.  1.
        -11    1    3    3    0    0 -0.57397912410E+03 -0.47111185999E+02 -0.68315268407E+03  0.89351501862E+03  0.00000000000E+00 0. -1.
         22    1    1    2    0    0  0.15270859664E+04  0.36350379517E+02  0.20404041939E+04  0.25488354544E+04  0.00000000000E+00 0.  1.
<mgrwt>
<rscale>  0 0.50107364E+04</rscale>
<asrwt>0</asrwt>
<pdfrwt beam="1">  1        2 0.37705668E+00 0.50107364E+04</pdfrwt>
<pdfrwt beam="2">  1       -2 0.39401229E+00 0.50107364E+04</pdfrwt>
<totfact> 0.21969528E-02</totfact>
</mgrwt>
</event>
<event>
 6    1  0.1028026E-006  0.3051563E+04  0.7818608E-02  0.8229158E-01
         -2   -1    0    0    0  501 -0.00000000000E+00  0.00000000000E+00  0.11484706389E+04  0.11484706389E+04  0.00000000000E+00 0.  1.
          2   -1    0    0  501    0  0.00000000000E+00 -0.00000000000E+00 -0.20270521476E+04  0.20270521476E+04  0.00000000000E+00 0. -1.
         23    2    1    2    0    0  0.76076258012E+03 -0.52373919721E+03 -0.17016763782E+04  0.19383697587E+04  0.92262535096E+02 0.  0.
         11    1    3    3    0    0  0.37209000726E+03 -0.22246965000E+03 -0.72090798618E+03  0.84122056752E+03  0.00000000000E+00 0.  1.
        -11    1    3    3    0    0  0.38867257286E+03 -0.30126954722E+03 -0.98076839200E+03  0.10971491912E+04  0.00000000000E+00 0. -1.
         22    1    1    2    0    0 -0.76076258012E+03  0.52373919721E+03  0.82309486948E+03  0.12371530278E+04  0.00000000000E+00 0.  1.
<mgrwt>
<rscale>  0 0.30515635E+04</rscale>
<asrwt>0</asrwt>
<pdfrwt beam="1">  1        2 0.31185417E+00 0.30515635E+04</pdfrwt>
<pdfrwt beam="2">  1       -2 0.17668779E+00 0.30515635E+04</pdfrwt>
<totfact> 0.10518541E+00</totfact>
</mgrwt>
</event>
<event>
 6    1  0.1028026E-006  0.1295032E+04  0.7818608E-02  0.9033515E-01
          3   -1    0    0  501    0  0.00000000000E+00  0.00000000000E+00  0.29269447886E+03  0.29269447886E+03  0.00000000000E+00 0. -1.
         -3   -1    0    0    0  501 -0.00000000000E+00 -0.00000000000E+00 -0.14324720214E+04  0.14324720214E+04  0.00000000000E+00 0.  1.
         23    2    1    2    0    0  0.83910610564E+02  0.63779760260E+03 -0.52068806557E+03  0.83236274077E+03  0.88796949044E+02 0.  0.
         13    1    3    3    0    0  0.79425311713E+02  0.28895080589E+03 -0.21942152347E+03  0.37141183789E+03  0.00000000000E+00 0. -1.
        -13    1    3    3    0    0  0.44852988512E+01  0.34884679670E+03 -0.30126654210E+03  0.46095090288E+03  0.00000000000E+00 0.  1.
         22    1    1    2    0    0 -0.83910610564E+02 -0.63779760260E+03 -0.61908947694E+03  0.89280375946E+03  0.00000000000E+00 0.  1.
<mgrwt>
<rscale>  0 0.12950315E+04</rscale>
<asrwt>0</asrwt>
<pdfrwt beam="1">  1        3 0.45029919E-01 0.12950315E+04</pdfrwt>
<pdfrwt beam="2">  1       -3 0.22038031E+00 0.12950315E+04</pdfrwt>
<totfact> 0.13831239E+00</totfact>
</mgrwt>
</event>
<event>
 6    1  0.1028026E-006  0.1733655E+04  0.7818608E-02  0.8742399E-01
         -1   -1    0    0    0  501 -0.00000000000E+00  0.00000000000E+00  0.38009732280E+03  0.38009732280E+03  0.00000000000E+00 0.  1.
          1   -1    0    0  501    0  0.00000000000E+00 -0.00000000000E+00 -0.19768346387E+04  0.19768346387E+04  0.00000000000E+00 0. -1.
         23    2    1    2    0    0  0.58004100059E+03 -0.42583676923E+03 -0.14517624956E+04  0.16229004806E+04  0.91690293517E+02 0.  0.
         13    1    3    3    0    0  0.39781105861E+03 -0.27574787860E+03 -0.88041409050E+03  0.10046987119E+04  0.00000000000E+00 0. -1.
        -13    1    3    3    0    0  0.18222994199E+03 -0.15008889062E+03 -0.57134840509E+03  0.61820176871E+03  0.00000000000E+00 0.  1.
         22    1    1    2    0    0 -0.58004100059E+03  0.42583676923E+03 -0.14497482029E+03  0.73403148087E+03  0.00000000000E+00 0.  1.
<mgrwt>
<rscale>  0 0.17336546E+04</rscale>
<asrwt>0</asrwt>
<pdfrwt beam="1">  1        1 0.30412839E+00 0.17336546E+04</pdfrwt>
<pdfrwt beam="2">  1       -1 0.58476513E-01 0.17336546E+04</pdfrwt>
<totfact> 0.86905655E+00</totfact>
</mgrwt>
</event>
<event>
 6    1  0.1028026E-006  0.2964494E+04  0.7818608E-02  0.8253943E-01
         -2   -1    0    0    0  501 -0.00000000000E+00  0.00000000000E+00  0.11315593215E+04  0.11315593215E+04  0.00000000000E+00 0.  1.
          2   -1    0    0  501    0  0.00000000000E+00 -0.00000000000E+00 -0.19416187048E+04  0.19416187048E+04  0.00000000000E+00 0. -1.
         23    2    1    2    0    0 -0.14781897893E+04  0.82919423421E+02 -0.43806373555E+03  0.15466455354E+04  0.91059826181E+02 0.  0.
         11    1    3    3    0    0 -0.49637780210E+03 -0.47442396071E+01 -0.11756157000E+03  0.51013150556E+03  0.00000000000E+00 0.  1.
        -11    1    3    3    0    0 -0.98181198717E+03  0.87663663028E+02 -0.32050216554E+03  0.10365140299E+04  0.00000000000E+00 0. -1.
         22    1    1    2    0    0  0.14781897893E+04 -0.82919423421E+02 -0.37199564778E+03  0.15265324909E+04  0.00000000000E+00 0. -1.
<mgrwt>
<rscale>  0 0.29644944E+04</rscale>
<asrwt>0</asrwt>
<pdfrwt beam="1">  1        2 0.29871056E+00 0.29644944E+04</pdfrwt>
<pdfrwt beam="2">  1       -2 0.17408605E+00 0.29644944E+04</pdfrwt>
<totfact> 0.12327099E+00</totfact>
</mgrwt>
</event>
<event>
 6    1  0.1028026E-006  0.2960805E+04  0.7818608E-02  0.8255013E-01
         -2   -1    0    0    0  501 -0.00000000000E+00  0.00000000000E+00  0.10713999916E+04  0.10713999916E+04  0.00000000000E+00 0.  1.
          2   -1    0    0  501    0  0.00000000000E+00 -0.00000000000E+00 -0.20455398190E+04  0.20455398190E+04  0.00000000000E+00 0. -1.
         23    2    1    2    0    0 -0.57965789295E+02 -0.96229414244E+03  0.69302899101E+03  0.11911096212E+04  0.95304238995E+02 0.  0.
         13    1    3    3    0    0  0.41588470049E+01 -0.12284664384E+03  0.53882036362E+02  0.13420829987E+03  0.00000000000E+00 0. -1.
        -13    1    3    3    0    0 -0.62124636300E+02 -0.83944749860E+03  0.63914695465E+03  0.10569013213E+04  0.00000000000E+00 0.  1.
         22    1    1    2    0    0  0.57965789295E+02  0.96229414244E+03 -0.16671688184E+04  0.19258301894E+04  0.00000000000E+00 0. -1.
<mgrwt>
<rscale>  0 0.29608049E+04</rscale>
<asrwt>0</asrwt>
<pdfrwt beam="1">  1        2 0.31469843E+00 0.29608049E+04</pdfrwt>
<pdfrwt beam="2">  1       -2 0.16483077E+00 0.29608049E+04</pdfrwt>
<totfact> 0.12566155E+00</totfact>
</mgrwt>
</event>
<event>
 6    1  0.1028026E-006  0.9784346E+03  0.7818608E-02  0.9332519E-01
          1   -1    0    0  501    0  0.00000000000E+00  0.00000000000E+00  0.45146486484E+03  0.45146486484E+03  0.00000000000E+00 0. -1.
         -1   -1    0    0    0  501 -0.00000000000E+00 -0.00000000000E+00 -0.53012664349E+03  0.53012664349E+03  0.00000000000E+00 0.  1.
         23    2    1    2    0    0 -0.78881726489E+02 -0.58899726212E+02  0.43511454339E+03  0.45846856522E+03  0.10572253737E+03 0.  0.
         11    1    3    3    0    0 -0.22682519607E+02 -0.15951518830E+02  0.33355532042E+03  0.33470598953E+03  0.00000000000E+00 0. -1.
        -11    1    3    3    0    0 -0.56199206882E+02 -0.42948207382E+02  0.10155922297E+03  0.12376257569E+03  0.00000000000E+00 0.  1.
         22    1    1    2    0    0  0.78881726489E+02  0.58899726212E+02 -0.51377632203E+03  0.52312294311E+03  0.00000000000E+00 0.  1.
<mgrwt>
<rscale>  0 0.97843457E+03</rscale>
<asrwt>0</asrwt>
<pdfrwt beam="1">  1        1 0.69456133E-01 0.97843457E+03</pdfrwt>
<pdfrwt beam="2">  1       -1 0.81557945E-01 0.97843457E+03</pdfrwt>
<totfact> 0.76648239E+01</totfact>
</mgrwt>
</event>
<event>
 6    1  0.1028026E-006  0.2542553E+04  0.7818608E-02  0.8387981E-01
          2   -1    0    0  501    0  0.00000000000E+00  0.00000000000E+00  0.25290197765E+04  0.25290197765E+04  0.00000000000E+00 0. -1.
         -2   -1    0    0    0  501 -0.00000000000E+00 -0.00000000000E+00 -0.63903952684E+03  0.63903952684E+03  0.00000000000E+00 0.  1.
         23    2    1    2    0    0  0.10550823800E+04 -0.50621629143E+03  0.15597417457E+04  0.19521188312E+04  0.92303062447E+02 0.  0.
         11    1    3    3    0    0  0.28524070913E+03 -0.92394107156E+02  0.39307162248E+03  0.49437256556E+03  0.00000000000E+00 0.  1.
        -11    1    3    3    0    0  0.76984167089E+03 -0.41382218428E+03  0.11666701233E+04  0.14577462656E+04  0.00000000000E+00 0. -1.
         22    1    1    2    0    0 -0.10550823800E+04  0.50621629143E+03  0.33023850394E+03  0.12159404722E+04  0.00000000000E+00 0. -1.
<mgrwt>
<rscale>  0 0.25425527E+04</rscale>
<asrwt>0</asrwt>
<pdfrwt beam="1">  1        2 0.38907996E+00 0.25425527E+04</pdfrwt>
<pdfrwt beam="2">  1       -2 0.98313775E-01 0.25425527E+04</pdfrwt>
<totfact> 0.25585810E+00</totfact>
</mgrwt>
</event>
<event>
 6    1  0.1028026E-006  0.2097871E+04  0.7818608E-02  0.8562182E-01
          4   -1    0    0  501    0  0.00000000000E+00  0.00000000000E+00  0.16349304406E+04  0.16349304406E+04  0.00000000000E+00 0. -1.
         -4   -1    0    0    0  501 -0.00000000000E+00 -0.00000000000E+00 -0.67297405698E+03  0.67297405698E+03  0.00000000000E+00 0.  1.
         23    2    1    2    0    0  0.19431421386E+03 -0.82419930194E+03 -0.19553583995E+03  0.87373200076E+03  0.90060209956E+02 0.  0.
         13    1    3    3    0    0  0.25232723192E+02 -0.41107055070E+02 -0.26212310374E+02  0.54895951684E+02  0.00000000000E+00 0. -1.
        -13    1    3    3    0    0  0.16908149067E+03 -0.78309224687E+03 -0.16932352958E+03  0.81883604907E+03  0.00000000000E+00 0.  1.
         22    1    1    2    0    0 -0.19431421386E+03  0.82419930194E+03  0.11574922236E+04  0.14341724969E+04  0.00000000000E+00 0. -1.
<mgrwt>
<rscale>  0 0.20978711E+04</rscale>
<asrwt>0</asrwt>
<pdfrwt beam="1">  1        4 0.25152776E+00 0.20978711E+04</pdfrwt>
<pdfrwt beam="2">  1       -4 0.10353447E+00 0.20978711E+04</pdfrwt>
<totfact> 0.86512810E-02</totfact>
</mgrwt>
</event>
<event>
 6    1  0.1627621E-006  0.2522394E+04  0.7818608E-02  0.8395051E-01
         -2   -1    0    0    0  501 -0.00000000000E+00  0.00000000000E+00  0.80473775938E+03  0.80473775938E+03  0.00000000000E+00 0.  1.
          2   -1    0    0  501    0  0.00000000000E+00 -0.00000000000E+00 -0.19765667616E+04  0.19765667616E+04  0.00000000000E+00 0. -1.
         23    2    1    2    0    0  0.62092348181E+03 -0.18524736855E+02 -0.17948621876E+04  0.19014980160E+04  0.90968655084E+02 0.  0.
         11    1    3    3    0    0  0.33069942090E+03 -0.19584125576E+02 -0.82124393230E+03  0.88554347228E+03  0.00000000000E+00 0. -1.
        -11    1    3    3    0    0  0.29022406091E+03  0.10593887202E+01 -0.97361825531E+03  0.10159545437E+04  0.00000000000E+00 0.  1.
         22    1    1    2    0    0 -0.62092348181E+03  0.18524736855E+02  0.62303318538E+03  0.87980650499E+03  0.00000000000E+00 0.  1.
<mgrwt>
<rscale>  0 0.25223940E+04</rscale>
<asrwt>0</asrwt>
<pdfrwt beam="1">  1        2 0.30408719E+00 0.25223940E+04</pdfrwt>
<pdfrwt beam="2">  1       -2 0.12380581E+00 0.25223940E+04</pdfrwt>
<totfact> 0.30105256E+00</totfact>
</mgrwt>
</event>
<event>
 6    1  0.1028026E-006  0.1404687E+04  0.7818608E-02  0.8950433E-01
         -2   -1    0    0    0  501 -0.00000000000E+00  0.00000000000E+00  0.47969101503E+03  0.47969101503E+03  0.00000000000E+00 0.  1.
          2   -1    0    0  501    0  0.00000000000E+00 -0.00000000000E+00 -0.10283419488E+04  0.10283419488E+04  0.00000000000E+00 0. -1.
         23    2    1    2    0    0 -0.50652821905E+03 -0.40775091134E+03  0.66242395363E+00  0.65681218908E+03  0.92575215521E+02 0.  0.
         11    1    3    3    0    0 -0.11733124348E+03 -0.88990247034E+02 -0.38518569110E+02  0.15221552132E+03  0.00000000000E+00 0.  1.
        -11    1    3    3    0    0 -0.38919697557E+03 -0.31876066431E+03  0.39180993063E+02  0.50459666776E+03  0.00000000000E+00 0. -1.
         22    1    1    2    0    0  0.50652821905E+03  0.40775091134E+03 -0.54931335774E+03  0.85122077476E+03  0.00000000000E+00 0. -1.
<mgrwt>
<rscale>  0 0.14046870E+04</rscale>
<asrwt>0</asrwt>
<pdfrwt beam="1">  1        2 0.15820645E+00 0.14046870E+04</pdfrwt>
<pdfrwt beam="2">  1       -2 0.73798618E-01 0.14046870E+04</pdfrwt>
<totfact> 0.38910674E+01</totfact>
</mgrwt>
</event>
<event>
 6    1  0.1028026E-006  0.2255464E+04  0.7818608E-02  0.8495691E-01
          2   -1    0    0  501    0  0.00000000000E+00  0.00000000000E+00  0.15684370998E+04  0.15684370998E+04  0.00000000000E+00 0. -1.
         -2   -1    0    0    0  501 -0.00000000000E+00 -0.00000000000E+00 -0.81085754071E+03  0.81085754071E+03  0.00000000000E+00 0.  1.
         23    2    1    2    0    0  0.10898653975E+04  0.49847755622E+02  0.86057707778E+02  0.10981884856E+04  0.91217527938E+02 0.  0.
         11    1    3    3    0    0  0.59721966101E+03  0.82737203204E+01  0.57031935803E+01  0.59730419751E+03  0.00000000000E+00 0. -1.
        -11    1    3    3    0    0  0.49264573648E+03  0.41574035302E+02  0.80354514198E+02  0.50088428807E+03  0.00000000000E+00 0.  1.
         22    1    1    2    0    0 -0.10898653975E+04 -0.49847755622E+02  0.67152185129E+03  0.12811061549E+04  0.00000000000E+00 0. -1.
<mgrwt>
<rscale>  0 0.22554636E+04</rscale>
<asrwt>0</asrwt>
<pdfrwt beam="1">  1        2 0.24129802E+00 0.22554636E+04</pdfrwt>
<pdfrwt beam="2">  1       -2 0.12474731E+00 0.22554636E+04</pdfrwt>
<totfact> 0.50943894E+00</totfact>
</mgrwt>
</event>
<event>
 6    1  0.1028026E-006  0.5066528E+04  0.7818608E-02  0.7818326E-01
         -2   -1    0    0    0  501 -0.00000000000E+00  0.00000000000E+00  0.20409053068E+04  0.20409053068E+04  0.00000000000E+00 0.  1.
          2   -1    0    0  501    0  0.00000000000E+00 -0.00000000000E+00 -0.31444018081E+04  0.31444018081E+04  0.00000000000E+00 0. -1.
         23    2    1    2    0    0 -0.10016999845E+03  0.24493878937E+04  0.98448646090E+02  0.24550677078E+04  0.90167795429E+02 0.  0.
         13    1    3    3    0    0 -0.55884367021E+02  0.14941441292E+04  0.16323915390E+02  0.14952779713E+04  0.00000000000E+00 0.  1.
        -13    1    3    3    0    0 -0.44285631431E+02  0.95524376456E+03  0.82124730701E+02  0.95978973649E+03  0.00000000000E+00 0. -1.
         22    1    1    2    0    0  0.10016999845E+03 -0.24493878937E+04 -0.12019451474E+04  0.27302394071E+04  0.00000000000E+00 0.  1.
<mgrwt>
<rscale>  0 0.50665279E+04</rscale>
<asrwt>0</asrwt>
<pdfrwt beam="1">  1        2 0.48375412E+00 0.50665279E+04</pdfrwt>
<pdfrwt beam="2">  1       -2 0.31398543E+00 0.50665279E+04</pdfrwt>
<totfact> 0.26593234E-02</totfact>
</mgrwt>
</event>
<event>
 6    1  0.1028026E-006  0.3055850E+04  0.7818608E-02  0.8227960E-01
          1   -1    0    0  501    0  0.00000000000E+00  0.00000000000E+00  0.64760834161E+03  0.64760834161E+03  0.00000000000E+00 0. -1.
         -1   -1    0    0    0  501 -0.00000000000E+00 -0.00000000000E+00 -0.36048870875E+04  0.36048870875E+04  0.00000000000E+00 0.  1.
         23    2    1    2    0    0  0.70347814374E+03 -0.41009554575E+03  0.31658732127E+03  0.87888328765E+03  0.95647508865E+02 0.  0.
         11    1    3    3    0    0  0.14257214720E+03 -0.10117917259E+03  0.10765033979E+03  0.20531107564E+03  0.00000000000E+00 0.  1.
        -11    1    3    3    0    0  0.56090599654E+03 -0.30891637316E+03  0.20893698148E+03  0.67357221201E+03  0.00000000000E+00 0. -1.
         22    1    1    2    0    0 -0.70347814374E+03  0.41009554575E+03 -0.32738660672E+04  0.33736121415E+04  0.00000000000E+00 0.  1.
<mgrwt>
<rscale>  0 0.30558501E+04</rscale>
<asrwt>0</asrwt>
<pdfrwt beam="1">  1        1 0.99632052E-01 0.30558501E+04</pdfrwt>
<pdfrwt beam="2">  1       -1 0.55459802E+00 0.30558501E+04</pdfrwt>
<totfact> 0.18296799E-02</totfact>
</mgrwt>
</event>
<event>
 6    1  0.1028026E-006  0.2810787E+04  0.7818608E-02  0.8299927E-01
         -2   -1    0    0    0  501 -0.00000000000E+00  0.00000000000E+00  0.16651842499E+04  0.16651842499E+04  0.00000000000E+00 0.  1.
          2   -1    0    0  501    0  0.00000000000E+00 -0.00000000000E+00 -0.11861339450E+04  0.11861339450E+04  0.00000000000E+00 0. -1.
         23    2    1    2    0    0  0.18555047190E+03  0.94268197572E+03 -0.79870004892E+03  0.12526549247E+04  0.90245815309E+02 0.  0.
         13    1    3    3    0    0  0.13234753204E+03  0.58605172462E+03 -0.55083045373E+03  0.81509918533E+03  0.00000000000E+00 0. -1.
        -13    1    3    3    0    0  0.53202939856E+02  0.35663025109E+03 -0.24786959519E+03  0.43755573933E+03  0.00000000000E+00 0.  1.
         22    1    1    2    0    0 -0.18555047190E+03 -0.94268197572E+03  0.12777503538E+04  0.15986632702E+04  0.00000000000E+00 0.  1.
<mgrwt>
<rscale>  0 0.28107875E+04</rscale>
<asrwt>0</asrwt>
<pdfrwt beam="1">  1        2 0.18248215E+00 0.28107875E+04</pdfrwt>
<pdfrwt beam="2">  1       -2 0.25618219E+00 0.28107875E+04</pdfrwt>
<totfact> 0.98830033E-01</totfact>
</mgrwt>
</event>
<event>
 6    1  0.1028026E-006  0.2762371E+04  0.7818608E-02  0.8315047E-01
          2   -1    0    0  501    0  0.00000000000E+00  0.00000000000E+00  0.17908227711E+04  0.17908227711E+04  0.00000000000E+00 0. -1.
         -2   -1    0    0    0  501 -0.00000000000E+00 -0.00000000000E+00 -0.10652493126E+04  0.10652493126E+04  0.00000000000E+00 0.  1.
         23    2    1    2    0    0  0.68422863816E+03  0.41836513729E+03  0.15238550104E+04  0.17245016469E+04  0.92593845666E+02 0.  0.
         11    1    3    3    0    0  0.48767721371E+03  0.24944415559E+03  0.10091817967E+04  0.11482592697E+04  0.00000000000E+00 0.  1.
        -11    1    3    3    0    0  0.19655142444E+03  0.16892098170E+03  0.51467321366E+03  0.57624237727E+03  0.00000000000E+00 0. -1.
         22    1    1    2    0    0 -0.68422863816E+03 -0.41836513729E+03 -0.79828155185E+03  0.11315704368E+04  0.00000000000E+00 0.  1.
<mgrwt>
<rscale>  0 0.27623705E+04</rscale>
<asrwt>0</asrwt>
<pdfrwt beam="1">  1        2 0.27551120E+00 0.27623705E+04</pdfrwt>
<pdfrwt beam="2">  1       -2 0.16388451E+00 0.27623705E+04</pdfrwt>
<totfact> 0.17977840E+00</totfact>
</mgrwt>
</event>
<event>
 6    1  0.1028026E-006  0.3059648E+04  0.7818608E-02  0.8226900E-01
         -1   -1    0    0    0  501 -0.00000000000E+00  0.00000000000E+00  0.19274276012E+04  0.19274276012E+04  0.00000000000E+00 0.  1.
          1   -1    0    0  501    0  0.00000000000E+00 -0.00000000000E+00 -0.12142406317E+04  0.12142406317E+04  0.00000000000E+00 0. -1.
         23    2    1    2    0    0  0.13287498812E+04 -0.72118672474E+03  0.12649821508E+03  0.15199746018E+04  0.92921757541E+02 0.  0.
         11    1    3    3    0    0  0.11707509725E+04 -0.64373613086E+03  0.14066882174E+03  0.13434439933E+04  0.00000000000E+00 0. -1.
        -11    1    3    3    0    0  0.15799890869E+03 -0.77450593878E+02 -0.14170606662E+02  0.17653060849E+03  0.00000000000E+00 0.  1.
         22    1    1    2    0    0 -0.13287498812E+04  0.72118672474E+03  0.58668875446E+03  0.16216936311E+04  0.00000000000E+00 0.  1.
<mgrwt>
<rscale>  0 0.30596476E+04</rscale>
<asrwt>0</asrwt>
<pdfrwt beam="1">  1        1 0.18680625E+00 0.30596476E+04</pdfrwt>
<pdfrwt beam="2">  1       -1 0.29652732E+00 0.30596476E+04</pdfrwt>
<totfact> 0.30721598E-01</totfact>
</mgrwt>
</event>
<event>
 6    1  0.1028026E-006  0.4014703E+04  0.7818608E-02  0.8001587E-01
          1   -1    0    0  501    0  0.00000000000E+00  0.00000000000E+00  0.32103170683E+04  0.32103170683E+04  0.00000000000E+00 0. -1.
         -1   -1    0    0    0  501 -0.00000000000E+00 -0.00000000000E+00 -0.12551596990E+04  0.12551596990E+04  0.00000000000E+00 0.  1.
         23    2    1    2    0    0  0.86093685202E+03  0.42315012006E+03  0.29380333414E+04  0.30920454935E+04  0.91853858489E+02 0.  0.
         11    1    3    3    0    0  0.60759933602E+03  0.28007695041E+03  0.21677044123E+04  0.22686036389E+04  0.00000000000E+00 0. -1.
        -11    1    3    3    0    0  0.25333751601E+03  0.14307316965E+03  0.77032892912E+03  0.82344185461E+03  0.00000000000E+00 0.  1.
         22    1    1    2    0    0 -0.86093685202E+03 -0.42315012006E+03 -0.98287597208E+03  0.13734312738E+04  0.00000000000E+00 0.  1.
<mgrwt>
<rscale>  0 0.40147033E+04</rscale>
<asrwt>0</asrwt>
<pdfrwt beam="1">  1        1 0.49389493E+00 0.40147033E+04</pdfrwt>
<pdfrwt beam="2">  1       -1 0.19310149E+00 0.40147033E+04</pdfrwt>
<totfact> 0.54811012E-02</totfact>
</mgrwt>
</event>
<event>
 6    1  0.1028026E-006  0.3583041E+04  0.7818608E-02  0.8094387E-01
          2   -1    0    0  501    0  0.00000000000E+00  0.00000000000E+00  0.29235794097E+04  0.29235794097E+04  0.00000000000E+00 0. -1.
         -2   -1    0    0    0  501 -0.00000000000E+00 -0.00000000000E+00 -0.10978140512E+04  0.10978140512E+04  0.00000000000E+00 0.  1.
         23    2    1    2    0    0  0.15973474455E+04 -0.65980114664E+03  0.14393112064E+04  0.22504605919E+04  0.78100654657E+02 0.  0.
         13    1    3    3    0    0  0.14274688379E+04 -0.56484944291E+03  0.12890788314E+04  0.20046062980E+04  0.00000000000E+00 0. -1.
        -13    1    3    3    0    0  0.16987860753E+03 -0.94951703729E+02  0.15023237502E+03  0.24585429393E+03  0.00000000000E+00 0.  1.
         22    1    1    2    0    0 -0.15973474455E+04  0.65980114664E+03  0.38645415213E+03  0.17709328690E+04  0.00000000000E+00 0.  1.
<mgrwt>
<rscale>  0 0.35830415E+04</rscale>
<asrwt>0</asrwt>
<pdfrwt beam="1">  1        2 0.44978144E+00 0.35830415E+04</pdfrwt>
<pdfrwt beam="2">  1       -2 0.16889447E+00 0.35830415E+04</pdfrwt>
<totfact> 0.34395682E-01</totfact>
</mgrwt>
</event>
<event>
 6    1  0.1028026E-006  0.1371243E+04  0.7818608E-02  0.8974901E-01
         -1   -1    0    0    0  501 -0.00000000000E+00  0.00000000000E+00  0.26306895173E+03  0.26306895173E+03  0.00000000000E+00 0.  1.
          1   -1    0    0  501    0  0.00000000000E+00 -0.00000000000E+00 -0.17868960927E+04  0.17868960927E+04  0.00000000000E+00 0. -1.
         23    2    1    2    0    0  0.38569741321E+03 -0.14792737574E+03  0.46192538408E+02  0.42650984127E+03  0.95560928439E+02 0.  0.
         13    1    3    3    0    0  0.36232919627E+03 -0.11410627306E+03  0.26138083122E+02  0.38077012410E+03  0.00000000000E+00 0. -1.
        -13    1    3    3    0    0  0.23368216942E+02 -0.33821102680E+02  0.20054455286E+02  0.45739717166E+02  0.00000000000E+00 0.  1.
         22    1    1    2    0    0 -0.38569741321E+03  0.14792737574E+03 -0.15700196794E+04  0.16234552032E+04  0.00000000000E+00 0. -1.
<mgrwt>
<rscale>  0 0.13712431E+04</rscale>
<asrwt>0</asrwt>
<pdfrwt beam="1">  1        1 0.27490709E+00 0.13712431E+04</pdfrwt>
<pdfrwt beam="2">  1       -1 0.40472146E-01 0.13712431E+04</pdfrwt>
<totfact> 0.24233412E+01</totfact>
</mgrwt>
</event>
<event>
 6    1  0.1028026E-006  0.1876704E+04  0.7818608E-02  0.8666540E-01
          2   -1    0    0  501    0  0.00000000000E+00  0.00000000000E+00  0.27628121096E+04  0.27628121096E+04  0.00000000000E+00 0. -1.
         -2   -1    0    0    0  501 -0.00000000000E+00 -0.00000000000E+00 -0.31869866972E+03  0.31869866972E+03  0.00000000000E+00 0.  1.
         23    2    1    2    0    0 -0.37225850897E+03 -0.25806668516E+03 -0.12056835535E+03  0.47713609002E+03  0.89147678577E+02 0.  0.
         13    1    3    3    0    0 -0.13295395690E+03 -0.51707794029E+02 -0.12609170540E+02  0.14321117904E+03  0.00000000000E+00 0.  1.
        -13    1    3    3    0    0 -0.23930455207E+03 -0.20635889113E+03 -0.10795918481E+03  0.33392491098E+03  0.00000000000E+00 0. -1.
         22    1    1    2    0    0  0.37225850897E+03  0.25806668516E+03  0.25646817952E+04  0.26043746893E+04  0.00000000000E+00 0. -1.
<mgrwt>
<rscale>  0 0.18767041E+04</rscale>
<asrwt>0</asrwt>
<pdfrwt beam="1">  1        2 0.42504800E+00 0.18767041E+04</pdfrwt>
<pdfrwt beam="2">  1       -2 0.49030566E-01 0.18767041E+04</pdfrwt>
<totfact> 0.90163425E+00</totfact>
</mgrwt>
</event>
<event>
 6    1  0.1028026E-006  0.2128655E+04  0.7818608E-02  0.8548725E-01
         -1   -1    0    0    0  501 -0.00000000000E+00  0.00000000000E+00  0.99463259720E+03  0.99463259720E+03  0.00000000000E+00 0.  1.
          1   -1    0    0  501    0  0.00000000000E+00 -0.00000000000E+00 -0.11389062484E+04  0.11389062484E+04  0.00000000000E+00 0. -1.
         23    2    1    2    0    0 -0.18048925154E+03  0.52874821399E+03  0.83325291517E+03  0.10076129015E+04  0.93927071923E+02 0.  0.
         13    1    3    3    0    0 -0.18034632674E+03  0.41137902824E+03  0.65966691829E+03  0.79807139125E+03  0.00000000000E+00 0.  1.
        -13    1    3    3    0    0 -0.14292480436E+00  0.11736918574E+03  0.17358599687E+03  0.20954151021E+03  0.00000000000E+00 0. -1.
         22    1    1    2    0    0  0.18048925154E+03 -0.52874821399E+03 -0.97752656635E+03  0.11259259441E+04  0.00000000000E+00 0. -1.
<mgrwt>
<rscale>  0 0.21286552E+04</rscale>
<asrwt>0</asrwt>
<pdfrwt beam="1">  1        1 0.17521634E+00 0.21286552E+04</pdfrwt>
<pdfrwt beam="2">  1       -1 0.15302040E+00 0.21286552E+04</pdfrwt>
<totfact> 0.35952436E+00</totfact>
</mgrwt>
</event>
<event>
 6    1  0.1028026E-006  0.2956986E+04  0.7818608E-02  0.8256122E-01
         -2   -1    0    0    0  501 -0.00000000000E+00  0.00000000000E+00  0.13307879888E+04  0.13307879888E+04  0.00000000000E+00 0.  1.
          2   -1    0    0  501    0  0.00000000000E+00 -0.00000000000E+00 -0.16425917721E+04  0.16425917721E+04  0.00000000000E+00 0. -1.
         23    2    1    2    0    0 -0.12302115899E+03  0.13244847371E+04 -0.80167443768E+03  0.15558582329E+04  0.92838099405E+02 0.  0.
         13    1    3    3    0    0 -0.61703134945E+02  0.81786985443E+03 -0.44378167645E+03  0.93255592433E+03  0.00000000000E+00 0. -1.
        -13    1    3    3    0    0 -0.61318024046E+02  0.50661488262E+03 -0.35789276122E+03  0.62330230860E+03  0.00000000000E+00 0.  1.
         22    1    1    2    0    0  0.12302115899E+03 -0.13244847371E+04  0.48987065442E+03  0.14175215280E+04  0.00000000000E+00 0.  1.
<mgrwt>
<rscale>  0 0.29569859E+04</rscale>
<asrwt>0</asrwt>
<pdfrwt beam="1">  1        2 0.25270643E+00 0.29569859E+04</pdfrwt>
<pdfrwt beam="2">  1       -2 0.20473661E+00 0.29569859E+04</pdfrwt>
<totfact> 0.11232692E+00</totfact>
</mgrwt>
</event>
<event>
 6    1  0.1028026E-006  0.4991949E+04  0.7818608E-02  0.7829750E-01
         -2   -1    0    0    0  501 -0.00000000000E+00  0.00000000000E+00  0.20824391113E+04  0.20824391113E+04  0.00000000000E+00 0.  1.
          2   -1    0    0  501    0  0.00000000000E+00 -0.00000000000E+00 -0.29916307158E+04  0.29916307158E+04  0.00000000000E+00 0. -1.
         23    2    1    2    0    0  0.23712993656E+04  0.46806305213E+03  0.17473948618E+03  0.24250982698E+04  0.91782506042E+02 0.  0.
         11    1    3    3    0    0  0.56904065980E+03  0.89409948949E+02  0.95949466283E+01  0.57610196535E+03  0.00000000000E+00 0.  1.
        -11    1    3    3    0    0  0.18022587058E+04  0.37865310318E+03  0.16514453955E+03  0.18489963045E+04  0.00000000000E+00 0. -1.
         22    1    1    2    0    0 -0.23712993656E+04 -0.46806305213E+03 -0.10839310907E+04  0.26489715573E+04  0.00000000000E+00 0. -1.
<mgrwt>
<rscale>  0 0.49919490E+04</rscale>
<asrwt>0</asrwt>
<pdfrwt beam="1">  1        2 0.46025088E+00 0.49919490E+04</pdfrwt>
<pdfrwt beam="2">  1       -2 0.32037525E+00 0.49919490E+04</pdfrwt>
<totfact> 0.30562211E-02</totfact>
</mgrwt>
</event>
<event>
 6    1  0.1028026E-006  0.4245194E+04  0.7818608E-02  0.7956831E-01
         -2   -1    0    0    0  501 -0.00000000000E+00  0.00000000000E+00  0.15834928121E+04  0.15834928121E+04  0.00000000000E+00 0.  1.
          2   -1    0    0  501    0  0.00000000000E+00 -0.00000000000E+00 -0.28452409565E+04  0.28452409565E+04  0.00000000000E+00 0. -1.
         23    2    1    2    0    0 -0.17185630231E+03  0.12180754492E+04 -0.24345013067E+04  0.27291478283E+04  0.90602801455E+02 0.  0.
         11    1    3    3    0    0 -0.54562692476E+02  0.24149639811E+03 -0.42556938761E+03  0.49234835369E+03  0.00000000000E+00 0. -1.
        -11    1    3    3    0    0 -0.11729360983E+03  0.97657905108E+03 -0.20089319191E+04  0.22367994746E+04  0.00000000000E+00 0.  1.
         22    1    1    2    0    0  0.17185630231E+03 -0.12180754492E+04  0.11727531624E+04  0.16995859403E+04  0.00000000000E+00 0.  1.
<mgrwt>
<rscale>  0 0.42451943E+04</rscale>
<asrwt>0</asrwt>
<pdfrwt beam="1">  1        2 0.43772937E+00 0.42451943E+04</pdfrwt>
<pdfrwt beam="2">  1       -2 0.24361428E+00 0.42451943E+04</pdfrwt>
<totfact> 0.11808030E-01</totfact>
</mgrwt>
</event>
<event>
 6    1  0.1028026E-006  0.2420095E+04  0.7818608E-02  0.8432018E-01
          1   -1    0    0  501    0  0.00000000000E+00  0.00000000000E+00  0.55516488388E+03  0.55516488388E+03  0.00000000000E+00 0. -1.
         -1   -1    0    0    0  501 -0.00000000000E+00 -0.00000000000E+00 -0.26374415065E+04  0.26374415065E+04  0.00000000000E+00 0.  1.
         23    2    1    2    0    0 -0.75644045729E+03  0.93727404781E+03 -0.11532765040E+04  0.16715126962E+04  0.11499214182E+03 0.  0.
         11    1    3    3    0    0 -0.43163298124E+03  0.54691128466E+03 -0.58851320058E+03  0.91201248404E+03  0.00000000000E+00 0. -1.
        -11    1    3    3    0    0 -0.32480747604E+03  0.39036276315E+03 -0.56476330340E+03  0.75950021213E+03  0.00000000000E+00 0.  1.
         22    1    1    2    0    0  0.75644045729E+03 -0.93727404781E+03 -0.92900011861E+03  0.15210936942E+04  0.00000000000E+00 0.  1.
<mgrwt>
<rscale>  0 0.24200950E+04</rscale>
<asrwt>0</asrwt>
<pdfrwt beam="1">  1        1 0.85409983E-01 0.24200950E+04</pdfrwt>
<pdfrwt beam="2">  1       -1 0.40576023E+00 0.24200950E+04</pdfrwt>
<totfact> 0.22375021E-01</totfact>
</mgrwt>
</event>
<event>
 6    1  0.1028026E-006  0.1562641E+04  0.7818608E-02  0.8843833E-01
          2   -1    0    0  501    0  0.00000000000E+00  0.00000000000E+00  0.26670127894E+04  0.26670127894E+04  0.00000000000E+00 0. -1.
         -2   -1    0    0    0  501 -0.00000000000E+00 -0.00000000000E+00 -0.22889351047E+03  0.22889351047E+03  0.00000000000E+00 0.  1.
         23    2    1    2    0    0  0.68990052595E+03  0.28280907352E+03  0.80672191585E+03  0.11021947668E+04  0.89940794922E+02 0.  0.
         13    1    3    3    0    0  0.36449447123E+03  0.13880282479E+03  0.35725844536E+03  0.52891969193E+03  0.00000000000E+00 0.  1.
        -13    1    3    3    0    0  0.32540605472E+03  0.14400624873E+03  0.44946347048E+03  0.57327507483E+03  0.00000000000E+00 0. -1.
         22    1    1    2    0    0 -0.68990052595E+03 -0.28280907352E+03  0.16313973631E+04  0.17937115331E+04  0.00000000000E+00 0. -1.
<mgrwt>
<rscale>  0 0.15626413E+04</rscale>
<asrwt>0</asrwt>
<pdfrwt beam="1">  1        2 0.41030964E+00 0.15626413E+04</pdfrwt>
<pdfrwt beam="2">  1       -2 0.35214388E-01 0.15626413E+04</pdfrwt>
<totfact> 0.20300163E+01</totfact>
</mgrwt>
</event>
<event>
 6    1  0.1028026E-006  0.2649556E+04  0.7818608E-02  0.8351560E-01
         -3   -1    0    0    0  501 -0.00000000000E+00  0.00000000000E+00  0.45266556483E+03  0.45266556483E+03  0.00000000000E+00 0.  1.
          3   -1    0    0  501    0  0.00000000000E+00 -0.00000000000E+00 -0.38771144211E+04  0.38771144211E+04  0.00000000000E+00 0. -1.
         23    2    1    2    0    0  0.72923881605E+02  0.60145850933E+03  0.20829624141E+03  0.64685897461E+03  0.89269131813E+02 0.  0.
         11    1    3    3    0    0  0.48032103132E+02  0.31329151807E+03  0.62909157506E+02  0.32313498777E+03  0.00000000000E+00 0. -1.
        -11    1    3    3    0    0  0.24891778474E+02  0.28816699126E+03  0.14538708390E+03  0.32372398684E+03  0.00000000000E+00 0.  1.
         22    1    1    2    0    0 -0.72923881605E+02 -0.60145850933E+03 -0.36327450977E+04  0.36829210113E+04  0.00000000000E+00 0. -1.
<mgrwt>
<rscale>  0 0.26495556E+04</rscale>
<asrwt>0</asrwt>
<pdfrwt beam="1">  1        3 0.59647913E+00 0.26495556E+04</pdfrwt>
<pdfrwt beam="2">  1       -3 0.69640857E-01 0.26495556E+04</pdfrwt>
<totfact> 0.53177393E-03</totfact>
</mgrwt>
</event>
<event>
 6    1  0.1028026E-006  0.2163157E+04  0.7818608E-02  0.8533921E-01
          2   -1    0    0  501    0  0.00000000000E+00  0.00000000000E+00  0.18946060403E+04  0.18946060403E+04  0.00000000000E+00 0. -1.
         -2   -1    0    0    0  501 -0.00000000000E+00 -0.00000000000E+00 -0.61744368580E+03  0.61744368580E+03  0.00000000000E+00 0.  1.
         23    2    1    2    0    0 -0.18675692476E+03 -0.63683135263E+03  0.16286965580E+04  0.17610446550E+04  0.90517834094E+02 0.  0.
         13    1    3    3    0    0 -0.92809582904E+02 -0.43303612727E+03  0.11510685581E+04  0.12333258822E+04  0.00000000000E+00 0. -1.
        -13    1    3    3    0    0 -0.93947341854E+02 -0.20379522535E+03  0.47762799988E+03  0.52771877282E+03  0.00000000000E+00 0.  1.
         22    1    1    2    0    0  0.18675692476E+03  0.63683135263E+03 -0.35153420347E+03  0.75100507111E+03  0.00000000000E+00 0.  1.
<mgrwt>
<rscale>  0 0.21631574E+04</rscale>
<asrwt>0</asrwt>
<pdfrwt beam="1">  1        2 0.29147785E+00 0.21631574E+04</pdfrwt>
<pdfrwt beam="2">  1       -2 0.94991337E-01 0.21631574E+04</pdfrwt>
<totfact> 0.65343731E+00</totfact>
</mgrwt>
</event>
<event>
 6    1  0.1028026E-006  0.3770632E+04  0.7818608E-02  0.8052487E-01
         -2   -1    0    0    0  501 -0.00000000000E+00  0.00000000000E+00  0.15760117712E+04  0.15760117712E+04  0.00000000000E+00 0.  1.
          2   -1    0    0  501    0  0.00000000000E+00 -0.00000000000E+00 -0.22553236114E+04  0.22553236114E+04  0.00000000000E+00 0. -1.
         23    2    1    2    0    0  0.13552484231E+04 -0.10441800905E+04  0.46223182746E+03  0.17746068407E+04  0.92524737655E+02 0.  0.
         13    1    3    3    0    0  0.90648960299E+03 -0.66125875156E+03  0.33666521719E+03  0.11714648972E+04  0.00000000000E+00 0. -1.
        -13    1    3    3    0    0  0.44875882008E+03 -0.38292133894E+03  0.12556661027E+03  0.60314194352E+03  0.00000000000E+00 0.  1.
         22    1    1    2    0    0 -0.13552484231E+04  0.10441800905E+04 -0.11415436677E+04  0.20567285419E+04  0.00000000000E+00 0. -1.
<mgrwt>
<rscale>  0 0.37706321E+04</rscale>
<asrwt>0</asrwt>
<pdfrwt beam="1">  1        2 0.34697286E+00 0.37706321E+04</pdfrwt>
<pdfrwt beam="2">  1       -2 0.24246335E+00 0.37706321E+04</pdfrwt>
<totfact> 0.27626670E-01</totfact>
</mgrwt>
</event>
<event>
 6    1  0.1028026E-006  0.2434176E+04  0.7818608E-02  0.8426818E-01
         -2   -1    0    0    0  501 -0.00000000000E+00  0.00000000000E+00  0.16903939977E+04  0.16903939977E+04  0.00000000000E+00 0.  1.
          2   -1    0    0  501    0  0.00000000000E+00 -0.00000000000E+00 -0.87630666986E+03  0.87630666986E+03  0.00000000000E+00 0. -1.
         23    2    1    2    0    0 -0.54692634774E+03  0.10167283705E+04  0.80822844361E+03  0.14121880710E+04  0.90426332113E+02 0.  0.
         11    1    3    3    0    0 -0.31389222323E+03  0.50524534364E+03  0.38402300112E+03  0.70800766272E+03  0.00000000000E+00 0.  1.
        -11    1    3    3    0    0 -0.23303412451E+03  0.51148302684E+03  0.42420544249E+03  0.70418040826E+03  0.00000000000E+00 0. -1.
         22    1    1    2    0    0  0.54692634774E+03 -0.10167283705E+04  0.58588842552E+01  0.11545125966E+04  0.00000000000E+00 0.  1.
<mgrwt>
<rscale>  0 0.24341763E+04</rscale>
<asrwt>0</asrwt>
<pdfrwt beam="1">  1        2 0.13481641E+00 0.24341763E+04</pdfrwt>
<pdfrwt beam="2">  1       -2 0.26006061E+00 0.24341763E+04</pdfrwt>
<totfact> 0.15211729E+00</totfact>
</mgrwt>
</event>
<event>
 6    1  0.1028026E-006  0.3002027E+04  0.7818608E-02  0.8243152E-01
          3   -1    0    0  501    0  0.00000000000E+00  0.00000000000E+00  0.17085111233E+04  0.17085111233E+04  0.00000000000E+00 0. -1.
         -3   -1    0    0    0  501 -0.00000000000E+00 -0.00000000000E+00 -0.13187162280E+04  0.13187162280E+04  0.00000000000E+00 0.  1.
         23    2    1    2    0    0 -0.74561515620E+03 -0.42257409823E+03 -0.10454443514E+04  0.13555747185E+04  0.10058874731E+03 0.  0.
         13    1    3    3    0    0 -0.41166315032E+03 -0.24254567177E+03 -0.50447190002E+03  0.69482864804E+03  0.00000000000E+00 0.  1.
        -13    1    3    3    0    0 -0.33395200587E+03 -0.18002842646E+03 -0.54097245133E+03  0.66074607048E+03  0.00000000000E+00 0. -1.
         22    1    1    2    0    0  0.74561515620E+03  0.42257409823E+03  0.14352392467E+04  0.16716526328E+04  0.00000000000E+00 0. -1.
<mgrwt>
<rscale>  0 0.30020269E+04</rscale>
<asrwt>0</asrwt>
<pdfrwt beam="1">  1        3 0.26284786E+00 0.30020269E+04</pdfrwt>
<pdfrwt beam="2">  1       -3 0.20287942E+00 0.30020269E+04</pdfrwt>
<totfact> 0.19448649E-02</totfact>
</mgrwt>
</event>
<event>
 6    1  0.1028026E-006  0.2954750E+04  0.7818608E-02  0.8256772E-01
         -1   -1    0    0    0  501 -0.00000000000E+00  0.00000000000E+00  0.16566021435E+04  0.16566021435E+04  0.00000000000E+00 0.  1.
          1   -1    0    0  501    0  0.00000000000E+00 -0.00000000000E+00 -0.13175385438E+04  0.13175385438E+04  0.00000000000E+00 0. -1.
         23    2    1    2    0    0 -0.70138336866E+03 -0.10126384803E+04  0.98717885457E+03  0.15822252067E+04  0.10742063254E+03 0.  0.
         11    1    3    3    0    0 -0.19843439403E+03 -0.35374514011E+03  0.28284799767E+03  0.49448440084E+03  0.00000000000E+00 0.  1.
        -11    1    3    3    0    0 -0.50294897463E+03 -0.65889334018E+03  0.70433085690E+03  0.10877408059E+04  0.00000000000E+00 0. -1.
         22    1    1    2    0    0  0.70138336866E+03  0.10126384803E+04 -0.64811525485E+03  0.13919154806E+04  0.00000000000E+00 0. -1.
<mgrwt>
<rscale>  0 0.29547502E+04</rscale>
<asrwt>0</asrwt>
<pdfrwt beam="1">  1        1 0.20269824E+00 0.29547502E+04</pdfrwt>
<pdfrwt beam="2">  1       -1 0.25486187E+00 0.29547502E+04</pdfrwt>
<totfact> 0.48657006E-01</totfact>
</mgrwt>
</event>
<event>
 6    1  0.1028026E-006  0.2745019E+04  0.7818608E-02  0.8320544E-01
          2   -1    0    0  501    0  0.00000000000E+00  0.00000000000E+00  0.11748903915E+04  0.11748903915E+04  0.00000000000E+00 0. -1.
         -2   -1    0    0    0  501 -0.00000000000E+00 -0.00000000000E+00 -0.16033690842E+04  0.16033690842E+04  0.00000000000E+00 0.  1.
         23    2    1    2    0    0 -0.10753394054E+04  0.56068796097E+03 -0.86195643181E+03  0.14903818508E+04  0.86852429722E+02 0.  0.
         13    1    3    3    0    0 -0.45076229823E+03  0.23018722652E+03 -0.41232704019E+03  0.65282953122E+03  0.00000000000E+00 0. -1.
        -13    1    3    3    0    0 -0.62457710714E+03  0.33050073446E+03 -0.44962939162E+03  0.83755231959E+03  0.00000000000E+00 0.  1.
         22    1    1    2    0    0  0.10753394054E+04 -0.56068796097E+03  0.43347773916E+03  0.12878776249E+04  0.00000000000E+00 0. -1.
<mgrwt>
<rscale>  0 0.27450194E+04</rscale>
<asrwt>0</asrwt>
<pdfrwt beam="1">  1        2 0.18075237E+00 0.27450194E+04</pdfrwt>
<pdfrwt beam="2">  1       -2 0.24667217E+00 0.27450194E+04</pdfrwt>
<totfact> 0.11547229E+00</totfact>
</mgrwt>
</event>
<event>
 6    1  0.1028026E-006  0.3045516E+04  0.7818608E-02  0.8230852E-01
         -2   -1    0    0    0  501 -0.00000000000E+00  0.00000000000E+00  0.57605745568E+03  0.57605745568E+03  0.00000000000E+00 0.  1.
          2   -1    0    0  501    0  0.00000000000E+00 -0.00000000000E+00 -0.40252794511E+04  0.40252794511E+04  0.00000000000E+00 0. -1.
         23    2    1    2    0    0  0.12014278919E+04 -0.71643070804E+03 -0.26297159855E+04  0.29801361052E+04  0.95410179821E+02 0.  0.
         11    1    3    3    0    0  0.29940455745E+02 -0.35934914112E+02 -0.74208692102E+02  0.87719319001E+02  0.00000000000E+00 0.  1.
        -11    1    3    3    0    0  0.11714874361E+04 -0.68049579392E+03 -0.25555072934E+04  0.28924167862E+04  0.00000000000E+00 0. -1.
         22    1    1    2    0    0 -0.12014278919E+04  0.71643070804E+03 -0.81950600992E+03  0.16212008016E+04  0.00000000000E+00 0.  1.
<mgrwt>
<rscale>  0 0.30455162E+04</rscale>
<asrwt>0</asrwt>
<pdfrwt beam="1">  1        2 0.61927376E+00 0.30455162E+04</pdfrwt>
<pdfrwt beam="2">  1       -2 0.88624224E-01 0.30455162E+04</pdfrwt>
<totfact> 0.30445148E-01</totfact>
</mgrwt>
</event>
<event>
 6    1  0.1028026E-006  0.8964044E+03  0.7818608E-02  0.9430087E-01
         -1   -1    0    0    0  501 -0.00000000000E+00  0.00000000000E+00  0.22091492032E+03  0.22091492032E+03  0.00000000000E+00 0.  1.
          1   -1    0    0  501    0  0.00000000000E+00 -0.00000000000E+00 -0.90933286435E+03  0.90933286435E+03  0.00000000000E+00 0. -1.
         23    2    1    2    0    0  0.24738470816E+03 -0.30598452482E+03 -0.89468485247E+02  0.41361246777E+03  0.90801654051E+02 0.  0.
         13    1    3    3    0    0  0.57008161597E+02 -0.96201570601E+02  0.12524080098E+02  0.11252344314E+03  0.00000000000E+00 0. -1.
        -13    1    3    3    0    0  0.19037654657E+03 -0.20978295422E+03 -0.10199256534E+03  0.30108902462E+03  0.00000000000E+00 0.  1.
         22    1    1    2    0    0 -0.24738470816E+03  0.30598452482E+03 -0.59894945878E+03  0.71663531691E+03  0.00000000000E+00 0.  1.
<mgrwt>
<rscale>  0 0.89640437E+03</rscale>
<asrwt>0</asrwt>
<pdfrwt beam="1">  1        1 0.13989737E+00 0.89640437E+03</pdfrwt>
<pdfrwt beam="2">  1       -1 0.33986910E-01 0.89640437E+03</pdfrwt>
<totfact> 0.14718026E+02</totfact>
</mgrwt>
</event>
<event>
 6    1  0.1028026E-006  0.4151107E+04  0.7818608E-02  0.7974738E-01
          2   -1    0    0  501    0  0.00000000000E+00  0.00000000000E+00  0.31440349859E+04  0.31440349859E+04  0.00000000000E+00 0. -1.
         -2   -1    0    0    0  501 -0.00000000000E+00 -0.00000000000E+00 -0.13701890869E+04  0.13701890869E+04  0.00000000000E+00 0.  1.
         23    2    1    2    0    0  0.66254662789E+03  0.96582305117E+03 -0.97500009088E+03  0.15262587993E+04  0.84015146510E+02 0.  0.
         11    1    3    3    0    0  0.29025171025E+03  0.40268856584E+03 -0.46532648626E+03  0.68039170716E+03  0.00000000000E+00 0. -1.
        -11    1    3    3    0    0  0.37229491763E+03  0.56313448533E+03 -0.50967360462E+03  0.84586709211E+03  0.00000000000E+00 0.  1.
         22    1    1    2    0    0 -0.66254662789E+03 -0.96582305117E+03  0.27488459899E+04  0.29879652736E+04  0.00000000000E+00 0. -1.
<mgrwt>
<rscale>  0 0.41511070E+04</rscale>
<asrwt>0</asrwt>
<pdfrwt beam="1">  1        2 0.48369769E+00 0.41511070E+04</pdfrwt>
<pdfrwt beam="2">  1       -2 0.21079832E+00 0.41511070E+04</pdfrwt>
<totfact> 0.12423479E-01</totfact>
</mgrwt>
</event>
<event>
 6    1  0.1028026E-006  0.4895364E+04  0.7818608E-02  0.7844854E-01
          2   -1    0    0  501    0  0.00000000000E+00  0.00000000000E+00  0.20979048042E+04  0.20979048042E+04  0.00000000000E+00 0. -1.
         -2   -1    0    0    0  501 -0.00000000000E+00 -0.00000000000E+00 -0.28557770045E+04  0.28557770045E+04  0.00000000000E+00 0.  1.
         23    2    1    2    0    0  0.51896262983E+03 -0.20692273518E+04 -0.15917168955E+04  0.26631969211E+04  0.89616517822E+02 0.  0.
         13    1    3    3    0    0  0.22712865200E+03 -0.10519246413E+04 -0.83645201249E+03  0.13630058124E+04  0.00000000000E+00 0. -1.
        -13    1    3    3    0    0  0.29183397783E+03 -0.10173027106E+04 -0.75526488297E+03  0.13001911087E+04  0.00000000000E+00 0.  1.
         22    1    1    2    0    0 -0.51896262983E+03  0.20692273518E+04  0.83384469517E+03  0.22904848876E+04  0.00000000000E+00 0. -1.
<mgrwt>
<rscale>  0 0.48953645E+04</rscale>
<asrwt>0</asrwt>
<pdfrwt beam="1">  1        2 0.32275459E+00 0.48953645E+04</pdfrwt>
<pdfrwt beam="2">  1       -2 0.43935031E+00 0.48953645E+04</pdfrwt>
<totfact> 0.17690868E-02</totfact>
</mgrwt>
</event>
<event>
 6    1  0.1028026E-006  0.2383918E+04  0.7818608E-02  0.8445549E-01
          2   -1    0    0  501    0  0.00000000000E+00  0.00000000000E+00  0.48855082399E+03  0.48855082399E+03  0.00000000000E+00 0. -1.
         -2   -1    0    0    0  501 -0.00000000000E+00 -0.00000000000E+00 -0.29081233556E+04  0.29081233556E+04  0.00000000000E+00 0.  1.
         23    2    1    2    0    0 -0.59437951713E+02 -0.70674520086E+02 -0.29023000119E+04  0.29051931748E+04  0.90962992699E+02 0.  0.
         11    1    3    3    0    0 -0.22021401386E+01 -0.75850830132E+01 -0.16414179288E+04  0.16414369315E+04  0.00000000000E+00 0.  1.
        -11    1    3    3    0    0 -0.57235811574E+02 -0.63089437072E+02 -0.12608820831E+04  0.12637562434E+04  0.00000000000E+00 0. -1.
         22    1    1    2    0    0  0.59437951713E+02  0.70674520086E+02  0.48272748025E+03  0.49148100480E+03  0.00000000000E+00 0. -1.
<mgrwt>
<rscale>  0 0.23839178E+04</rscale>
<asrwt>0</asrwt>
<pdfrwt beam="1">  1        2 0.75161665E-01 0.23839178E+04</pdfrwt>
<pdfrwt beam="2">  1       -2 0.44740359E+00 0.23839178E+04</pdfrwt>
<totfact> 0.20559792E-01</totfact>
</mgrwt>
</event>
<event>
 6    1  0.1028026E-006  0.1476652E+04  0.7818608E-02  0.8900129E-01
         -2   -1    0    0    0  501 -0.00000000000E+00  0.00000000000E+00  0.12867030798E+04  0.12867030798E+04  0.00000000000E+00 0.  1.
          2   -1    0    0  501    0  0.00000000000E+00 -0.00000000000E+00 -0.42366073442E+03  0.42366073442E+03  0.00000000000E+00 0. -1.
         23    2    1    2    0    0  0.38506902466E+03  0.62646386787E+03  0.44797858459E+03  0.86596280936E+03  0.92041531117E+02 0.  0.
         11    1    3    3    0    0  0.14091344986E+03  0.23286771167E+03  0.11479777833E+03  0.29540227047E+03  0.00000000000E+00 0.  1.
        -11    1    3    3    0    0  0.24415557479E+03  0.39359615620E+03  0.33318080626E+03  0.57056053889E+03  0.00000000000E+00 0. -1.
         22    1    1    2    0    0 -0.38506902466E+03 -0.62646386787E+03  0.41506376080E+03  0.84440100487E+03  0.00000000000E+00 0.  1.
<mgrwt>
<rscale>  0 0.14766524E+04</rscale>
<asrwt>0</asrwt>
<pdfrwt beam="1">  1        2 0.65178575E-01 0.14766524E+04</pdfrwt>
<pdfrwt beam="2">  1       -2 0.19795432E+00 0.14766524E+04</pdfrwt>
<totfact> 0.98827426E+00</totfact>
</mgrwt>
</event>
<event>
 6    1  0.1028026E-006  0.1500485E+04  0.7818608E-02  0.8884131E-01
         -2   -1    0    0    0  501 -0.00000000000E+00  0.00000000000E+00  0.26508317002E+03  0.26508317002E+03  0.00000000000E+00 0.  1.
          2   -1    0    0  501    0  0.00000000000E+00 -0.00000000000E+00 -0.21233472981E+04  0.21233472981E+04  0.00000000000E+00 0. -1.
         23    2    1    2    0    0  0.56644026669E+03  0.31169513991E+03 -0.15296784414E+04  0.16631877574E+04  0.90933746623E+02 0.  0.
         13    1    3    3    0    0  0.26616565340E+03  0.10821526155E+03 -0.59977828241E+03  0.66504788243E+03  0.00000000000E+00 0.  1.
        -13    1    3    3    0    0  0.30027461330E+03  0.20347987836E+03 -0.92990015896E+03  0.99813987493E+03  0.00000000000E+00 0. -1.
         22    1    1    2    0    0 -0.56644026669E+03 -0.31169513991E+03 -0.32858568668E+03  0.72524271073E+03  0.00000000000E+00 0.  1.
<mgrwt>
<rscale>  0 0.15004848E+04</rscale>
<asrwt>0</asrwt>
<pdfrwt beam="1">  1        2 0.32666881E+00 0.15004848E+04</pdfrwt>
<pdfrwt beam="2">  1       -2 0.40782027E-01 0.15004848E+04</pdfrwt>
<totfact> 0.31389027E+01</totfact>
</mgrwt>
</event>
<event>
 6    1  0.1028026E-006  0.2382451E+04  0.7818608E-02  0.8446103E-01
         -2   -1    0    0    0  501 -0.00000000000E+00  0.00000000000E+00  0.40276744898E+03  0.40276744898E+03  0.00000000000E+00 0.  1.
          2   -1    0    0  501    0  0.00000000000E+00 -0.00000000000E+00 -0.35231693594E+04  0.35231693594E+04  0.00000000000E+00 0. -1.
         23    2    1    2    0    0 -0.11311864513E+04  0.10400951994E+03 -0.21439427416E+04  0.24279804418E+04  0.90541586202E+02 0.  0.
         13    1    3    3    0    0 -0.42593343972E+03  0.81668463478E+02 -0.79098510118E+03  0.90207896732E+03  0.00000000000E+00 0. -1.
        -13    1    3    3    0    0 -0.70525301156E+03  0.22341056464E+02 -0.13529576404E+04  0.15259014745E+04  0.00000000000E+00 0.  1.
         22    1    1    2    0    0  0.11311864513E+04 -0.10400951994E+03 -0.97645916887E+03  0.14979563666E+04  0.00000000000E+00 0.  1.
<mgrwt>
<rscale>  0 0.23824508E+04</rscale>
<asrwt>0</asrwt>
<pdfrwt beam="1">  1        2 0.54202606E+00 0.23824508E+04</pdfrwt>
<pdfrwt beam="2">  1       -2 0.61964222E-01 0.23824508E+04</pdfrwt>
<totfact> 0.17092853E+00</totfact>
</mgrwt>
</event>
<event>
 6    1  0.1028026E-006  0.2823432E+04  0.7818608E-02  0.8296030E-01
          1   -1    0    0  501    0  0.00000000000E+00  0.00000000000E+00  0.22231830869E+04  0.22231830869E+04  0.00000000000E+00 0. -1.
         -1   -1    0    0    0  501 -0.00000000000E+00 -0.00000000000E+00 -0.89643648653E+03  0.89643648653E+03  0.00000000000E+00 0.  1.
         23    2    1    2    0    0  0.45417224812E+03  0.65503420843E+03  0.19494714993E+04  0.21081214048E+04  0.91621425296E+02 0.  0.
         13    1    3    3    0    0  0.18399374871E+03  0.32328126248E+03  0.82399937044E+03  0.90406826994E+03  0.00000000000E+00 0.  1.
        -13    1    3    3    0    0  0.27017849940E+03  0.33175294596E+03  0.11254721289E+04  0.12040531349E+04  0.00000000000E+00 0. -1.
         22    1    1    2    0    0 -0.45417224812E+03 -0.65503420843E+03 -0.62272489901E+03  0.10114981686E+04  0.00000000000E+00 0.  1.
<mgrwt>
<rscale>  0 0.28234323E+04</rscale>
<asrwt>0</asrwt>
<pdfrwt beam="1">  1        1 0.34202817E+00 0.28234323E+04</pdfrwt>
<pdfrwt beam="2">  1       -1 0.13791331E+00 0.28234323E+04</pdfrwt>
<totfact> 0.79096152E-01</totfact>
</mgrwt>
</event>
<event>
 6    1  0.1028026E-006  0.3480068E+04  0.7818608E-02  0.8118530E-01
         -2   -1    0    0    0  501 -0.00000000000E+00  0.00000000000E+00  0.16800592431E+04  0.16800592431E+04  0.00000000000E+00 0.  1.
          2   -1    0    0  501    0  0.00000000000E+00 -0.00000000000E+00 -0.18021499537E+04  0.18021499537E+04  0.00000000000E+00 0. -1.
         23    2    1    2    0    0  0.62497948941E+03 -0.22490090635E+03  0.15467611096E+04  0.16860337662E+04  0.95184823615E+02 0.  0.
         11    1    3    3    0    0  0.31895013728E+03 -0.71211962564E+02  0.81609134608E+03  0.87909352110E+03  0.00000000000E+00 0. -1.
        -11    1    3    3    0    0  0.30602935213E+03 -0.15368894379E+03  0.73066976355E+03  0.80694024511E+03  0.00000000000E+00 0.  1.
         22    1    1    2    0    0 -0.62497948941E+03  0.22490090635E+03 -0.16688518202E+04  0.17961754306E+04  0.00000000000E+00 0. -1.
<mgrwt>
<rscale>  0 0.34800682E+04</rscale>
<asrwt>0</asrwt>
<pdfrwt beam="1">  1        2 0.27725384E+00 0.34800682E+04</pdfrwt>
<pdfrwt beam="2">  1       -2 0.25847065E+00 0.34800682E+04</pdfrwt>
<totfact> 0.40377844E-01</totfact>
</mgrwt>
</event>
<event>
 6    1  0.1028026E-006  0.1890228E+04  0.7818608E-02  0.8659736E-01
         -2   -1    0    0    0  501 -0.00000000000E+00  0.00000000000E+00  0.42176263517E+03  0.42176263517E+03  0.00000000000E+00 0.  1.
          2   -1    0    0  501    0  0.00000000000E+00 -0.00000000000E+00 -0.21178740845E+04  0.21178740845E+04  0.00000000000E+00 0. -1.
         23    2    1    2    0    0  0.93952858667E+03  0.31381383206E+02 -0.94721261706E+03  0.13377431231E+04  0.92984757926E+02 0.  0.
         13    1    3    3    0    0  0.29741860329E+03  0.47497756563E+02 -0.33342635640E+03  0.44931836998E+03  0.00000000000E+00 0. -1.
        -13    1    3    3    0    0  0.64210998338E+03 -0.16116373357E+02 -0.61378626066E+03  0.88842475316E+03  0.00000000000E+00 0.  1.
         22    1    1    2    0    0 -0.93952858667E+03 -0.31381383206E+02 -0.74889883223E+03  0.12018935965E+04  0.00000000000E+00 0. -1.
<mgrwt>
<rscale>  0 0.18902277E+04</rscale>
<asrwt>0</asrwt>
<pdfrwt beam="1">  1        2 0.32582679E+00 0.18902277E+04</pdfrwt>
<pdfrwt beam="2">  1       -2 0.64886558E-01 0.18902277E+04</pdfrwt>
<totfact> 0.11794543E+01</totfact>
</mgrwt>
</event>
<event>
 6    1  0.1028026E-006  0.1322817E+04  0.7818608E-02  0.9011665E-01
         -2   -1    0    0    0  501 -0.00000000000E+00  0.00000000000E+00  0.66613055321E+03  0.66613055321E+03  0.00000000000E+00 0.  1.
          2   -1    0    0  501    0  0.00000000000E+00 -0.00000000000E+00 -0.65671945370E+03  0.65671945370E+03  0.00000000000E+00 0. -1.
         23    2    1    2    0    0  0.16552103230E+03  0.21728927016E+03 -0.59418659374E+03  0.66032301550E+03  0.91416287176E+02 0.  0.
         13    1    3    3    0    0  0.13669108881E+03  0.10937097538E+03 -0.39246839746E+03  0.42974167475E+03  0.00000000000E+00 0. -1.
        -13    1    3    3    0    0  0.28829943486E+02  0.10791829479E+03 -0.20171819628E+03  0.23058134075E+03  0.00000000000E+00 0.  1.
         22    1    1    2    0    0 -0.16552103230E+03 -0.21728927016E+03  0.60359769325E+03  0.66252699141E+03  0.00000000000E+00 0.  1.
<mgrwt>
<rscale>  0 0.13228165E+04</rscale>
<asrwt>0</asrwt>
<pdfrwt beam="1">  1        2 0.10103376E+00 0.13228165E+04</pdfrwt>
<pdfrwt beam="2">  1       -2 0.10248162E+00 0.13228165E+04</pdfrwt>
<totfact> 0.33854514E+01</totfact>
</mgrwt>
</event>
<event>
 6    1  0.1028026E-006  0.2432143E+04  0.7818608E-02  0.8427567E-01
         -1   -1    0    0    0  501 -0.00000000000E+00  0.00000000000E+00  0.81510287254E+03  0.81510287254E+03  0.00000000000E+00 0.  1.
          1   -1    0    0  501    0  0.00000000000E+00 -0.00000000000E+00 -0.18142862534E+04  0.18142862534E+04  0.00000000000E+00 0. -1.
         23    2    1    2    0    0 -0.10575891831E+04 -0.52911225065E+03 -0.20188276915E+03  0.12031553024E+04  0.91495220549E+02 0.  0.
         13    1    3    3    0    0 -0.58184188713E+03 -0.25233118641E+03 -0.13816393514E+03  0.64907648411E+03  0.00000000000E+00 0.  1.
        -13    1    3    3    0    0 -0.47574729593E+03 -0.27678106423E+03 -0.63718834011E+02  0.55407881832E+03  0.00000000000E+00 0. -1.
         22    1    1    2    0    0  0.10575891831E+04  0.52911225065E+03 -0.79730061169E+03  0.14262338235E+04  0.00000000000E+00 0. -1.
<mgrwt>
<rscale>  0 0.24321430E+04</rscale>
<asrwt>0</asrwt>
<pdfrwt beam="1">  1        1 0.27912096E+00 0.24321430E+04</pdfrwt>
<pdfrwt beam="2">  1       -1 0.12540044E+00 0.24321430E+04</pdfrwt>
<totfact> 0.19763502E+00</totfact>
</mgrwt>
</event>
<event>
 6    1  0.1028026E-006  0.2078121E+04  0.7818608E-02  0.8570943E-01
         -1   -1    0    0    0  501 -0.00000000000E+00  0.00000000000E+00  0.79881999028E+03  0.79881999028E+03  0.00000000000E+00 0.  1.
          1   -1    0    0  501    0  0.00000000000E+00 -0.00000000000E+00 -0.13515515612E+04  0.13515515612E+04  0.00000000000E+00 0. -1.
         23    2    1    2    0    0 -0.98167183458E+03  0.33273999527E+03 -0.23957100091E+03  0.10675673042E+04  0.88939245269E+02 0.  0.
         13    1    3    3    0    0 -0.49185166735E+03  0.14439510398E+03 -0.78242672562E+02  0.51854597148E+03  0.00000000000E+00 0.  1.
        -13    1    3    3    0    0 -0.48982016723E+03  0.18834489129E+03 -0.16132832835E+03  0.54902133277E+03  0.00000000000E+00 0. -1.
         22    1    1    2    0    0  0.98167183458E+03 -0.33273999527E+03 -0.31316057002E+03  0.10828042473E+04  0.00000000000E+00 0.  1.
<mgrwt>
<rscale>  0 0.20781207E+04</rscale>
<asrwt>0</asrwt>
<pdfrwt beam="1">  1        1 0.20793101E+00 0.20781207E+04</pdfrwt>
<pdfrwt beam="2">  1       -1 0.12289538E+00 0.20781207E+04</pdfrwt>
<totfact> 0.44712106E+00</totfact>
</mgrwt>
</event>
<event>
 6    1  0.1028026E-006  0.4266575E+04  0.7818608E-02  0.7952828E-01
          1   -1    0    0  501    0  0.00000000000E+00  0.00000000000E+00  0.16409229796E+04  0.16409229796E+04  0.00000000000E+00 0. -1.
         -1   -1    0    0    0  501 -0.00000000000E+00 -0.00000000000E+00 -0.27733874583E+04  0.27733874583E+04  0.00000000000E+00 0.  1.
         23    2    1    2    0    0 -0.17741895414E+04  0.59037060509E+03 -0.16271118470E+04  0.24801537744E+04  0.85929050836E+02 0.  0.
         13    1    3    3    0    0 -0.57567154681E+03  0.22784619606E+03 -0.51042656201E+03  0.80240070668E+03  0.00000000000E+00 0.  1.
        -13    1    3    3    0    0 -0.11985179946E+04  0.36252440903E+03 -0.11166852850E+04  0.16777530677E+04  0.00000000000E+00 0. -1.
         22    1    1    2    0    0  0.17741895414E+04 -0.59037060509E+03  0.49464736827E+03  0.19341566635E+04  0.00000000000E+00 0. -1.
<mgrwt>
<rscale>  0 0.42665748E+04</rscale>
<asrwt>0</asrwt>
<pdfrwt beam="1">  1        1 0.25244969E+00 0.42665748E+04</pdfrwt>
<pdfrwt beam="2">  1       -1 0.42667499E+00 0.42665748E+04</pdfrwt>
<totfact> 0.18780955E-02</totfact>
</mgrwt>
</event>
<event>
 6    1  0.1028026E-006  0.1208762E+04  0.7818608E-02  0.9105222E-01
          2   -1    0    0  501    0  0.00000000000E+00  0.00000000000E+00  0.41385212798E+03  0.41385212798E+03  0.00000000000E+00 0. -1.
         -2   -1    0    0    0  501 -0.00000000000E+00 -0.00000000000E+00 -0.88262484489E+03  0.88262484489E+03  0.00000000000E+00 0.  1.
         23    2    1    2    0    0 -0.37552389337E+03 -0.39546756886E+03  0.34887354677E+02  0.55412512892E+03  0.91786374130E+02 0.  0.
         13    1    3    3    0    0 -0.14932509993E+03 -0.95284201076E+02  0.13540919189E+02  0.17765252865E+03  0.00000000000E+00 0.  1.
        -13    1    3    3    0    0 -0.22619879344E+03 -0.30018336778E+03  0.21346435488E+02  0.37647260027E+03  0.00000000000E+00 0. -1.
         22    1    1    2    0    0  0.37552389337E+03  0.39546756886E+03 -0.50366007159E+03  0.74235184395E+03  0.00000000000E+00 0.  1.
<mgrwt>
<rscale>  0 0.12087616E+04</rscale>
<asrwt>0</asrwt>
<pdfrwt beam="1">  1        2 0.63669559E-01 0.12087616E+04</pdfrwt>
<pdfrwt beam="2">  1       -2 0.13578844E+00 0.12087616E+04</pdfrwt>
<totfact> 0.29304864E+01</totfact>
</mgrwt>
</event>
<event>
 6    1  0.1028026E-006  0.2019935E+04  0.7818608E-02  0.8597357E-01
          2   -1    0    0  501    0  0.00000000000E+00  0.00000000000E+00  0.17182126925E+04  0.17182126925E+04  0.00000000000E+00 0. -1.
         -2   -1    0    0    0  501 -0.00000000000E+00 -0.00000000000E+00 -0.59365992342E+03  0.59365992342E+03  0.00000000000E+00 0.  1.
         23    2    1    2    0    0  0.62814700399E+03 -0.73511182638E+03  0.23782196806E+03  0.99990860368E+03  0.91103629553E+02 0.  0.
         11    1    3    3    0    0  0.14750683948E+03 -0.18939524102E+03  0.20524815823E+02  0.24093586923E+03  0.00000000000E+00 0. -1.
        -11    1    3    3    0    0  0.48064016451E+03 -0.54571658536E+03  0.21729715224E+03  0.75897273446E+03  0.00000000000E+00 0.  1.
         22    1    1    2    0    0 -0.62814700399E+03  0.73511182638E+03  0.88673080097E+03  0.13119640122E+04  0.00000000000E+00 0. -1.
<mgrwt>
<rscale>  0 0.20199347E+04</rscale>
<asrwt>0</asrwt>
<pdfrwt beam="1">  1        2 0.26434041E+00 0.20199347E+04</pdfrwt>
<pdfrwt beam="2">  1       -2 0.91332297E-01 0.20199347E+04</pdfrwt>
<totfact> 0.90775699E+00</totfact>
</mgrwt>
</event>
<event>
 6    1  0.1028026E-006  0.4649201E+04  0.7818608E-02  0.7885024E-01
          2   -1    0    0  501    0  0.00000000000E+00  0.00000000000E+00  0.35906504847E+04  0.35906504847E+04  0.00000000000E+00 0. -1.
         -2   -1    0    0    0  501 -0.00000000000E+00 -0.00000000000E+00 -0.15049547209E+04  0.15049547209E+04  0.00000000000E+00 0.  1.
         23    2    1    2    0    0  0.21480091181E+03  0.12303323222E+04 -0.11044427425E+04  0.16696979178E+04  0.90776156025E+02 0.  0.
         11    1    3    3    0    0  0.19911541782E+03  0.11099199882E+04 -0.10301542930E+04  0.15273464562E+04  0.00000000000E+00 0. -1.
        -11    1    3    3    0    0  0.15685493986E+02  0.12041233399E+03 -0.74288449557E+02  0.14235146165E+03  0.00000000000E+00 0.  1.
         22    1    1    2    0    0 -0.21480091181E+03 -0.12303323222E+04  0.31901385063E+04  0.34259072878E+04  0.00000000000E+00 0. -1.
<mgrwt>
<rscale>  0 0.46492005E+04</rscale>
<asrwt>0</asrwt>
<pdfrwt beam="1">  1        2 0.55240776E+00 0.46492005E+04</pdfrwt>
<pdfrwt beam="2">  1       -2 0.23153150E+00 0.46492005E+04</pdfrwt>
<totfact> 0.43799213E-02</totfact>
</mgrwt>
</event>
<event>
 6    1  0.1028026E-006  0.1411221E+04  0.7818608E-02  0.8945736E-01
         -2   -1    0    0    0  501 -0.00000000000E+00  0.00000000000E+00  0.66457669504E+03  0.66457669504E+03  0.00000000000E+00 0.  1.
          2   -1    0    0  501    0  0.00000000000E+00 -0.00000000000E+00 -0.74917752897E+03  0.74917752897E+03  0.00000000000E+00 0. -1.
         23    2    1    2    0    0 -0.10498834842E+03 -0.60059326669E+03  0.30829532633E+03  0.68842518278E+03  0.84548203769E+02 0.  0.
         13    1    3    3    0    0 -0.62464082503E+02 -0.22530196792E+03  0.80061171901E+02  0.24712856897E+03  0.00000000000E+00 0. -1.
        -13    1    3    3    0    0 -0.42524265921E+02 -0.37529129876E+03  0.22823415443E+03  0.44129661382E+03  0.00000000000E+00 0.  1.
         22    1    1    2    0    0  0.10498834842E+03  0.60059326669E+03 -0.39289616026E+03  0.72532904122E+03  0.00000000000E+00 0. -1.
<mgrwt>
<rscale>  0 0.14112206E+04</rscale>
<asrwt>0</asrwt>
<pdfrwt beam="1">  1        2 0.11525808E+00 0.14112206E+04</pdfrwt>
<pdfrwt beam="2">  1       -2 0.10224257E+00 0.14112206E+04</pdfrwt>
<totfact> 0.28619677E+01</totfact>
</mgrwt>
</event>
<event>
 6    1  0.1028026E-006  0.4324189E+04  0.7818608E-02  0.7942160E-01
          1   -1    0    0  501    0  0.00000000000E+00  0.00000000000E+00  0.45304372677E+04  0.45304372677E+04  0.00000000000E+00 0. -1.
         -1   -1    0    0    0  501 -0.00000000000E+00 -0.00000000000E+00 -0.10318324940E+04  0.10318324940E+04  0.00000000000E+00 0.  1.
         23    2    1    2    0    0 -0.64104493148E+03  0.19349968202E+04  0.26731740354E+04  0.33630682698E+04  0.96007631242E+02 0.  0.
         13    1    3    3    0    0 -0.41453324900E+03  0.12281960950E+04  0.16238918892E+04  0.20778181658E+04  0.00000000000E+00 0. -1.
        -13    1    3    3    0    0 -0.22651168248E+03  0.70680072522E+03  0.10492821462E+04  0.12852501040E+04  0.00000000000E+00 0.  1.
         22    1    1    2    0    0  0.64104493148E+03 -0.19349968202E+04  0.82543073823E+03  0.21992014919E+04  0.00000000000E+00 0.  1.
<mgrwt>
<rscale>  0 0.43241889E+04</rscale>
<asrwt>0</asrwt>
<pdfrwt beam="1">  1        1 0.69699034E+00 0.43241889E+04</pdfrwt>
<pdfrwt beam="2">  1       -1 0.15874346E+00 0.43241889E+04</pdfrwt>
<totfact> 0.67757934E-03</totfact>
</mgrwt>
</event>
<event>
 6    1  0.1028026E-006  0.3291670E+04  0.7818608E-02  0.8165018E-01
         -1   -1    0    0    0  501 -0.00000000000E+00  0.00000000000E+00  0.96394455335E+03  0.96394455335E+03  0.00000000000E+00 0.  1.
          1   -1    0    0  501    0  0.00000000000E+00 -0.00000000000E+00 -0.28100923764E+04  0.28100923764E+04  0.00000000000E+00 0. -1.
         23    2    1    2    0    0  0.82020486315E+03 -0.48739269499E+03  0.61211209638E+03  0.11371202666E+04  0.89853356145E+02 0.  0.
         11    1    3    3    0    0  0.12667795558E+03 -0.70257747992E+02  0.56698965699E+02  0.15555779728E+03  0.00000000000E+00 0. -1.
        -11    1    3    3    0    0  0.69352690756E+03 -0.41713494700E+03  0.55541313068E+03  0.98156246936E+03  0.00000000000E+00 0.  1.
         22    1    1    2    0    0 -0.82020486315E+03  0.48739269499E+03 -0.24582599195E+04  0.26369166631E+04  0.00000000000E+00 0. -1.
<mgrwt>
<rscale>  0 0.32916702E+04</rscale>
<asrwt>0</asrwt>
<pdfrwt beam="1">  1        1 0.43232190E+00 0.32916702E+04</pdfrwt>
<pdfrwt beam="2">  1       -1 0.14829916E+00 0.32916702E+04</pdfrwt>
<totfact> 0.24468114E-01</totfact>
</mgrwt>
</event>
<event>
 6    1  0.1028026E-006  0.2739290E+04  0.7818608E-02  0.8322368E-01
          2   -1    0    0  501    0  0.00000000000E+00  0.00000000000E+00  0.25211599613E+04  0.25211599613E+04  0.00000000000E+00 0. -1.
         -2   -1    0    0    0  501 -0.00000000000E+00 -0.00000000000E+00 -0.74407340665E+03  0.74407340665E+03  0.00000000000E+00 0.  1.
         23    2    1    2    0    0  0.55810612698E+03  0.92424814110E+03  0.18908978565E+04  0.21795676332E+04  0.96453557097E+02 0.  0.
         13    1    3    3    0    0  0.49674371924E+03  0.75361736427E+03  0.15823940553E+04  0.18217201762E+04  0.00000000000E+00 0. -1.
        -13    1    3    3    0    0  0.61362407738E+02  0.17063077683E+03  0.30850380121E+03  0.35784745695E+03  0.00000000000E+00 0.  1.
         22    1    1    2    0    0 -0.55810612698E+03 -0.92424814110E+03 -0.11381130179E+03  0.10856657348E+04  0.00000000000E+00 0.  1.
<mgrwt>
<rscale>  0 0.27392905E+04</rscale>
<asrwt>0</asrwt>
<pdfrwt beam="1">  1        2 0.38787076E+00 0.27392905E+04</pdfrwt>
<pdfrwt beam="2">  1       -2 0.11447283E+00 0.27392905E+04</pdfrwt>
<totfact> 0.17641717E+00</totfact>
</mgrwt>
</event>
<event>
 6    1  0.1028026E-006  0.1285790E+04  0.7818608E-02  0.9040910E-01
          2   -1    0    0  501    0  0.00000000000E+00  0.00000000000E+00  0.50163115096E+03  0.50163115096E+03  0.00000000000E+00 0. -1.
         -2   -1    0    0    0  501 -0.00000000000E+00 -0.00000000000E+00 -0.82394057133E+03  0.82394057133E+03  0.00000000000E+00 0.  1.
         23    2    1    2    0    0  0.55649227049E+02 -0.63323234247E+03 -0.88259206406E+02  0.64818000498E+03  0.90926318145E+02 0.  0.
         11    1    3    3    0    0  0.54364736504E+02 -0.20896218615E+03 -0.59664034537E+01  0.21600073561E+03  0.00000000000E+00 0.  1.
        -11    1    3    3    0    0  0.12844905444E+01 -0.42427015632E+03 -0.82292802952E+02  0.43217926937E+03  0.00000000000E+00 0. -1.
         22    1    1    2    0    0 -0.55649227049E+02  0.63323234247E+03 -0.23405021397E+03  0.67739171731E+03  0.00000000000E+00 0.  1.
<mgrwt>
<rscale>  0 0.12857904E+04</rscale>
<asrwt>0</asrwt>
<pdfrwt beam="1">  1        2 0.77174024E-01 0.12857904E+04</pdfrwt>
<pdfrwt beam="2">  1       -2 0.12676009E+00 0.12857904E+04</pdfrwt>
<totfact> 0.27849110E+01</totfact>
</mgrwt>
</event>
<event>
 6    1  0.1028026E-006  0.2271769E+04  0.7818608E-02  0.8489136E-01
          2   -1    0    0  501    0  0.00000000000E+00  0.00000000000E+00  0.15926459599E+04  0.15926459599E+04  0.00000000000E+00 0. -1.
         -2   -1    0    0    0  501 -0.00000000000E+00 -0.00000000000E+00 -0.81011933818E+03  0.81011933818E+03  0.00000000000E+00 0.  1.
         23    2    1    2    0    0 -0.17183786247E+03  0.10396248173E+04  0.83494644613E+03  0.13477317205E+04  0.94325026299E+02 0.  0.
         11    1    3    3    0    0 -0.63676157044E+02  0.19772863426E+03  0.19239120249E+03  0.28313537500E+03  0.00000000000E+00 0.  1.
        -11    1    3    3    0    0 -0.10816170542E+03  0.84189618309E+03  0.64255524364E+03  0.10645963455E+04  0.00000000000E+00 0. -1.
         22    1    1    2    0    0  0.17183786247E+03 -0.10396248173E+04 -0.52419824462E+02  0.10550335776E+04  0.00000000000E+00 0.  1.
<mgrwt>
<rscale>  0 0.22717687E+04</rscale>
<asrwt>0</asrwt>
<pdfrwt beam="1">  1        2 0.24502245E+00 0.22717687E+04</pdfrwt>
<pdfrwt beam="2">  1       -2 0.12463374E+00 0.22717687E+04</pdfrwt>
<totfact> 0.49422954E+00</totfact>
</mgrwt>
</event>
<event>
 6    1  0.1028026E-006  0.6617738E+03  0.7818608E-02  0.9784934E-01
          2   -1    0    0  501    0  0.00000000000E+00  0.00000000000E+00  0.34621788253E+03  0.34621788253E+03  0.00000000000E+00 0. -1.
         -2   -1    0    0    0  501 -0.00000000000E+00 -0.00000000000E+00 -0.31623482091E+03  0.31623482091E+03  0.00000000000E+00 0.  1.
         23    2    1    2    0    0  0.30397213309E+03 -0.99619982951E+02  0.70863537724E+02  0.33997105742E+03  0.90749546594E+02 0.  0.
         13    1    3    3    0    0  0.22048694218E+03 -0.11074126622E+03  0.66953045323E+02  0.25565764216E+03  0.00000000000E+00 0. -1.
        -13    1    3    3    0    0  0.83485190908E+02  0.11121283265E+02  0.39104924003E+01  0.84313415262E+02  0.00000000000E+00 0.  1.
         22    1    1    2    0    0 -0.30397213309E+03  0.99619982951E+02 -0.40880476095E+02  0.32248164602E+03  0.00000000000E+00 0.  1.
<mgrwt>
<rscale>  0 0.66177383E+03</rscale>
<asrwt>0</asrwt>
<pdfrwt beam="1">  1        2 0.53264290E-01 0.66177383E+03</pdfrwt>
<pdfrwt beam="2">  1       -2 0.48651511E-01 0.66177383E+03</pdfrwt>
<totfact> 0.37773406E+02</totfact>
</mgrwt>
</event>
<event>
 6    1  0.1028026E-006  0.3139235E+04  0.7818608E-02  0.8205052E-01
          1   -1    0    0  501    0  0.00000000000E+00  0.00000000000E+00  0.35180796578E+04  0.35180796578E+04  0.00000000000E+00 0. -1.
         -1   -1    0    0    0  501 -0.00000000000E+00 -0.00000000000E+00 -0.70029638439E+03  0.70029638439E+03  0.00000000000E+00 0.  1.
         23    2    1    2    0    0  0.12786244512E+04  0.24470575037E+03  0.23496146270E+03  0.13260188897E+04  0.91421089054E+02 0.  0.
         13    1    3    3    0    0  0.51394466027E+03  0.14411455566E+03  0.96727910667E+02  0.54246143428E+03  0.00000000000E+00 0. -1.
        -13    1    3    3    0    0  0.76467979093E+03  0.10059119472E+03  0.13823355203E+03  0.78355745547E+03  0.00000000000E+00 0.  1.
         22    1    1    2    0    0 -0.12786244512E+04 -0.24470575037E+03  0.25828218107E+04  0.28923571524E+04  0.00000000000E+00 0.  1.
<mgrwt>
<rscale>  0 0.31392346E+04</rscale>
<asrwt>0</asrwt>
<pdfrwt beam="1">  1        1 0.54124301E+00 0.31392346E+04</pdfrwt>
<pdfrwt beam="2">  1       -1 0.10773791E+00 0.31392346E+04</pdfrwt>
<totfact> 0.16280911E-01</totfact>
</mgrwt>
</event>
<event>
 6    1  0.1028026E-006  0.3968285E+04  0.7818608E-02  0.8010975E-01
         -1   -1    0    0    0  501 -0.00000000000E+00  0.00000000000E+00  0.14787252151E+04  0.14787252151E+04  0.00000000000E+00 0.  1.
          1   -1    0    0  501    0  0.00000000000E+00 -0.00000000000E+00 -0.26623077808E+04  0.26623077808E+04  0.00000000000E+00 0. -1.
         23    2    1    2    0    0 -0.11546945415E+04 -0.33761322645E+03  0.10528550084E+04  0.16015536797E+04  0.95751477610E+02 0.  0.
         11    1    3    3    0    0 -0.47285135377E+03 -0.14675068148E+03  0.49541445230E+03  0.70039963223E+03  0.00000000000E+00 0.  1.
        -11    1    3    3    0    0 -0.68184318769E+03 -0.19086254496E+03  0.55744055609E+03  0.90115404745E+03  0.00000000000E+00 0. -1.
         22    1    1    2    0    0  0.11546945415E+04  0.33761322645E+03 -0.22364375741E+04  0.25394793163E+04  0.00000000000E+00 0. -1.
<mgrwt>
<rscale>  0 0.39682851E+04</rscale>
<asrwt>0</asrwt>
<pdfrwt beam="1">  1        1 0.40958581E+00 0.39682851E+04</pdfrwt>
<pdfrwt beam="2">  1       -1 0.22749619E+00 0.39682851E+04</pdfrwt>
<totfact> 0.80283053E-02</totfact>
</mgrwt>
</event>
<event>
 6    1  0.1028026E-006  0.1552947E+04  0.7818608E-02  0.8849987E-01
          2   -1    0    0  501    0  0.00000000000E+00  0.00000000000E+00  0.36792165405E+04  0.36792165405E+04  0.00000000000E+00 0. -1.
         -2   -1    0    0    0  501 -0.00000000000E+00 -0.00000000000E+00 -0.16386944820E+03  0.16386944820E+03  0.00000000000E+00 0.  1.
         23    2    1    2    0    0  0.56531815534E+03 -0.46093272464E+03  0.24031914499E+04  0.25130732947E+04  0.90358430585E+02 0.  0.
         11    1    3    3    0    0  0.37648999380E+03 -0.35840139358E+03  0.16664154208E+04  0.17456049464E+04  0.00000000000E+00 0.  1.
        -11    1    3    3    0    0  0.18882816154E+03 -0.10253133106E+03  0.73677602913E+03  0.76746834823E+03  0.00000000000E+00 0. -1.
         22    1    1    2    0    0 -0.56531815534E+03  0.46093272464E+03  0.11121556423E+04  0.13300126940E+04  0.00000000000E+00 0.  1.
<mgrwt>
<rscale>  0 0.15529471E+04</rscale>
<asrwt>0</asrwt>
<pdfrwt beam="1">  1        2 0.56603325E+00 0.15529471E+04</pdfrwt>
<pdfrwt beam="2">  1       -2 0.25210687E-01 0.15529471E+04</pdfrwt>
<totfact> 0.83523445E+00</totfact>
</mgrwt>
</event>
<event>
 6    1  0.1028026E-006  0.1758925E+04  0.7818608E-02  0.8728453E-01
         -2   -1    0    0    0  501 -0.00000000000E+00  0.00000000000E+00  0.81568844728E+03  0.81568844728E+03  0.00000000000E+00 0.  1.
          2   -1    0    0  501    0  0.00000000000E+00 -0.00000000000E+00 -0.94822245590E+03  0.94822245590E+03  0.00000000000E+00 0. -1.
         23    2    1    2    0    0 -0.52435684139E+03 -0.27578098781E+03  0.58203018106E+03  0.83568289697E+03  0.92744392119E+02 0.  0.
         13    1    3    3    0    0 -0.23120406727E+03 -0.15008162712E+03  0.32420726213E+03  0.42554690028E+03  0.00000000000E+00 0. -1.
        -13    1    3    3    0    0 -0.29315277412E+03 -0.12569936069E+03  0.25782291893E+03  0.41013599669E+03  0.00000000000E+00 0.  1.
         22    1    1    2    0    0  0.52435684139E+03  0.27578098781E+03 -0.71456418968E+03  0.92822800621E+03  0.00000000000E+00 0. -1.
<mgrwt>
<rscale>  0 0.17589248E+04</rscale>
<asrwt>0</asrwt>
<pdfrwt beam="1">  1        2 0.14588038E+00 0.17589248E+04</pdfrwt>
<pdfrwt beam="2">  1       -2 0.12549053E+00 0.17589248E+04</pdfrwt>
<totfact> 0.12242060E+01</totfact>
</mgrwt>
</event>
<event>
 6    1  0.1028026E-006  0.1601018E+04  0.7818608E-02  0.8819923E-01
         -1   -1    0    0    0  501 -0.00000000000E+00  0.00000000000E+00  0.11545312320E+04  0.11545312320E+04  0.00000000000E+00 0.  1.
          1   -1    0    0  501    0  0.00000000000E+00 -0.00000000000E+00 -0.55504292679E+03  0.55504292679E+03  0.00000000000E+00 0. -1.
         23    2    1    2    0    0  0.14335353506E+03  0.14011007970E+03  0.11253612121E+04  0.11467923319E+04  0.92269844976E+02 0.  0.
         13    1    3    3    0    0 -0.11151478373E+01  0.35805394876E+02  0.31743643124E+03  0.31945133860E+03  0.00000000000E+00 0. -1.
        -13    1    3    3    0    0  0.14446868290E+03  0.10430468482E+03  0.80792478090E+03  0.82734099331E+03  0.00000000000E+00 0.  1.
         22    1    1    2    0    0 -0.14335353506E+03 -0.14011007970E+03 -0.52587290692E+03  0.56278182689E+03  0.00000000000E+00 0. -1.
<mgrwt>
<rscale>  0 0.16010177E+04</rscale>
<asrwt>0</asrwt>
<pdfrwt beam="1">  1        1 0.85391219E-01 0.16010177E+04</pdfrwt>
<pdfrwt beam="2">  1       -1 0.17762019E+00 0.16010177E+04</pdfrwt>
<totfact> 0.79531019E+00</totfact>
</mgrwt>
</event>
<event>
 6    1  0.1028026E-006  0.2672020E+04  0.7818608E-02  0.8344141E-01
         -2   -1    0    0    0  501 -0.00000000000E+00  0.00000000000E+00  0.66610119967E+03  0.66610119967E+03  0.00000000000E+00 0.  1.
          2   -1    0    0  501    0  0.00000000000E+00 -0.00000000000E+00 -0.26796562227E+04  0.26796562227E+04  0.00000000000E+00 0. -1.
         23    2    1    2    0    0 -0.50174442163E+02 -0.71456530902E+03 -0.24176896465E+04  0.25232941409E+04  0.93107677108E+02 0.  0.
         11    1    3    3    0    0 -0.77374385500E+02 -0.53384570387E+03 -0.18294925110E+04  0.19073596616E+04  0.00000000000E+00 0.  1.
        -11    1    3    3    0    0  0.27199943337E+02 -0.18071960515E+03 -0.58819713545E+03  0.61593447928E+03  0.00000000000E+00 0. -1.
         22    1    1    2    0    0  0.50174442163E+02  0.71456530902E+03  0.40413462342E+03  0.82246328146E+03  0.00000000000E+00 0.  1.
<mgrwt>
<rscale>  0 0.26720196E+04</rscale>
<asrwt>0</asrwt>
<pdfrwt beam="1">  1        2 0.41225480E+00 0.26720196E+04</pdfrwt>
<pdfrwt beam="2">  1       -2 0.10247711E+00 0.26720196E+04</pdfrwt>
<totfact> 0.18703807E+00</totfact>
</mgrwt>
</event>
<event>
 6    1  0.1028026E-006  0.3537554E+04  0.7818608E-02  0.8104947E-01
          2   -1    0    0  501    0  0.00000000000E+00  0.00000000000E+00  0.24020707665E+04  0.24020707665E+04  0.00000000000E+00 0. -1.
         -2   -1    0    0    0  501 -0.00000000000E+00 -0.00000000000E+00 -0.13024476762E+04  0.13024476762E+04  0.00000000000E+00 0.  1.
         23    2    1    2    0    0 -0.67800994759E+03 -0.16224157824E+04  0.73880185477E+03  0.19094913053E+04  0.91642809308E+02 0.  0.
         11    1    3    3    0    0 -0.25315877637E+03 -0.56896224139E+03  0.30684501557E+03  0.69423429890E+03  0.00000000000E+00 0. -1.
        -11    1    3    3    0    0 -0.42485117121E+03 -0.10534535410E+04  0.43195683920E+03  0.12152570064E+04  0.00000000000E+00 0.  1.
         22    1    1    2    0    0  0.67800994759E+03  0.16224157824E+04  0.36082123555E+03  0.17950271374E+04  0.00000000000E+00 0. -1.
<mgrwt>
<rscale>  0 0.35375537E+04</rscale>
<asrwt>0</asrwt>
<pdfrwt beam="1">  1        2 0.36954935E+00 0.35375537E+04</pdfrwt>
<pdfrwt beam="2">  1       -2 0.20037657E+00 0.35375537E+04</pdfrwt>
<totfact> 0.42948774E-01</totfact>
</mgrwt>
</event>
<event>
 6    1  0.1028026E-006  0.1215889E+04  0.7818608E-02  0.9099062E-01
         -2   -1    0    0    0  501 -0.00000000000E+00  0.00000000000E+00  0.11948231529E+03  0.11948231529E+03  0.00000000000E+00 0.  1.
          2   -1    0    0  501    0  0.00000000000E+00 -0.00000000000E+00 -0.30933131477E+04  0.30933131477E+04  0.00000000000E+00 0. -1.
         23    2    1    2    0    0 -0.96986344057E+02  0.59322953399E+03 -0.16695985731E+04  0.17767072286E+04  0.88326381671E+02 0.  0.
         11    1    3    3    0    0 -0.45882025958E+02  0.12124665144E+03 -0.28838503508E+03  0.31618323683E+03  0.00000000000E+00 0. -1.
        -11    1    3    3    0    0 -0.51104318099E+02  0.47198288255E+03 -0.13812135380E+04  0.14605239917E+04  0.00000000000E+00 0.  1.
         22    1    1    2    0    0  0.96986344057E+02 -0.59322953399E+03 -0.13042322593E+04  0.14360882344E+04  0.00000000000E+00 0.  1.
<mgrwt>
<rscale>  0 0.12158885E+04</rscale>
<asrwt>0</asrwt>
<pdfrwt beam="1">  1        2 0.47589435E+00 0.12158885E+04</pdfrwt>
<pdfrwt beam="2">  1       -2 0.18381894E-01 0.12158885E+04</pdfrwt>
<totfact> 0.37701653E+01</totfact>
</mgrwt>
</event>
<event>
 6    1  0.1028026E-006  0.2547849E+04  0.7818608E-02  0.8386135E-01
         -2   -1    0    0    0  501 -0.00000000000E+00  0.00000000000E+00  0.11333612881E+04  0.11333612881E+04  0.00000000000E+00 0.  1.
          2   -1    0    0  501    0  0.00000000000E+00 -0.00000000000E+00 -0.14319209207E+04  0.14319209207E+04  0.00000000000E+00 0. -1.
         23    2    1    2    0    0  0.33583866879E+01 -0.11278423325E+04 -0.74220128241E+03  0.13533178862E+04  0.92557829103E+02 0.  0.
         13    1    3    3    0    0  0.20728435651E+02 -0.72291221003E+03 -0.52330876062E+03  0.89268347716E+03  0.00000000000E+00 0.  1.
        -13    1    3    3    0    0 -0.17370048963E+02 -0.40493012249E+03 -0.21889252179E+03  0.46063440905E+03  0.00000000000E+00 0. -1.
         22    1    1    2    0    0 -0.33583866879E+01  0.11278423325E+04  0.44364164984E+03  0.12119643226E+04  0.00000000000E+00 0.  1.
<mgrwt>
<rscale>  0 0.25478491E+04</rscale>
<asrwt>0</asrwt>
<pdfrwt beam="1">  1        2 0.22029553E+00 0.25478491E+04</pdfrwt>
<pdfrwt beam="2">  1       -2 0.17436327E+00 0.25478491E+04</pdfrwt>
<totfact> 0.24472922E+00</totfact>
</mgrwt>
</event>
<event>
 6    1  0.1028026E-006  0.4747324E+04  0.7818608E-02  0.7868713E-01
         -2   -1    0    0    0  501 -0.00000000000E+00  0.00000000000E+00  0.14104245172E+04  0.14104245172E+04  0.00000000000E+00 0.  1.
          2   -1    0    0  501    0  0.00000000000E+00 -0.00000000000E+00 -0.39947339334E+04  0.39947339334E+04  0.00000000000E+00 0. -1.
         23    2    1    2    0    0 -0.27322805757E+03 -0.58349792313E+03 -0.38926676819E+04  0.39467604427E+04  0.94514086355E+02 0.  0.
         13    1    3    3    0    0 -0.13248827370E+03 -0.38617573020E+03 -0.25204912911E+04  0.25533431391E+04  0.00000000000E+00 0.  1.
        -13    1    3    3    0    0 -0.14073978388E+03 -0.19732219293E+03 -0.13721763908E+04  0.13934173036E+04  0.00000000000E+00 0. -1.
         22    1    1    2    0    0  0.27322805757E+03  0.58349792313E+03  0.13083582658E+04  0.14583980079E+04  0.00000000000E+00 0.  1.
<mgrwt>
<rscale>  0 0.47473237E+04</rscale>
<asrwt>0</asrwt>
<pdfrwt beam="1">  1        2 0.61457444E+00 0.47473237E+04</pdfrwt>
<pdfrwt beam="2">  1       -2 0.21698839E+00 0.47473237E+04</pdfrwt>
<totfact> 0.26389022E-02</totfact>
</mgrwt>
</event>
<event>
 6    1  0.1028026E-006  0.1185375E+04  0.7818608E-02  0.9125755E-01
         -2   -1    0    0    0  501 -0.00000000000E+00  0.00000000000E+00  0.14405619708E+03  0.14405619708E+03  0.00000000000E+00 0.  1.
          2   -1    0    0  501    0  0.00000000000E+00 -0.00000000000E+00 -0.24384815897E+04  0.24384815897E+04  0.00000000000E+00 0. -1.
         23    2    1    2    0    0 -0.41472828087E+03 -0.12338406783E+03 -0.28377273518E+03  0.52585422239E+03  0.93661746847E+02 0.  0.
         13    1    3    3    0    0 -0.67604167795E+02 -0.56190382616E+02 -0.72707470107E+02  0.11407917782E+03  0.00000000000E+00 0. -1.
        -13    1    3    3    0    0 -0.34712411308E+03 -0.67193685216E+02 -0.21106526507E+03  0.41177504457E+03  0.00000000000E+00 0.  1.
         22    1    1    2    0    0  0.41472828087E+03  0.12338406783E+03 -0.20106526574E+04  0.20566835644E+04  0.00000000000E+00 0. -1.
<mgrwt>
<rscale>  0 0.11853749E+04</rscale>
<asrwt>0</asrwt>
<pdfrwt beam="1">  1        2 0.37515100E+00 0.11853749E+04</pdfrwt>
<pdfrwt beam="2">  1       -2 0.22162492E-01 0.11853749E+04</pdfrwt>
<totfact> 0.66888826E+01</totfact>
</mgrwt>
</event>
<event>
 6    1  0.1028026E-006  0.8722924E+03  0.7818608E-02  0.9460896E-01
         -2   -1    0    0    0  501 -0.00000000000E+00  0.00000000000E+00  0.49141635321E+03  0.49141635321E+03  0.00000000000E+00 0.  1.
          2   -1    0    0  501    0  0.00000000000E+00 -0.00000000000E+00 -0.38709233470E+03  0.38709233470E+03  0.00000000000E+00 0. -1.
         23    2    1    2    0    0 -0.12732014153E+03  0.26404449490E+03  0.37155416028E+03  0.48184527594E+03  0.90512221280E+02 0.  0.
         11    1    3    3    0    0 -0.83373581490E+02  0.23148276189E+03  0.33659869889E+03  0.41693417614E+03  0.00000000000E+00 0. -1.
        -11    1    3    3    0    0 -0.43946560040E+02  0.32561733018E+02  0.34955461384E+02  0.64911099798E+02  0.00000000000E+00 0.  1.
         22    1    1    2    0    0  0.12732014153E+03 -0.26404449490E+03 -0.26723014176E+03  0.39666341197E+03  0.00000000000E+00 0.  1.
<mgrwt>
<rscale>  0 0.87229239E+03</rscale>
<asrwt>0</asrwt>
<pdfrwt beam="1">  1        2 0.59552667E-01 0.87229239E+03</pdfrwt>
<pdfrwt beam="2">  1       -2 0.75602516E-01 0.87229239E+03</pdfrwt>
<totfact> 0.13011301E+02</totfact>
</mgrwt>
</event>
<event>
 6    1  0.1028026E-006  0.1690319E+04  0.7818608E-02  0.8766905E-01
         -2   -1    0    0    0  501 -0.00000000000E+00  0.00000000000E+00  0.10590854983E+04  0.10590854983E+04  0.00000000000E+00 0.  1.
          2   -1    0    0  501    0  0.00000000000E+00 -0.00000000000E+00 -0.67444454982E+03  0.67444454982E+03  0.00000000000E+00 0. -1.
         23    2    1    2    0    0 -0.17350560260E+03  0.43988072907E+03 -0.52242705747E+03  0.71060697312E+03  0.91831312362E+02 0.  0.
         13    1    3    3    0    0 -0.10810830700E+03  0.27843670147E+03 -0.39288239773E+03  0.49352910879E+03  0.00000000000E+00 0.  1.
        -13    1    3    3    0    0 -0.65397295601E+02  0.16144402759E+03 -0.12954465974E+03  0.21707786434E+03  0.00000000000E+00 0. -1.
         22    1    1    2    0    0  0.17350560260E+03 -0.43988072907E+03  0.90706800595E+03  0.10229230750E+04  0.00000000000E+00 0.  1.
<mgrwt>
<rscale>  0 0.16903188E+04</rscale>
<asrwt>0</asrwt>
<pdfrwt beam="1">  1        2 0.10376070E+00 0.16903188E+04</pdfrwt>
<pdfrwt beam="2">  1       -2 0.16293623E+00 0.16903188E+04</pdfrwt>
<totfact> 0.97933878E+00</totfact>
</mgrwt>
</event>
<event>
 6    1  0.1028026E-006  0.7134674E+04  0.7818608E-02  0.7563704E-01
          1   -1    0    0  501    0  0.00000000000E+00  0.00000000000E+00  0.39690314326E+04  0.39690314326E+04  0.00000000000E+00 0. -1.
         -1   -1    0    0    0  501 -0.00000000000E+00 -0.00000000000E+00 -0.32062969513E+04  0.32062969513E+04  0.00000000000E+00 0.  1.
         23    2    1    2    0    0  0.13851515182E+04 -0.20611391864E+04  0.29561248041E+04  0.38620368811E+04  0.98567435825E+02 0.  0.
         13    1    3    3    0    0  0.24048032634E+03 -0.42742563939E+03  0.57471688087E+03  0.75552826402E+03  0.00000000000E+00 0. -1.
        -13    1    3    3    0    0  0.11446711919E+04 -0.16337135470E+04  0.23814079233E+04  0.31065086171E+04  0.00000000000E+00 0.  1.
         22    1    1    2    0    0 -0.13851515182E+04  0.20611391864E+04 -0.21933903228E+04  0.33132915028E+04  0.00000000000E+00 0.  1.
<mgrwt>
<rscale>  0 0.71346740E+04</rscale>
<asrwt>0</asrwt>
<pdfrwt beam="1">  1        1 0.61062022E+00 0.71346740E+04</pdfrwt>
<pdfrwt beam="2">  1       -1 0.49327645E+00 0.71346740E+04</pdfrwt>
<totfact> 0.10422657E-04</totfact>
</mgrwt>
</event>
<event>
 6    1  0.1028026E-006  0.2842320E+04  0.7818608E-02  0.8290249E-01
          2   -1    0    0  501    0  0.00000000000E+00  0.00000000000E+00  0.93991474354E+03  0.93991474354E+03  0.00000000000E+00 0. -1.
         -2   -1    0    0    0  501 -0.00000000000E+00 -0.00000000000E+00 -0.21488072639E+04  0.21488072639E+04  0.00000000000E+00 0.  1.
         23    2    1    2    0    0 -0.12409732039E+04  0.22048612396E+03  0.10392636320E+03  0.12687983704E+04  0.10207836184E+03 0.  0.
         13    1    3    3    0    0 -0.31667738464E+03  0.79537755018E+02  0.65564773970E+02  0.33303086944E+03  0.00000000000E+00 0. -1.
        -13    1    3    3    0    0 -0.92429581930E+03  0.14094836894E+03  0.38361589227E+02  0.93576750093E+03  0.00000000000E+00 0.  1.
         22    1    1    2    0    0  0.12409732039E+04 -0.22048612396E+03 -0.13128188836E+04  0.18199236371E+04  0.00000000000E+00 0.  1.
<mgrwt>
<rscale>  0 0.28423199E+04</rscale>
<asrwt>0</asrwt>
<pdfrwt beam="1">  1        2 0.14460227E+00 0.28423199E+04</pdfrwt>
<pdfrwt beam="2">  1       -2 0.33058573E+00 0.28423199E+04</pdfrwt>
<totfact> 0.49211370E-01</totfact>
</mgrwt>
</event>
<event>
 6    1  0.1028026E-006  0.1765904E+04  0.7818608E-02  0.8724644E-01
         -1   -1    0    0    0  501 -0.00000000000E+00  0.00000000000E+00  0.99552857901E+03  0.99552857901E+03  0.00000000000E+00 0.  1.
          1   -1    0    0  501    0  0.00000000000E+00 -0.00000000000E+00 -0.78310585777E+03  0.78310585777E+03  0.00000000000E+00 0. -1.
         23    2    1    2    0    0  0.54248977374E+03  0.65328118801E+03 -0.12820292322E+03  0.86370422367E+03  0.92073510026E+02 0.  0.
         13    1    3    3    0    0  0.31770404392E+03  0.33364153731E+03 -0.10328556683E+03  0.47214451523E+03  0.00000000000E+00 0. -1.
        -13    1    3    3    0    0  0.22478572982E+03  0.31963965070E+03 -0.24917356386E+02  0.39155970844E+03  0.00000000000E+00 0.  1.
         22    1    1    2    0    0 -0.54248977374E+03 -0.65328118801E+03  0.34062564445E+03  0.91493021312E+03  0.00000000000E+00 0. -1.
<mgrwt>
<rscale>  0 0.17659040E+04</rscale>
<asrwt>0</asrwt>
<pdfrwt beam="1">  1        1 0.12047782E+00 0.17659040E+04</pdfrwt>
<pdfrwt beam="2">  1       -1 0.15315824E+00 0.17659040E+04</pdfrwt>
<totfact> 0.71392403E+00</totfact>
</mgrwt>
</event>
<event>
 6    1  0.1028026E-006  0.4469996E+04  0.7818608E-02  0.7915911E-01
         -1   -1    0    0    0  501 -0.00000000000E+00  0.00000000000E+00  0.22403066711E+04  0.22403066711E+04  0.00000000000E+00 0.  1.
          1   -1    0    0  501    0  0.00000000000E+00 -0.00000000000E+00 -0.22297021009E+04  0.22297021009E+04  0.00000000000E+00 0. -1.
         23    2    1    2    0    0  0.43064338711E+03  0.16023270699E+04 -0.14907313367E+04  0.22323950272E+04  0.91661733877E+02 0.  0.
         11    1    3    3    0    0  0.36992100685E+03  0.12781266523E+04 -0.11586874934E+04  0.17643712756E+04  0.00000000000E+00 0.  1.
        -11    1    3    3    0    0  0.60722380266E+02  0.32420041758E+03 -0.33204384327E+03  0.46802375161E+03  0.00000000000E+00 0. -1.
         22    1    1    2    0    0 -0.43064338711E+03 -0.16023270699E+04  0.15013359069E+04  0.22376137449E+04  0.00000000000E+00 0.  1.
<mgrwt>
<rscale>  0 0.44699962E+04</rscale>
<asrwt>0</asrwt>
<pdfrwt beam="1">  1        1 0.34303109E+00 0.44699962E+04</pdfrwt>
<pdfrwt beam="2">  1       -1 0.34466256E+00 0.44699962E+04</pdfrwt>
<totfact> 0.26396298E-02</totfact>
</mgrwt>
</event>
<event>
 6    1  0.1028026E-006  0.1765071E+04  0.7818608E-02  0.8725098E-01
         -2   -1    0    0    0  501 -0.00000000000E+00  0.00000000000E+00  0.32003767038E+03  0.32003767038E+03  0.00000000000E+00 0.  1.
          2   -1    0    0  501    0  0.00000000000E+00 -0.00000000000E+00 -0.24336791343E+04  0.24336791343E+04  0.00000000000E+00 0. -1.
         23    2    1    2    0    0  0.28325022364E+03  0.69766263257E+03 -0.34860007151E+03  0.83477570214E+03  0.91458323617E+02 0.  0.
         13    1    3    3    0    0  0.18484321278E+03  0.53934220895E+03 -0.28808218272E+03  0.63878664331E+03  0.00000000000E+00 0.  1.
        -13    1    3    3    0    0  0.98407010854E+02  0.15832042361E+03 -0.60517888795E+02  0.19598905883E+03  0.00000000000E+00 0. -1.
         22    1    1    2    0    0 -0.28325022364E+03 -0.69766263257E+03 -0.17650413924E+04  0.19189411025E+04  0.00000000000E+00 0. -1.
<mgrwt>
<rscale>  0 0.17650711E+04</rscale>
<asrwt>0</asrwt>
<pdfrwt beam="1">  1        2 0.37441215E+00 0.17650711E+04</pdfrwt>
<pdfrwt beam="2">  1       -2 0.49236567E-01 0.17650711E+04</pdfrwt>
<totfact> 0.14071086E+01</totfact>
</mgrwt>
</event>
<event>
 6    1  0.1028026E-006  0.1353550E+04  0.7818608E-02  0.8988146E-01
         -2   -1    0    0    0  501 -0.00000000000E+00  0.00000000000E+00  0.18926847762E+03  0.18926847762E+03  0.00000000000E+00 0.  1.
          2   -1    0    0  501    0  0.00000000000E+00 -0.00000000000E+00 -0.24199701423E+04  0.24199701423E+04  0.00000000000E+00 0. -1.
         23    2    1    2    0    0  0.32724911939E+03 -0.31457530337E+03 -0.15978486438E+03  0.48915701738E+03  0.87714178626E+02 0.  0.
         11    1    3    3    0    0  0.30796314323E+03 -0.29501579863E+03 -0.17101711289E+03  0.45948065458E+03  0.00000000000E+00 0. -1.
        -11    1    3    3    0    0  0.19285976161E+02 -0.19559504745E+02  0.11232248517E+02  0.29676362801E+02  0.00000000000E+00 0.  1.
         22    1    1    2    0    0 -0.32724911939E+03  0.31457530337E+03 -0.20709168003E+04  0.21200816025E+04  0.00000000000E+00 0. -1.
<mgrwt>
<rscale>  0 0.13535495E+04</rscale>
<asrwt>0</asrwt>
<pdfrwt beam="1">  1        2 0.37230306E+00 0.13535495E+04</pdfrwt>
<pdfrwt beam="2">  1       -2 0.29118230E-01 0.13535495E+04</pdfrwt>
<totfact> 0.41130608E+01</totfact>
</mgrwt>
</event>
<event>
 6    1  0.1028026E-006  0.2703031E+04  0.7818608E-02  0.8334022E-01
         -2   -1    0    0    0  501 -0.00000000000E+00  0.00000000000E+00  0.38890094274E+03  0.38890094274E+03  0.00000000000E+00 0.  1.
          2   -1    0    0  501    0  0.00000000000E+00 -0.00000000000E+00 -0.46968091298E+04  0.46968091298E+04  0.00000000000E+00 0. -1.
         23    2    1    2    0    0 -0.10741771493E+04  0.19664566670E+03 -0.66339432629E+03  0.12811066309E+04  0.92822956666E+02 0.  0.
         11    1    3    3    0    0 -0.51496079286E+03  0.47579953888E+02 -0.30587877750E+03  0.60084132408E+03  0.00000000000E+00 0.  1.
        -11    1    3    3    0    0 -0.55921635649E+03  0.14906571282E+03 -0.35751554878E+03  0.68026530686E+03  0.00000000000E+00 0. -1.
         22    1    1    2    0    0  0.10741771493E+04 -0.19664566670E+03 -0.36445138607E+04  0.38046034416E+04  0.00000000000E+00 0. -1.
<mgrwt>
<rscale>  0 0.27030305E+04</rscale>
<asrwt>0</asrwt>
<pdfrwt beam="1">  1        2 0.72258602E+00 0.27030305E+04</pdfrwt>
<pdfrwt beam="2">  1       -2 0.59830915E-01 0.27030305E+04</pdfrwt>
<totfact> 0.17736271E-01</totfact>
</mgrwt>
</event>
<event>
 6    1  0.1028026E-006  0.4558361E+04  0.7818608E-02  0.7900498E-01
         -1   -1    0    0    0  501 -0.00000000000E+00  0.00000000000E+00  0.22511916256E+04  0.22511916256E+04  0.00000000000E+00 0.  1.
          1   -1    0    0  501    0  0.00000000000E+00 -0.00000000000E+00 -0.23075177798E+04  0.23075177798E+04  0.00000000000E+00 0. -1.
         23    2    1    2    0    0  0.64661554061E+03 -0.72971757473E+03 -0.20874983499E+04  0.23056537282E+04  0.88263000883E+02 0.  0.
         11    1    3    3    0    0  0.74114192737E+02 -0.11819471790E+03 -0.34941421611E+03  0.37623556361E+03  0.00000000000E+00 0. -1.
        -11    1    3    3    0    0  0.57250134788E+03 -0.61152285683E+03 -0.17380841338E+04  0.19294181646E+04  0.00000000000E+00 0.  1.
         22    1    1    2    0    0 -0.64661554061E+03  0.72971757473E+03  0.20311721957E+04  0.22530556772E+04  0.00000000000E+00 0.  1.
<mgrwt>
<rscale>  0 0.45583614E+04</rscale>
<asrwt>0</asrwt>
<pdfrwt beam="1">  1        1 0.35500273E+00 0.45583614E+04</pdfrwt>
<pdfrwt beam="2">  1       -1 0.34633718E+00 0.45583614E+04</pdfrwt>
<totfact> 0.22600037E-02</totfact>
</mgrwt>
</event>
<event>
 6    1  0.1028026E-006  0.1312853E+04  0.7818608E-02  0.9019434E-01
          2   -1    0    0  501    0  0.00000000000E+00  0.00000000000E+00  0.19193305458E+04  0.19193305458E+04  0.00000000000E+00 0. -1.
         -2   -1    0    0    0  501 -0.00000000000E+00 -0.00000000000E+00 -0.22450317708E+03  0.22450317708E+03  0.00000000000E+00 0.  1.
         23    2    1    2    0    0 -0.30247485153E+03  0.15336197056E+03  0.17632405095E+04  0.17978694362E+04  0.91139922521E+02 0.  0.
         11    1    3    3    0    0 -0.24442321968E+03  0.15140121370E+03  0.15691740871E+04  0.15952969484E+04  0.00000000000E+00 0.  1.
        -11    1    3    3    0    0 -0.58051631847E+02  0.19607568610E+01  0.19406642241E+03  0.20257248785E+03  0.00000000000E+00 0. -1.
         22    1    1    2    0    0  0.30247485153E+03 -0.15336197056E+03 -0.68413140787E+02  0.34596428667E+03  0.00000000000E+00 0.  1.
<mgrwt>
<rscale>  0 0.13128531E+04</rscale>
<asrwt>0</asrwt>
<pdfrwt beam="1">  1        2 0.29528161E+00 0.13128531E+04</pdfrwt>
<pdfrwt beam="2">  1       -2 0.34538952E-01 0.13128531E+04</pdfrwt>
<totfact> 0.57033895E+01</totfact>
</mgrwt>
</event>
<event>
 6    1  0.1028026E-006  0.2699264E+04  0.7818608E-02  0.8335244E-01
         -1   -1    0    0    0  501 -0.00000000000E+00  0.00000000000E+00  0.28699018758E+04  0.28699018758E+04  0.00000000000E+00 0.  1.
          1   -1    0    0  501    0  0.00000000000E+00 -0.00000000000E+00 -0.63469296902E+03  0.63469296902E+03  0.00000000000E+00 0. -1.
         23    2    1    2    0    0 -0.50332975569E+03 -0.49055585019E+01 -0.50497946814E+03  0.71855872921E+03  0.89204689429E+02 0.  0.
         13    1    3    3    0    0 -0.40532221186E+03 -0.27827596850E+02 -0.36504370672E+03  0.54618438131E+03  0.00000000000E+00 0.  1.
        -13    1    3    3    0    0 -0.98007543832E+02  0.22922038348E+02 -0.13993576142E+03  0.17237434790E+03  0.00000000000E+00 0. -1.
         22    1    1    2    0    0  0.50332975569E+03  0.49055585019E+01  0.27401883749E+04  0.27860361156E+04  0.00000000000E+00 0.  1.
<mgrwt>
<rscale>  0 0.26992640E+04</rscale>
<asrwt>0</asrwt>
<pdfrwt beam="1">  1        1 0.97645074E-01 0.26992640E+04</pdfrwt>
<pdfrwt beam="2">  1       -1 0.44152336E+00 0.26992640E+04</pdfrwt>
<totfact> 0.10190347E-01</totfact>
</mgrwt>
</event>
<event>
 6    1  0.1028026E-006  0.1464949E+04  0.7818608E-02  0.8908102E-01
          1   -1    0    0  501    0  0.00000000000E+00  0.00000000000E+00  0.28322931468E+04  0.28322931468E+04  0.00000000000E+00 0. -1.
         -1   -1    0    0    0  501 -0.00000000000E+00 -0.00000000000E+00 -0.18942907344E+03  0.18942907344E+03  0.00000000000E+00 0.  1.
         23    2    1    2    0    0  0.47432154462E+03  0.46596240717E+03  0.19462384553E+04  0.20587117611E+04  0.91367926977E+02 0.  0.
         13    1    3    3    0    0  0.30105035987E+03  0.35471311769E+03  0.13491430519E+04  0.14271088569E+04  0.00000000000E+00 0. -1.
        -13    1    3    3    0    0  0.17327118475E+03  0.11124928948E+03  0.59709540334E+03  0.63160290418E+03  0.00000000000E+00 0.  1.
         22    1    1    2    0    0 -0.47432154462E+03 -0.46596240717E+03  0.69662561814E+03  0.96301045915E+03  0.00000000000E+00 0.  1.
<mgrwt>
<rscale>  0 0.14649487E+04</rscale>
<asrwt>0</asrwt>
<pdfrwt beam="1">  1        1 0.43573737E+00 0.14649487E+04</pdfrwt>
<pdfrwt beam="2">  1       -1 0.29142937E-01 0.14649487E+04</pdfrwt>
<totfact> 0.82741566E+00</totfact>
</mgrwt>
</event>
<event>
 6    1  0.1028026E-006  0.9422861E+03  0.7818608E-02  0.9374213E-01
          1   -1    0    0  501    0  0.00000000000E+00  0.00000000000E+00  0.21263253268E+03  0.21263253268E+03  0.00000000000E+00 0. -1.
         -1   -1    0    0    0  501 -0.00000000000E+00 -0.00000000000E+00 -0.10439407419E+04  0.10439407419E+04  0.00000000000E+00 0.  1.
         23    2    1    2    0    0  0.24602400617E+03  0.36164280164E+03 -0.20246756284E+03  0.49057465439E+03  0.91416901819E+02 0.  0.
         13    1    3    3    0    0  0.22039373894E+03  0.25818567387E+03 -0.16641937056E+03  0.37805905524E+03  0.00000000000E+00 0. -1.
        -13    1    3    3    0    0  0.25630267234E+02  0.10345712777E+03 -0.36048192283E+02  0.11251559915E+03  0.00000000000E+00 0.  1.
         22    1    1    2    0    0 -0.24602400617E+03 -0.36164280164E+03 -0.62884064635E+03  0.76599862017E+03  0.00000000000E+00 0.  1.
<mgrwt>
<rscale>  0 0.94228608E+03</rscale>
<asrwt>0</asrwt>
<pdfrwt beam="1">  1        1 0.32712697E-01 0.94228608E+03</pdfrwt>
<pdfrwt beam="2">  1       -1 0.16060627E+00 0.94228608E+03</pdfrwt>
<totfact> 0.39980583E+01</totfact>
</mgrwt>
</event>
<event>
 6    1  0.1028026E-006  0.2101747E+04  0.7818608E-02  0.8560474E-01
         -2   -1    0    0    0  501 -0.00000000000E+00  0.00000000000E+00  0.11106901306E+04  0.11106901306E+04  0.00000000000E+00 0.  1.
          2   -1    0    0  501    0  0.00000000000E+00 -0.00000000000E+00 -0.99427814464E+03  0.99427814464E+03  0.00000000000E+00 0. -1.
         23    2    1    2    0    0  0.38312781195E+03 -0.93617037626E+03  0.33660432448E+03  0.10697453236E+04  0.88604133824E+02 0.  0.
         13    1    3    3    0    0  0.19522160562E+03 -0.46284998880E+03  0.12083180822E+03  0.51666421718E+03  0.00000000000E+00 0. -1.
        -13    1    3    3    0    0  0.18790620633E+03 -0.47332038746E+03  0.21577251626E+03  0.55308110647E+03  0.00000000000E+00 0.  1.
         22    1    1    2    0    0 -0.38312781195E+03  0.93617037626E+03 -0.22019233847E+03  0.10352229516E+04  0.00000000000E+00 0. -1.
<mgrwt>
<rscale>  0 0.21017468E+04</rscale>
<asrwt>0</asrwt>
<pdfrwt beam="1">  1        2 0.15296587E+00 0.21017468E+04</pdfrwt>
<pdfrwt beam="2">  1       -2 0.17087540E+00 0.21017468E+04</pdfrwt>
<totfact> 0.49168652E+00</totfact>
</mgrwt>
</event>
<event>
 6    1  0.1028026E-006  0.1516728E+04  0.7818608E-02  0.8873405E-01
         -2   -1    0    0    0  501 -0.00000000000E+00  0.00000000000E+00  0.41260104161E+03  0.41260104161E+03  0.00000000000E+00 0.  1.
          2   -1    0    0  501    0  0.00000000000E+00 -0.00000000000E+00 -0.13938782512E+04  0.13938782512E+04  0.00000000000E+00 0. -1.
         23    2    1    2    0    0 -0.60844061891E+03  0.12940568366E+01 -0.10260511209E+04  0.11963921151E+04  0.91496059571E+02 0.  0.
         13    1    3    3    0    0 -0.26335128784E+03  0.44233808344E+02 -0.42206914692E+03  0.49945259574E+03  0.00000000000E+00 0.  1.
        -13    1    3    3    0    0 -0.34508933107E+03 -0.42939751507E+02 -0.60398197399E+03  0.69693951932E+03  0.00000000000E+00 0. -1.
         22    1    1    2    0    0  0.60844061891E+03 -0.12940568366E+01  0.44773911334E+02  0.61008717775E+03  0.00000000000E+00 0.  1.
<mgrwt>
<rscale>  0 0.15167276E+04</rscale>
<asrwt>0</asrwt>
<pdfrwt beam="1">  1        2 0.21444281E+00 0.15167276E+04</pdfrwt>
<pdfrwt beam="2">  1       -2 0.63477083E-01 0.15167276E+04</pdfrwt>
<totfact> 0.32335243E+01</totfact>
</mgrwt>
</event>
<event>
 6    1  0.1028026E-006  0.4982627E+04  0.7818608E-02  0.7831193E-01
          2   -1    0    0  501    0  0.00000000000E+00  0.00000000000E+00  0.27946749265E+04  0.27946749265E+04  0.00000000000E+00 0. -1.
         -2   -1    0    0    0  501 -0.00000000000E+00 -0.00000000000E+00 -0.22208820279E+04  0.22208820279E+04  0.00000000000E+00 0.  1.
         23    2    1    2    0    0 -0.21806295443E+04  0.36216846977E+03  0.14418214184E+04  0.26407338618E+04  0.91187257869E+02 0.  0.
         13    1    3    3    0    0 -0.14364428230E+04  0.27328784674E+03  0.92173295402E+03  0.17284807981E+04  0.00000000000E+00 0. -1.
        -13    1    3    3    0    0 -0.74418672135E+03  0.88880623035E+02  0.52008846437E+03  0.91225306366E+03  0.00000000000E+00 0.  1.
         22    1    1    2    0    0  0.21806295443E+04 -0.36216846977E+03 -0.86802851978E+03  0.23748230926E+04  0.00000000000E+00 0. -1.
<mgrwt>
<rscale>  0 0.49826271E+04</rscale>
<asrwt>0</asrwt>
<pdfrwt beam="1">  1        2 0.42994999E+00 0.49826271E+04</pdfrwt>
<pdfrwt beam="2">  1       -2 0.34167416E+00 0.49826271E+04</pdfrwt>
<totfact> 0.29805499E-02</totfact>
</mgrwt>
</event>
<event>
 6    1  0.1028026E-006  0.1091494E+04  0.7818608E-02  0.9213522E-01
          2   -1    0    0  501    0  0.00000000000E+00  0.00000000000E+00  0.15614156062E+04  0.15614156062E+04  0.00000000000E+00 0. -1.
         -2   -1    0    0    0  501 -0.00000000000E+00 -0.00000000000E+00 -0.19074987486E+03  0.19074987486E+03  0.00000000000E+00 0.  1.
         23    2    1    2    0    0  0.10926079027E+03  0.53134445933E+03  0.69682790395E+03  0.88710925609E+03  0.84432516050E+02 0.  0.
         13    1    3    3    0    0  0.64291345793E+02  0.28575050876E+03  0.30808146993E+03  0.42508931122E+03  0.00000000000E+00 0.  1.
        -13    1    3    3    0    0  0.44969444481E+02  0.24559395057E+03  0.38874643402E+03  0.46201994487E+03  0.00000000000E+00 0. -1.
         22    1    1    2    0    0 -0.10926079027E+03 -0.53134445933E+03  0.67383782741E+03  0.86505622499E+03  0.00000000000E+00 0.  1.
<mgrwt>
<rscale>  0 0.10914941E+04</rscale>
<asrwt>0</asrwt>
<pdfrwt beam="1">  1        2 0.24021778E+00 0.10914941E+04</pdfrwt>
<pdfrwt beam="2">  1       -2 0.29346136E-01 0.10914941E+04</pdfrwt>
<totfact> 0.12433506E+02</totfact>
</mgrwt>
</event>
<event>
 6    1  0.1028026E-006  0.1953296E+04  0.7818608E-02  0.8628773E-01
         -2   -1    0    0    0  501 -0.00000000000E+00  0.00000000000E+00  0.58090025634E+03  0.58090025634E+03  0.00000000000E+00 0.  1.
          2   -1    0    0  501    0  0.00000000000E+00 -0.00000000000E+00 -0.16420052476E+04  0.16420052476E+04  0.00000000000E+00 0. -1.
         23    2    1    2    0    0 -0.94838504335E+03 -0.22267763191E+03 -0.50313153881E+03  0.11002506630E+04  0.91600534726E+02 0.  0.
         11    1    3    3    0    0 -0.65835805828E+03 -0.11141973042E+03 -0.35134341559E+03  0.75451433711E+03  0.00000000000E+00 0.  1.
        -11    1    3    3    0    0 -0.29002698506E+03 -0.11125790149E+03 -0.15178812322E+03  0.34573632592E+03  0.00000000000E+00 0. -1.
         22    1    1    2    0    0  0.94838504335E+03  0.22267763191E+03 -0.55797345247E+03  0.11226548409E+04  0.00000000000E+00 0.  1.
<mgrwt>
<rscale>  0 0.19532960E+04</rscale>
<asrwt>0</asrwt>
<pdfrwt beam="1">  1        2 0.25261619E+00 0.19532960E+04</pdfrwt>
<pdfrwt beam="2">  1       -2 0.89369271E-01 0.19532960E+04</pdfrwt>
<totfact> 0.10582563E+01</totfact>
</mgrwt>
</event>
<event>
 6    1  0.1028026E-006  0.1800108E+04  0.7818608E-02  0.8706242E-01
          2   -1    0    0  501    0  0.00000000000E+00  0.00000000000E+00  0.38393903628E+03  0.38393903628E+03  0.00000000000E+00 0. -1.
         -2   -1    0    0    0  501 -0.00000000000E+00 -0.00000000000E+00 -0.21099621753E+04  0.21099621753E+04  0.00000000000E+00 0.  1.
         23    2    1    2    0    0  0.74443899782E+03 -0.44954570570E+03 -0.11721617879E+04  0.14628613679E+04  0.98586823530E+02 0.  0.
         13    1    3    3    0    0  0.44448923740E+02 -0.49887004592E+02 -0.12106553813E+03  0.13827973305E+03  0.00000000000E+00 0. -1.
        -13    1    3    3    0    0  0.69999007408E+03 -0.39965870110E+03 -0.10510962497E+04  0.13245816349E+04  0.00000000000E+00 0.  1.
         22    1    1    2    0    0 -0.74443899782E+03  0.44954570570E+03 -0.55386135116E+03  0.10310398437E+04  0.00000000000E+00 0. -1.
<mgrwt>
<rscale>  0 0.18001076E+04</rscale>
<asrwt>0</asrwt>
<pdfrwt beam="1">  1        2 0.59067543E-01 0.18001076E+04</pdfrwt>
<pdfrwt beam="2">  1       -2 0.32460957E+00 0.18001076E+04</pdfrwt>
<totfact> 0.17676971E+00</totfact>
</mgrwt>
</event>
<event>
 6    1  0.1028026E-006  0.3017806E+04  0.7818608E-02  0.8238665E-01
         -1   -1    0    0    0  501 -0.00000000000E+00  0.00000000000E+00  0.12115880528E+04  0.12115880528E+04  0.00000000000E+00 0.  1.
          1   -1    0    0  501    0  0.00000000000E+00 -0.00000000000E+00 -0.18791765175E+04  0.18791765175E+04  0.00000000000E+00 0. -1.
         23    2    1    2    0    0  0.13110914840E+04  0.28354704752E+03 -0.10392355524E+04  0.16988301734E+04  0.81569707658E+02 0.  0.
         11    1    3    3    0    0  0.50323237413E+03  0.68450634084E+02 -0.38964774317E+03  0.64012004767E+03  0.00000000000E+00 0. -1.
        -11    1    3    3    0    0  0.80785910987E+03  0.21509641344E+03 -0.64958780926E+03  0.10587101258E+04  0.00000000000E+00 0.  1.
         22    1    1    2    0    0 -0.13110914840E+04 -0.28354704752E+03  0.37164708773E+03  0.13919343969E+04  0.00000000000E+00 0.  1.
<mgrwt>
<rscale>  0 0.30178057E+04</rscale>
<asrwt>0</asrwt>
<pdfrwt beam="1">  1        1 0.28910408E+00 0.30178057E+04</pdfrwt>
<pdfrwt beam="2">  1       -1 0.18639816E+00 0.30178057E+04</pdfrwt>
<totfact> 0.57303585E-01</totfact>
</mgrwt>
</event>
<event>
 6    1  0.1028026E-006  0.3264257E+04  0.7818608E-02  0.8172050E-01
          2   -1    0    0  501    0  0.00000000000E+00  0.00000000000E+00  0.27726432940E+04  0.27726432940E+04  0.00000000000E+00 0. -1.
         -2   -1    0    0    0  501 -0.00000000000E+00 -0.00000000000E+00 -0.96075944168E+03  0.96075944168E+03  0.00000000000E+00 0.  1.
         23    2    1    2    0    0 -0.14986015596E+04 -0.61569673659E+03  0.11204567105E+04  0.19718804967E+04  0.89444661671E+02 0.  0.
         13    1    3    3    0    0 -0.61425830566E+03 -0.29988569582E+03  0.47722970650E+03  0.83366233536E+03  0.00000000000E+00 0.  1.
        -13    1    3    3    0    0 -0.88434325391E+03 -0.31581104077E+03  0.64322700397E+03  0.11382181614E+04  0.00000000000E+00 0. -1.
         22    1    1    2    0    0  0.14986015596E+04  0.61569673659E+03  0.69142714182E+03  0.17615222389E+04  0.00000000000E+00 0.  1.
<mgrwt>
<rscale>  0 0.32642569E+04</rscale>
<asrwt>0</asrwt>
<pdfrwt beam="1">  1        2 0.42656050E+00 0.32642569E+04</pdfrwt>
<pdfrwt beam="2">  1       -2 0.14780915E+00 0.32642569E+04</pdfrwt>
<totfact> 0.62653607E-01</totfact>
</mgrwt>
</event>
<event>
 6    1  0.1028026E-006  0.3921499E+04  0.7818608E-02  0.8020573E-01
          2   -1    0    0  501    0  0.00000000000E+00  0.00000000000E+00  0.28172342648E+04  0.28172342648E+04  0.00000000000E+00 0. -1.
         -2   -1    0    0    0  501 -0.00000000000E+00 -0.00000000000E+00 -0.13646499052E+04  0.13646499052E+04  0.00000000000E+00 0.  1.
         23    2    1    2    0    0 -0.84181892983E+03 -0.12649202161E+04 -0.59292046248E+03  0.16337922876E+04  0.95080494284E+02 0.  0.
         11    1    3    3    0    0 -0.65802276829E+03 -0.93552463606E+03 -0.41492942299E+03  0.12167032236E+04  0.00000000000E+00 0. -1.
        -11    1    3    3    0    0 -0.18379616155E+03 -0.32939558004E+03 -0.17799103949E+03  0.41708906397E+03  0.00000000000E+00 0.  1.
         22    1    1    2    0    0  0.84181892983E+03  0.12649202161E+04  0.20455048222E+04  0.25480918824E+04  0.00000000000E+00 0. -1.
<mgrwt>
<rscale>  0 0.39214989E+04</rscale>
<asrwt>0</asrwt>
<pdfrwt beam="1">  1        2 0.43342065E+00 0.39214989E+04</pdfrwt>
<pdfrwt beam="2">  1       -2 0.20994614E+00 0.39214989E+04</pdfrwt>
<totfact> 0.20531579E-01</totfact>
</mgrwt>
</event>
<event>
 6    1  0.1028026E-006  0.6362576E+04  0.7818608E-02  0.7647003E-01
         -2   -1    0    0    0  501 -0.00000000000E+00  0.00000000000E+00  0.25640966777E+04  0.25640966777E+04  0.00000000000E+00 0.  1.
          2   -1    0    0  501    0  0.00000000000E+00 -0.00000000000E+00 -0.39470404030E+04  0.39470404030E+04  0.00000000000E+00 0. -1.
         23    2    1    2    0    0 -0.16421343827E+04 -0.13481613749E+04  0.17305358749E+04  0.27418003162E+04  0.92575028246E+02 0.  0.
         11    1    3    3    0    0 -0.41612089676E+03 -0.32173912532E+03  0.38151359130E+03  0.64978864705E+03  0.00000000000E+00 0. -1.
        -11    1    3    3    0    0 -0.12260134860E+04 -0.10264222496E+04  0.13490222836E+04  0.20920116691E+04  0.00000000000E+00 0.  1.
         22    1    1    2    0    0  0.16421343827E+04  0.13481613749E+04 -0.31134796001E+04  0.37693367645E+04  0.00000000000E+00 0. -1.
<mgrwt>
<rscale>  0 0.63625760E+04</rscale>
<asrwt>0</asrwt>
<pdfrwt beam="1">  1        2 0.60723699E+00 0.63625760E+04</pdfrwt>
<pdfrwt beam="2">  1       -2 0.39447641E+00 0.63625760E+04</pdfrwt>
<totfact> 0.19843283E-03</totfact>
</mgrwt>
</event>
<event>
 6    1  0.1028026E-006  0.8940543E+03  0.7818608E-02  0.9433044E-01
         -2   -1    0    0    0  501 -0.00000000000E+00  0.00000000000E+00  0.12721683447E+03  0.12721683447E+03  0.00000000000E+00 0.  1.
          2   -1    0    0  501    0  0.00000000000E+00 -0.00000000000E+00 -0.15708084631E+04  0.15708084631E+04  0.00000000000E+00 0. -1.
         23    2    1    2    0    0  0.20170749599E+03  0.76894185226E+02 -0.14625672300E+04  0.14813257288E+04  0.92867555645E+02 0.  0.
         11    1    3    3    0    0  0.29500684857E+02 -0.26052420808E+00 -0.47352498199E+03  0.47444311234E+03  0.00000000000E+00 0.  1.
        -11    1    3    3    0    0  0.17220681113E+03  0.77154709434E+02 -0.98904224801E+03  0.10068826165E+04  0.00000000000E+00 0. -1.
         22    1    1    2    0    0 -0.20170749599E+03 -0.76894185226E+02  0.18975601364E+02  0.21669956877E+03  0.00000000000E+00 0.  1.
<mgrwt>
<rscale>  0 0.89405432E+03</rscale>
<asrwt>0</asrwt>
<pdfrwt beam="1">  1        2 0.24166284E+00 0.89405432E+03</pdfrwt>
<pdfrwt beam="2">  1       -2 0.19571821E-01 0.89405432E+03</pdfrwt>
<totfact> 0.25804042E+02</totfact>
</mgrwt>
</event>
<event>
 6    1  0.1028026E-006  0.2534565E+04  0.7818608E-02  0.8390774E-01
          1   -1    0    0  501    0  0.00000000000E+00  0.00000000000E+00  0.10577929836E+04  0.10577929836E+04  0.00000000000E+00 0. -1.
         -1   -1    0    0    0  501 -0.00000000000E+00 -0.00000000000E+00 -0.15182597103E+04  0.15182597103E+04  0.00000000000E+00 0.  1.
         23    2    1    2    0    0  0.55497102762E+03  0.11178948053E+04 -0.17129874025E+02  0.12515795148E+04  0.92066346731E+02 0.  0.
         13    1    3    3    0    0  0.51167409944E+03  0.10737180821E+04 -0.11398383368E+02  0.11894582073E+04  0.00000000000E+00 0. -1.
        -13    1    3    3    0    0  0.43296928176E+02  0.44176723221E+02 -0.57314906579E+01  0.62121307530E+02  0.00000000000E+00 0.  1.
         22    1    1    2    0    0 -0.55497102762E+03 -0.11178948053E+04 -0.44333685266E+03  0.13244731791E+04  0.00000000000E+00 0. -1.
<mgrwt>
<rscale>  0 0.25345646E+04</rscale>
<asrwt>0</asrwt>
<pdfrwt beam="1">  1        1 0.16273738E+00 0.25345646E+04</pdfrwt>
<pdfrwt beam="2">  1       -1 0.23357842E+00 0.25345646E+04</pdfrwt>
<totfact> 0.10805867E+00</totfact>
</mgrwt>
</event>
<event>
 6    1  0.1028026E-006  0.2849868E+04  0.7818608E-02  0.8287951E-01
          2   -1    0    0  501    0  0.00000000000E+00  0.00000000000E+00  0.14712927076E+04  0.14712927076E+04  0.00000000000E+00 0. -1.
         -2   -1    0    0    0  501 -0.00000000000E+00 -0.00000000000E+00 -0.13800359306E+04  0.13800359306E+04  0.00000000000E+00 0.  1.
         23    2    1    2    0    0 -0.59538964011E+02  0.84897588405E+03  0.11872293917E+04  0.14637188544E+04  0.93028578111E+02 0.  0.
         13    1    3    3    0    0 -0.60953813074E+02  0.70772078638E+03  0.10422665115E+04  0.12613102552E+04  0.00000000000E+00 0. -1.
        -13    1    3    3    0    0  0.14148490630E+01  0.14125509766E+03  0.14496288018E+03  0.20240859923E+03  0.00000000000E+00 0.  1.
         22    1    1    2    0    0  0.59538964011E+02 -0.84897588405E+03 -0.10959726146E+04  0.13876097837E+04  0.00000000000E+00 0.  1.
<mgrwt>
<rscale>  0 0.28498679E+04</rscale>
<asrwt>0</asrwt>
<pdfrwt beam="1">  1        2 0.22635273E+00 0.28498679E+04</pdfrwt>
<pdfrwt beam="2">  1       -2 0.21231322E+00 0.28498679E+04</pdfrwt>
<totfact> 0.12637580E+00</totfact>
</mgrwt>
</event>
<event>
 6    1  0.1028026E-006  0.4209617E+04  0.7818608E-02  0.7963545E-01
         -2   -1    0    0    0  501 -0.00000000000E+00  0.00000000000E+00  0.15762351064E+04  0.15762351064E+04  0.00000000000E+00 0.  1.
          2   -1    0    0  501    0  0.00000000000E+00 -0.00000000000E+00 -0.28106330995E+04  0.28106330995E+04  0.00000000000E+00 0. -1.
         23    2    1    2    0    0 -0.71139648601E+02  0.16808386109E+04 -0.19339586562E+04  0.25648735828E+04  0.90006258050E+02 0.  0.
         11    1    3    3    0    0 -0.44154637388E+02  0.96534054301E+03 -0.11780287697E+04  0.15236744332E+04  0.00000000000E+00 0. -1.
        -11    1    3    3    0    0 -0.26985011214E+02  0.71549806786E+03 -0.75592988641E+03  0.10411991496E+04  0.00000000000E+00 0.  1.
         22    1    1    2    0    0  0.71139648601E+02 -0.16808386109E+04  0.69956066313E+03  0.18219946231E+04  0.00000000000E+00 0.  1.
<mgrwt>
<rscale>  0 0.42096169E+04</rscale>
<asrwt>0</asrwt>
<pdfrwt beam="1">  1        2 0.43240510E+00 0.42096169E+04</pdfrwt>
<pdfrwt beam="2">  1       -2 0.24249771E+00 0.42096169E+04</pdfrwt>
<totfact> 0.12629792E-01</totfact>
</mgrwt>
</event>
<event>
 6    1  0.1028026E-006  0.3741677E+04  0.7818608E-02  0.8058788E-01
         -1   -1    0    0    0  501 -0.00000000000E+00  0.00000000000E+00  0.20987332883E+04  0.20987332883E+04  0.00000000000E+00 0.  1.
          1   -1    0    0  501    0  0.00000000000E+00 -0.00000000000E+00 -0.16676904751E+04  0.16676904751E+04  0.00000000000E+00 0. -1.
         23    2    1    2    0    0  0.89446316127E+03  0.13562895865E+04  0.11471863507E+04  0.19909104980E+04  0.90012769366E+02 0.  0.
         11    1    3    3    0    0  0.60048861113E+02  0.76736602514E+02  0.45710107626E+02  0.10762799741E+03  0.00000000000E+00 0.  1.
        -11    1    3    3    0    0  0.83441430016E+03  0.12795529840E+04  0.11014762430E+04  0.18832825006E+04  0.00000000000E+00 0. -1.
         22    1    1    2    0    0 -0.89446316127E+03 -0.13562895865E+04 -0.71614353749E+03  0.17755132654E+04  0.00000000000E+00 0. -1.
<mgrwt>
<rscale>  0 0.37416774E+04</rscale>
<asrwt>0</asrwt>
<pdfrwt beam="1">  1        1 0.25656777E+00 0.37416774E+04</pdfrwt>
<pdfrwt beam="2">  1       -1 0.32288204E+00 0.37416774E+04</pdfrwt>
<totfact> 0.93945578E-02</totfact>
</mgrwt>
</event>
<event>
 6    1  0.1028026E-006  0.3230645E+04  0.7818608E-02  0.8180770E-01
         -2   -1    0    0    0  501 -0.00000000000E+00  0.00000000000E+00  0.16430336407E+04  0.16430336407E+04  0.00000000000E+00 0.  1.
          2   -1    0    0  501    0  0.00000000000E+00 -0.00000000000E+00 -0.15880791631E+04  0.15880791631E+04  0.00000000000E+00 0. -1.
         23    2    1    2    0    0 -0.82241770532E+03  0.97317265202E+03 -0.96339040475E+03  0.16000204728E+04  0.92241794784E+02 0.  0.
         11    1    3    3    0    0 -0.40308463287E+03  0.48685883609E+03 -0.53511585705E+03  0.82816527820E+03  0.00000000000E+00 0. -1.
        -11    1    3    3    0    0 -0.41933307245E+03  0.48631381593E+03 -0.42827454770E+03  0.77185519460E+03  0.00000000000E+00 0.  1.
         22    1    1    2    0    0  0.82241770532E+03 -0.97317265202E+03  0.10183448824E+04  0.16310923310E+04  0.00000000000E+00 0.  1.
<mgrwt>
<rscale>  0 0.32306454E+04</rscale>
<asrwt>0</asrwt>
<pdfrwt beam="1">  1        2 0.24431987E+00 0.32306454E+04</pdfrwt>
<pdfrwt beam="2">  1       -2 0.25277441E+00 0.32306454E+04</pdfrwt>
<totfact> 0.58772761E-01</totfact>
</mgrwt>
</event>
<event>
 6    1  0.1028026E-006  0.2115867E+04  0.7818608E-02  0.8554286E-01
         -1   -1    0    0    0  501 -0.00000000000E+00  0.00000000000E+00  0.52982127420E+03  0.52982127420E+03  0.00000000000E+00 0.  1.
          1   -1    0    0  501    0  0.00000000000E+00 -0.00000000000E+00 -0.21124536579E+04  0.21124536579E+04  0.00000000000E+00 0. -1.
         23    2    1    2    0    0 -0.63119455205E+03  0.62421911886E+03 -0.78433273305E+02  0.89565790636E+03  0.89416083473E+02 0.  0.
         11    1    3    3    0    0 -0.25379159471E+03  0.19990233581E+03 -0.54066370905E+01  0.32311042870E+03  0.00000000000E+00 0. -1.
        -11    1    3    3    0    0 -0.37740295733E+03  0.42431678304E+03 -0.73026636215E+02  0.57254747766E+03  0.00000000000E+00 0.  1.
         22    1    1    2    0    0  0.63119455205E+03 -0.62421911886E+03 -0.15041991104E+04  0.17466170257E+04  0.00000000000E+00 0.  1.
<mgrwt>
<rscale>  0 0.21158666E+04</rscale>
<asrwt>0</asrwt>
<pdfrwt beam="1">  1        1 0.32499287E+00 0.21158666E+04</pdfrwt>
<pdfrwt beam="2">  1       -1 0.81510966E-01 0.21158666E+04</pdfrwt>
<totfact> 0.34396422E+00</totfact>
</mgrwt>
</event>
<event>
 6    1  0.1028026E-006  0.7410325E+03  0.7818608E-02  0.9649525E-01
          1   -1    0    0  501    0  0.00000000000E+00  0.00000000000E+00  0.14753405443E+03  0.14753405443E+03  0.00000000000E+00 0. -1.
         -1   -1    0    0    0  501 -0.00000000000E+00 -0.00000000000E+00 -0.93051262337E+03  0.93051262337E+03  0.00000000000E+00 0.  1.
         23    2    1    2    0    0  0.79359813096E+02 -0.35042625424E+03 -0.30589628764E+03  0.48079962447E+03  0.92191108547E+02 0.  0.
         13    1    3    3    0    0  0.68085135297E+02 -0.11109683206E+03 -0.12523448933E+03  0.18072567349E+03  0.00000000000E+00 0. -1.
        -13    1    3    3    0    0  0.11274677800E+02 -0.23932942219E+03 -0.18066179832E+03  0.30007395098E+03  0.00000000000E+00 0.  1.
         22    1    1    2    0    0 -0.79359813096E+02  0.35042625424E+03 -0.47708228129E+03  0.59724705334E+03  0.00000000000E+00 0.  1.
<mgrwt>
<rscale>  0 0.74103252E+03</rscale>
<asrwt>0</asrwt>
<pdfrwt beam="1">  1        1 0.22697547E-01 0.74103252E+03</pdfrwt>
<pdfrwt beam="2">  1       -1 0.14315579E+00 0.74103252E+03</pdfrwt>
<totfact> 0.89177482E+01</totfact>
</mgrwt>
</event>
<event>
 6    1  0.1028026E-006  0.1300917E+04  0.7818608E-02  0.9028838E-01
          2   -1    0    0  501    0  0.00000000000E+00  0.00000000000E+00  0.17878753595E+04  0.17878753595E+04  0.00000000000E+00 0. -1.
         -2   -1    0    0    0  501 -0.00000000000E+00 -0.00000000000E+00 -0.23664753491E+03  0.23664753491E+03  0.00000000000E+00 0.  1.
         23    2    1    2    0    0  0.52298800272E+03 -0.26528147182E+03  0.35280373094E+03  0.69031488269E+03  0.90407159135E+02 0.  0.
         11    1    3    3    0    0  0.32526032222E+03 -0.19734877809E+03  0.18953866161E+03  0.42504790515E+03  0.00000000000E+00 0. -1.
        -11    1    3    3    0    0  0.19772768050E+03 -0.67932693724E+02  0.16326506933E+03  0.26526697754E+03  0.00000000000E+00 0.  1.
         22    1    1    2    0    0 -0.52298800272E+03  0.26528147182E+03  0.11984240936E+04  0.13342080117E+04  0.00000000000E+00 0.  1.
<mgrwt>
<rscale>  0 0.13009171E+04</rscale>
<asrwt>0</asrwt>
<pdfrwt beam="1">  1        2 0.27505774E+00 0.13009171E+04</pdfrwt>
<pdfrwt beam="2">  1       -2 0.36407314E-01 0.13009171E+04</pdfrwt>
<totfact> 0.61002892E+01</totfact>
</mgrwt>
</event>
<event>
 6    1  0.1028026E-006  0.1705142E+04  0.7818608E-02  0.8758437E-01
          1   -1    0    0  501    0  0.00000000000E+00  0.00000000000E+00  0.15813447785E+04  0.15813447785E+04  0.00000000000E+00 0. -1.
         -1   -1    0    0    0  501 -0.00000000000E+00 -0.00000000000E+00 -0.45965766510E+03  0.45965766510E+03  0.00000000000E+00 0.  1.
         23    2    1    2    0    0  0.72089709943E+03 -0.36161730434E+03  0.88448633195E+03  0.12003337137E+04  0.89583760084E+02 0.  0.
         13    1    3    3    0    0  0.57167953062E+03 -0.25980285590E+03  0.72732044082E+03  0.96089022958E+03  0.00000000000E+00 0. -1.
        -13    1    3    3    0    0  0.14921756881E+03 -0.10181444844E+03  0.15716589112E+03  0.23944348412E+03  0.00000000000E+00 0.  1.
         22    1    1    2    0    0 -0.72089709943E+03  0.36161730434E+03  0.23720078148E+03  0.84066872994E+03  0.00000000000E+00 0.  1.
<mgrwt>
<rscale>  0 0.17051419E+04</rscale>
<asrwt>0</asrwt>
<pdfrwt beam="1">  1        1 0.24328381E+00 0.17051419E+04</pdfrwt>
<pdfrwt beam="2">  1       -1 0.70716565E-01 0.17051419E+04</pdfrwt>
<totfact> 0.11044929E+01</totfact>
</mgrwt>
</event>
<event>
 6    1  0.1285475E-006  0.3961565E+04  0.7818608E-02  0.8012345E-01
          2   -1    0    0  501    0  0.00000000000E+00  0.00000000000E+00  0.19791422272E+04  0.19791422272E+04  0.00000000000E+00 0. -1.
         -2   -1    0    0    0  501 -0.00000000000E+00 -0.00000000000E+00 -0.19824237422E+04  0.19824237422E+04  0.00000000000E+00 0.  1.
         23    2    1    2    0    0 -0.62296492378E+03  0.78612711719E+03  0.17054035586E+04  0.19802316155E+04  0.82672927115E+02 0.  0.
         13    1    3    3    0    0 -0.24889607654E+03  0.38015966521E+03  0.77569039633E+03  0.89898065548E+03  0.00000000000E+00 0.  1.
        -13    1    3    3    0    0 -0.37406884724E+03  0.40596745198E+03  0.92971316227E+03  0.10812509601E+04  0.00000000000E+00 0. -1.
         22    1    1    2    0    0  0.62296492378E+03 -0.78612711719E+03 -0.17086850736E+04  0.19813343538E+04  0.00000000000E+00 0.  1.
<mgrwt>
<rscale>  0 0.39615646E+04</rscale>
<asrwt>0</asrwt>
<pdfrwt beam="1">  1        2 0.30448342E+00 0.39615646E+04</pdfrwt>
<pdfrwt beam="2">  1       -2 0.30498827E+00 0.39615646E+04</pdfrwt>
<totfact> 0.16085811E-01</totfact>
</mgrwt>
</event>
<event>
 6    1  0.1170421E-006  0.5088873E+04  0.7818608E-02  0.7814942E-01
          2   -1    0    0  501    0  0.00000000000E+00  0.00000000000E+00  0.27452195471E+04  0.27452195471E+04  0.00000000000E+00 0. -1.
         -2   -1    0    0    0  501 -0.00000000000E+00 -0.00000000000E+00 -0.23583383292E+04  0.23583383292E+04  0.00000000000E+00 0.  1.
         23    2    1    2    0    0 -0.30209035157E+03  0.66620092172E+03  0.26367047337E+04  0.27378046980E+04  0.90997051888E+02 0.  0.
         13    1    3    3    0    0 -0.22703712421E+03  0.54763666855E+03  0.20112285955E+04  0.20967814001E+04  0.00000000000E+00 0. -1.
        -13    1    3    3    0    0 -0.75053227355E+02  0.11856425317E+03  0.62547613813E+03  0.64102329789E+03  0.00000000000E+00 0.  1.
         22    1    1    2    0    0  0.30209035157E+03 -0.66620092172E+03 -0.22498235157E+04  0.23657531783E+04  0.00000000000E+00 0.  1.
<mgrwt>
<rscale>  0 0.50888728E+04</rscale>
<asrwt>0</asrwt>
<pdfrwt beam="1">  1        2 0.42234147E+00 0.50888728E+04</pdfrwt>
<pdfrwt beam="2">  1       -2 0.36282128E+00 0.50888728E+04</pdfrwt>
<totfact> 0.23275511E-02</totfact>
</mgrwt>
</event>
<event>
 6    1  0.1028026E-006  0.2001876E+04  0.7818608E-02  0.8605744E-01
          2   -1    0    0  501    0  0.00000000000E+00  0.00000000000E+00  0.12876985995E+04  0.12876985995E+04  0.00000000000E+00 0. -1.
         -2   -1    0    0    0  501 -0.00000000000E+00 -0.00000000000E+00 -0.77803712675E+03  0.77803712675E+03  0.00000000000E+00 0.  1.
         23    2    1    2    0    0 -0.60546818234E+03  0.52413176631E+03 -0.36115114173E+03  0.88268017480E+03  0.85955311167E+02 0.  0.
         13    1    3    3    0    0 -0.40365327162E+03  0.33937219859E+03 -0.19323459698E+03  0.56164852206E+03  0.00000000000E+00 0. -1.
        -13    1    3    3    0    0 -0.20181491072E+03  0.18475956773E+03 -0.16791654476E+03  0.32103165273E+03  0.00000000000E+00 0.  1.
         22    1    1    2    0    0  0.60546818234E+03 -0.52413176631E+03  0.87081261446E+03  0.11830555514E+04  0.00000000000E+00 0. -1.
<mgrwt>
<rscale>  0 0.20018764E+04</rscale>
<asrwt>0</asrwt>
<pdfrwt beam="1">  1        2 0.19810748E+00 0.20018764E+04</pdfrwt>
<pdfrwt beam="2">  1       -2 0.11969802E+00 0.20018764E+04</pdfrwt>
<totfact> 0.83440244E+00</totfact>
</mgrwt>
</event>
<event>
 6    1  0.1028026E-006  0.1978206E+04  0.7818608E-02  0.8616878E-01
         -2   -1    0    0    0  501 -0.00000000000E+00  0.00000000000E+00  0.75925504144E+03  0.75925504144E+03  0.00000000000E+00 0.  1.
          2   -1    0    0  501    0  0.00000000000E+00 -0.00000000000E+00 -0.12885329835E+04  0.12885329835E+04  0.00000000000E+00 0. -1.
         23    2    1    2    0    0  0.61929380889E+03 -0.69959990818E+03 -0.59448135358E+03  0.11111897449E+04  0.91486153413E+02 0.  0.
         13    1    3    3    0    0  0.11511210167E+03 -0.81016287558E+02 -0.90413026158E+02  0.16729898415E+03  0.00000000000E+00 0. -1.
        -13    1    3    3    0    0  0.50418170722E+03 -0.61858362062E+03 -0.50406832742E+03  0.94389076079E+03  0.00000000000E+00 0.  1.
         22    1    1    2    0    0 -0.61929380889E+03  0.69959990818E+03  0.65203411498E+02  0.93659828001E+03  0.00000000000E+00 0.  1.
<mgrwt>
<rscale>  0 0.19782064E+04</rscale>
<asrwt>0</asrwt>
<pdfrwt beam="1">  1        2 0.19823584E+00 0.19782064E+04</pdfrwt>
<pdfrwt beam="2">  1       -2 0.11680847E+00 0.19782064E+04</pdfrwt>
<totfact> 0.88696617E+00</totfact>
</mgrwt>
</event>
<event>
 6    1  0.1028026E-006  0.1149754E+04  0.7818608E-02  0.9158011E-01
         -1   -1    0    0    0  501 -0.00000000000E+00  0.00000000000E+00  0.35629101222E+03  0.35629101222E+03  0.00000000000E+00 0.  1.
          1   -1    0    0  501    0  0.00000000000E+00 -0.00000000000E+00 -0.92756598794E+03  0.92756598794E+03  0.00000000000E+00 0. -1.
         23    2    1    2    0    0 -0.32834634921E+02 -0.52303106246E+02 -0.92163657402E+03  0.92809447018E+03  0.90175622208E+02 0.  0.
         13    1    3    3    0    0 -0.55727899450E+02 -0.43496378422E+01 -0.50437934554E+03  0.50746728203E+03  0.00000000000E+00 0. -1.
        -13    1    3    3    0    0  0.22893264529E+02 -0.47953468404E+02 -0.41725722848E+03  0.42062718815E+03  0.00000000000E+00 0.  1.
         22    1    1    2    0    0  0.32834634921E+02  0.52303106246E+02  0.35036159829E+03  0.35576252997E+03  0.00000000000E+00 0.  1.
<mgrwt>
<rscale>  0 0.11497538E+04</rscale>
<asrwt>0</asrwt>
<pdfrwt beam="1">  1        1 0.14270246E+00 0.11497538E+04</pdfrwt>
<pdfrwt beam="2">  1       -1 0.54814002E-01 0.11497538E+04</pdfrwt>
<totfact> 0.57706835E+01</totfact>
</mgrwt>
</event>
<event>
 6    1  0.1028026E-006  0.1998518E+04  0.7818608E-02  0.8607314E-01
          2   -1    0    0  501    0  0.00000000000E+00  0.00000000000E+00  0.87813707118E+03  0.87813707118E+03  0.00000000000E+00 0. -1.
         -2   -1    0    0    0  501 -0.00000000000E+00 -0.00000000000E+00 -0.11370874254E+04  0.11370874254E+04  0.00000000000E+00 0.  1.
         23    2    1    2    0    0  0.21317620227E+02 -0.61837257524E+03  0.65864815696E+03  0.90850587359E+03  0.93415442686E+02 0.  0.
         13    1    3    3    0    0 -0.10240469083E+02 -0.93805751165E+02  0.14954691739E+03  0.17682948470E+03  0.00000000000E+00 0. -1.
        -13    1    3    3    0    0  0.31558089310E+02 -0.52456682408E+03  0.50910123958E+03  0.73167638889E+03  0.00000000000E+00 0.  1.
         22    1    1    2    0    0 -0.21317620227E+02  0.61837257524E+03 -0.91759851120E+03  0.11067186230E+04  0.00000000000E+00 0.  1.
<mgrwt>
<rscale>  0 0.19985181E+04</rscale>
<asrwt>0</asrwt>
<pdfrwt beam="1">  1        2 0.13509801E+00 0.19985181E+04</pdfrwt>
<pdfrwt beam="2">  1       -2 0.17493653E+00 0.19985181E+04</pdfrwt>
<totfact> 0.55436174E+00</totfact>
</mgrwt>
</event>
<event>
 6    1  0.1028026E-006  0.4000344E+04  0.7818608E-02  0.8004477E-01
         -1   -1    0    0    0  501 -0.00000000000E+00  0.00000000000E+00  0.38799262598E+04  0.38799262598E+04  0.00000000000E+00 0.  1.
          1   -1    0    0  501    0  0.00000000000E+00 -0.00000000000E+00 -0.10311246878E+04  0.10311246878E+04  0.00000000000E+00 0. -1.
         23    2    1    2    0    0  0.16963222136E+02 -0.88779237799E+03 -0.77373250887E+03  0.11812766617E+04  0.91046684902E+02 0.  0.
         13    1    3    3    0    0 -0.13802594318E+01 -0.29950315503E+03 -0.31843414362E+03  0.43715483391E+03  0.00000000000E+00 0. -1.
        -13    1    3    3    0    0  0.18343481568E+02 -0.58828922295E+03 -0.45529836525E+03  0.74412182777E+03  0.00000000000E+00 0.  1.
         22    1    1    2    0    0 -0.16963222136E+02  0.88779237799E+03  0.36225340809E+04  0.37297742860E+04  0.00000000000E+00 0.  1.
<mgrwt>
<rscale>  0 0.40003439E+04</rscale>
<asrwt>0</asrwt>
<pdfrwt beam="1">  1        1 0.15863457E+00 0.40003439E+04</pdfrwt>
<pdfrwt beam="2">  1       -1 0.59691172E+00 0.40003439E+04</pdfrwt>
<totfact> 0.50807834E-03</totfact>
</mgrwt>
</event>
<event>
 6    1  0.1028026E-006  0.3348265E+04  0.7818608E-02  0.8150722E-01
          2   -1    0    0  501    0  0.00000000000E+00  0.00000000000E+00  0.11318109877E+04  0.11318109877E+04  0.00000000000E+00 0. -1.
         -2   -1    0    0    0  501 -0.00000000000E+00 -0.00000000000E+00 -0.24763148715E+04  0.24763148715E+04  0.00000000000E+00 0.  1.
         23    2    1    2    0    0 -0.76716593722E+03 -0.48104492923E+03 -0.21885234638E+04  0.23702579944E+04  0.92413252786E+02 0.  0.
         11    1    3    3    0    0 -0.31327961116E+03 -0.24309205380E+03 -0.89465912127E+03  0.97859736596E+03  0.00000000000E+00 0. -1.
        -11    1    3    3    0    0 -0.45388632606E+03 -0.23795287543E+03 -0.12938643425E+04  0.13916606285E+04  0.00000000000E+00 0.  1.
         22    1    1    2    0    0  0.76716593722E+03  0.48104492923E+03  0.84401957996E+03  0.12378678647E+04  0.00000000000E+00 0. -1.
<mgrwt>
<rscale>  0 0.33482654E+04</rscale>
<asrwt>0</asrwt>
<pdfrwt beam="1">  1        2 0.17412477E+00 0.33482654E+04</pdfrwt>
<pdfrwt beam="2">  1       -2 0.38097152E+00 0.33482654E+04</pdfrwt>
<totfact> 0.17087023E-01</totfact>
</mgrwt>
</event>
<event>
 6    1  0.1028026E-006  0.1889145E+04  0.7818608E-02  0.8660278E-01
         -2   -1    0    0    0  501 -0.00000000000E+00  0.00000000000E+00  0.70463811124E+03  0.70463811124E+03  0.00000000000E+00 0.  1.
          2   -1    0    0  501    0  0.00000000000E+00 -0.00000000000E+00 -0.12662066872E+04  0.12662066872E+04  0.00000000000E+00 0. -1.
         23    2    1    2    0    0 -0.35598518046E+03  0.75307450883E+03 -0.74127739238E+03  0.11187051835E+04  0.90346281956E+02 0.  0.
         11    1    3    3    0    0 -0.45018977526E+02  0.15997945713E+03 -0.17927448856E+03  0.24445751633E+03  0.00000000000E+00 0.  1.
        -11    1    3    3    0    0 -0.31096620293E+03  0.59309505170E+03 -0.56200290382E+03  0.87424766721E+03  0.00000000000E+00 0. -1.
         22    1    1    2    0    0  0.35598518046E+03 -0.75307450883E+03  0.17970881644E+03  0.85213961489E+03  0.00000000000E+00 0.  1.
<mgrwt>
<rscale>  0 0.18891453E+04</rscale>
<asrwt>0</asrwt>
<pdfrwt beam="1">  1        2 0.19480103E+00 0.18891453E+04</pdfrwt>
<pdfrwt beam="2">  1       -2 0.10840586E+00 0.18891453E+04</pdfrwt>
<totfact> 0.11041612E+01</totfact>
</mgrwt>
</event>
<event>
 6    1  0.1028026E-006  0.4279109E+04  0.7818608E-02  0.7950492E-01
          2   -1    0    0  501    0  0.00000000000E+00  0.00000000000E+00  0.23991992327E+04  0.23991992327E+04  0.00000000000E+00 0. -1.
         -2   -1    0    0    0  501 -0.00000000000E+00 -0.00000000000E+00 -0.19080088715E+04  0.19080088715E+04  0.00000000000E+00 0.  1.
         23    2    1    2    0    0 -0.16346456948E+04 -0.35398867532E+03  0.15872071522E+04  0.23075512997E+04  0.90509264560E+02 0.  0.
         13    1    3    3    0    0 -0.46376436263E+03 -0.59622945301E+02  0.43275396761E+03  0.63710931255E+03  0.00000000000E+00 0. -1.
        -13    1    3    3    0    0 -0.11708813322E+04 -0.29436573002E+03  0.11544531846E+04  0.16704419872E+04  0.00000000000E+00 0.  1.
         22    1    1    2    0    0  0.16346456948E+04  0.35398867532E+03 -0.10960167909E+04  0.19996568045E+04  0.00000000000E+00 0.  1.
<mgrwt>
<rscale>  0 0.42791090E+04</rscale>
<asrwt>0</asrwt>
<pdfrwt beam="1">  1        2 0.36910757E+00 0.42791090E+04</pdfrwt>
<pdfrwt beam="2">  1       -2 0.29353983E+00 0.42791090E+04</pdfrwt>
<totfact> 0.10686381E-01</totfact>
</mgrwt>
</event>
<event>
 6    1  0.1028026E-006  0.1181906E+04  0.7818608E-02  0.9128843E-01
          2   -1    0    0  501    0  0.00000000000E+00  0.00000000000E+00  0.12686325021E+04  0.12686325021E+04  0.00000000000E+00 0. -1.
         -2   -1    0    0    0  501 -0.00000000000E+00 -0.00000000000E+00 -0.27527703289E+03  0.27527703289E+03  0.00000000000E+00 0.  1.
         23    2    1    2    0    0  0.29770439437E+03 -0.49752920745E+03  0.37646983578E+03  0.69732161668E+03  0.91458630787E+02 0.  0.
         11    1    3    3    0    0  0.58176169308E+02 -0.76458156808E+02  0.10373700708E+03  0.14139194834E+03  0.00000000000E+00 0. -1.
        -11    1    3    3    0    0  0.23952822506E+03 -0.42107105064E+03  0.27273282870E+03  0.55592966834E+03  0.00000000000E+00 0.  1.
         22    1    1    2    0    0 -0.29770439437E+03  0.49752920745E+03  0.61688563339E+03  0.84658791828E+03  0.00000000000E+00 0. -1.
<mgrwt>
<rscale>  0 0.11819059E+04</rscale>
<asrwt>0</asrwt>
<pdfrwt beam="1">  1        2 0.19517423E+00 0.11819059E+04</pdfrwt>
<pdfrwt beam="2">  1       -2 0.42350313E-01 0.11819059E+04</pdfrwt>
<totfact> 0.89986919E+01</totfact>
</mgrwt>
</event>
<event>
 6    1  0.1028026E-006  0.1563000E+04  0.7818608E-02  0.8843606E-01
          2   -1    0    0  501    0  0.00000000000E+00  0.00000000000E+00  0.28892065221E+04  0.28892065221E+04  0.00000000000E+00 0. -1.
         -2   -1    0    0    0  501 -0.00000000000E+00 -0.00000000000E+00 -0.21138765872E+03  0.21138765872E+03  0.00000000000E+00 0.  1.
         23    2    1    2    0    0  0.38350210052E+03  0.67470860018E+03  0.12103557068E+04  0.14405478946E+04  0.88947982464E+02 0.  0.
         13    1    3    3    0    0  0.27577840586E+03  0.39794432977E+03  0.75402715506E+03  0.89608613944E+03  0.00000000000E+00 0.  1.
        -13    1    3    3    0    0  0.10772369466E+03  0.27676427041E+03  0.45632855171E+03  0.54446175520E+03  0.00000000000E+00 0. -1.
         22    1    1    2    0    0 -0.38350210052E+03 -0.67470860018E+03  0.14674631566E+04  0.16600462862E+04  0.00000000000E+00 0. -1.
<mgrwt>
<rscale>  0 0.15630005E+04</rscale>
<asrwt>0</asrwt>
<pdfrwt beam="1">  1        2 0.44449328E+00 0.15630005E+04</pdfrwt>
<pdfrwt beam="2">  1       -2 0.32521180E-01 0.15630005E+04</pdfrwt>
<totfact> 0.17377556E+01</totfact>
</mgrwt>
</event>
<event>
 6    1  0.1028026E-006  0.1604224E+04  0.7818608E-02  0.8817957E-01
         -1   -1    0    0    0  501 -0.00000000000E+00  0.00000000000E+00  0.39608307267E+03  0.39608307267E+03  0.00000000000E+00 0.  1.
          1   -1    0    0  501    0  0.00000000000E+00 -0.00000000000E+00 -0.16243660539E+04  0.16243660539E+04  0.00000000000E+00 0. -1.
         23    2    1    2    0    0  0.39419491093E+03  0.19187319784E+03 -0.14587008476E+04  0.15251741071E+04  0.78376924585E+02 0.  0.
         13    1    3    3    0    0  0.27603563552E+03  0.13201632884E+03 -0.88571866718E+03  0.93708139484E+03  0.00000000000E+00 0. -1.
        -13    1    3    3    0    0  0.11815927541E+03  0.59856869002E+02 -0.57298218039E+03  0.58809271223E+03  0.00000000000E+00 0.  1.
         22    1    1    2    0    0 -0.39419491093E+03 -0.19187319784E+03  0.23041786631E+03  0.49527501953E+03  0.00000000000E+00 0.  1.
<mgrwt>
<rscale>  0 0.16042243E+04</rscale>
<asrwt>0</asrwt>
<pdfrwt beam="1">  1        1 0.24990247E+00 0.16042243E+04</pdfrwt>
<pdfrwt beam="2">  1       -1 0.60935857E-01 0.16042243E+04</pdfrwt>
<totfact> 0.14066123E+01</totfact>
</mgrwt>
</event>
<event>
 6    1  0.1028026E-006  0.2534257E+04  0.7818608E-02  0.8390882E-01
          2   -1    0    0  501    0  0.00000000000E+00  0.00000000000E+00  0.34569627443E+04  0.34569627443E+04  0.00000000000E+00 0. -1.
         -2   -1    0    0    0  501 -0.00000000000E+00 -0.00000000000E+00 -0.46445804472E+03  0.46445804472E+03  0.00000000000E+00 0.  1.
         23    2    1    2    0    0 -0.30855957375E+03 -0.10145367638E+04  0.42944848267E+03  0.11476596193E+04  0.90569016543E+02 0.  0.
         11    1    3    3    0    0 -0.14173040376E+02 -0.15603161940E+03  0.60075737152E+02  0.16779700689E+03  0.00000000000E+00 0.  1.
        -11    1    3    3    0    0 -0.29438653338E+03 -0.85850514442E+03  0.36937274551E+03  0.97986261239E+03  0.00000000000E+00 0. -1.
         22    1    1    2    0    0  0.30855957375E+03  0.10145367638E+04  0.25630562169E+04  0.27737611697E+04  0.00000000000E+00 0. -1.
<mgrwt>
<rscale>  0 0.25342566E+04</rscale>
<asrwt>0</asrwt>
<pdfrwt beam="1">  1        2 0.53184041E+00 0.25342566E+04</pdfrwt>
<pdfrwt beam="2">  1       -2 0.71455086E-01 0.25342566E+04</pdfrwt>
<totfact> 0.13780129E+00</totfact>
</mgrwt>
</event>
<event>
 6    1  0.1028026E-006  0.4995916E+04  0.7818608E-02  0.7829138E-01
          1   -1    0    0  501    0  0.00000000000E+00  0.00000000000E+00  0.23967016088E+04  0.23967016088E+04  0.00000000000E+00 0. -1.
         -1   -1    0    0    0  501 -0.00000000000E+00 -0.00000000000E+00 -0.26034923242E+04  0.26034923242E+04  0.00000000000E+00 0.  1.
         23    2    1    2    0    0  0.21728008743E+04 -0.96458419467E+03  0.66136560565E+03  0.24693478876E+04  0.93745493862E+02 0.  0.
         11    1    3    3    0    0  0.33914267696E+03 -0.14571259582E+03  0.13799799853E+03  0.39407278962E+03  0.00000000000E+00 0. -1.
        -11    1    3    3    0    0  0.18336581973E+04 -0.81887159886E+03  0.52336760712E+03  0.20752750980E+04  0.00000000000E+00 0.  1.
         22    1    1    2    0    0 -0.21728008743E+04  0.96458419467E+03 -0.86815632104E+03  0.25308460454E+04  0.00000000000E+00 0.  1.
<mgrwt>
<rscale>  0 0.49959160E+04</rscale>
<asrwt>0</asrwt>
<pdfrwt beam="1">  1        1 0.36872333E+00 0.49959160E+04</pdfrwt>
<pdfrwt beam="2">  1       -1 0.40053728E+00 0.49959160E+04</pdfrwt>
<totfact> 0.81851006E-03</totfact>
</mgrwt>
</event>
<event>
 6    1  0.1028026E-006  0.1472504E+04  0.7818608E-02  0.8902946E-01
         -2   -1    0    0    0  501 -0.00000000000E+00  0.00000000000E+00  0.63458805129E+03  0.63458805129E+03  0.00000000000E+00 0.  1.
          2   -1    0    0  501    0  0.00000000000E+00 -0.00000000000E+00 -0.85420321949E+03  0.85420321949E+03  0.00000000000E+00 0. -1.
         23    2    1    2    0    0  0.65453697396E+02 -0.56425784980E+03  0.35909245066E+03  0.67788214165E+03  0.88914016254E+02 0.  0.
         11    1    3    3    0    0  0.67074196601E+02 -0.48205990849E+03  0.26970796127E+03  0.55643785600E+03  0.00000000000E+00 0.  1.
        -11    1    3    3    0    0 -0.16204992050E+01 -0.82197941316E+02  0.89384489387E+02  0.12144428565E+03  0.00000000000E+00 0. -1.
         22    1    1    2    0    0 -0.65453697396E+02  0.56425784980E+03 -0.57870761886E+03  0.81090912912E+03  0.00000000000E+00 0.  1.
<mgrwt>
<rscale>  0 0.14725042E+04</rscale>
<asrwt>0</asrwt>
<pdfrwt beam="1">  1        2 0.13141588E+00 0.14725042E+04</pdfrwt>
<pdfrwt beam="2">  1       -2 0.97628931E-01 0.14725042E+04</pdfrwt>
<totfact> 0.26687590E+01</totfact>
</mgrwt>
</event>
<event>
 6    1  0.1028026E-006  0.2741402E+04  0.7818608E-02  0.8321695E-01
          1   -1    0    0  501    0  0.00000000000E+00  0.00000000000E+00  0.19896979975E+04  0.19896979975E+04  0.00000000000E+00 0. -1.
         -1   -1    0    0    0  501 -0.00000000000E+00 -0.00000000000E+00 -0.94427461056E+03  0.94427461056E+03  0.00000000000E+00 0.  1.
         23    2    1    2    0    0  0.68784444046E+02  0.33349942567E+03  0.19426650711E+04  0.19742873438E+04  0.88936892492E+02 0.  0.
         13    1    3    3    0    0 -0.11131014342E+00  0.10485680909E+03  0.80731006318E+03  0.81409121167E+03  0.00000000000E+00 0.  1.
        -13    1    3    3    0    0  0.68895754189E+02  0.22864261658E+03  0.11353550079E+04  0.11601961321E+04  0.00000000000E+00 0. -1.
         22    1    1    2    0    0 -0.68784444046E+02 -0.33349942567E+03 -0.89724168414E+03  0.95968526425E+03  0.00000000000E+00 0.  1.
<mgrwt>
<rscale>  0 0.27414021E+04</rscale>
<asrwt>0</asrwt>
<pdfrwt beam="1">  1        1 0.30610738E+00 0.27414021E+04</pdfrwt>
<pdfrwt beam="2">  1       -1 0.14527302E+00 0.27414021E+04</pdfrwt>
<totfact> 0.10016064E+00</totfact>
</mgrwt>
</event>
<event>
 6    1  0.1028026E-006  0.4064568E+04  0.7818608E-02  0.7991646E-01
          1   -1    0    0  501    0  0.00000000000E+00  0.00000000000E+00  0.31479009944E+04  0.31479009944E+04  0.00000000000E+00 0. -1.
         -1   -1    0    0    0  501 -0.00000000000E+00 -0.00000000000E+00 -0.13120418102E+04  0.13120418102E+04  0.00000000000E+00 0.  1.
         23    2    1    2    0    0 -0.20372714991E+03 -0.16858507866E+04  0.21417259702E+04  0.27345002187E+04  0.83088436493E+02 0.  0.
         13    1    3    3    0    0 -0.11772972999E+03 -0.12281102741E+04  0.15204636342E+04  0.19580410612E+04  0.00000000000E+00 0. -1.
        -13    1    3    3    0    0 -0.85997419919E+02 -0.45774051257E+03  0.62126233599E+03  0.77645915746E+03  0.00000000000E+00 0.  1.
         22    1    1    2    0    0  0.20372714991E+03  0.16858507866E+04 -0.30586678598E+03  0.17254425859E+04  0.00000000000E+00 0.  1.
<mgrwt>
<rscale>  0 0.40645677E+04</rscale>
<asrwt>0</asrwt>
<pdfrwt beam="1">  1        1 0.48429246E+00 0.40645677E+04</pdfrwt>
<pdfrwt beam="2">  1       -1 0.20185259E+00 0.40645677E+04</pdfrwt>
<totfact> 0.52864727E-02</totfact>
</mgrwt>
</event>
<event>
 6    1  0.1028026E-006  0.2344205E+04  0.7818608E-02  0.8460693E-01
         -2   -1    0    0    0  501 -0.00000000000E+00  0.00000000000E+00  0.41614365798E+03  0.41614365798E+03  0.00000000000E+00 0.  1.
          2   -1    0    0  501    0  0.00000000000E+00 -0.00000000000E+00 -0.33013229557E+04  0.33013229557E+04  0.00000000000E+00 0. -1.
         23    2    1    2    0    0  0.41624065622E+03 -0.10911938470E+04 -0.13250093425E+04  0.17685975610E+04  0.91253927215E+02 0.  0.
         11    1    3    3    0    0  0.28714569909E+03 -0.73548708657E+03 -0.95816256599E+03  0.12415592656E+04  0.00000000000E+00 0.  1.
        -11    1    3    3    0    0  0.12909495712E+03 -0.35570676041E+03 -0.36684677655E+03  0.52703829540E+03  0.00000000000E+00 0. -1.
         22    1    1    2    0    0 -0.41624065622E+03  0.10911938470E+04 -0.15601699552E+04  0.19488690527E+04  0.00000000000E+00 0. -1.
<mgrwt>
<rscale>  0 0.23442053E+04</rscale>
<asrwt>0</asrwt>
<pdfrwt beam="1">  1        2 0.50789585E+00 0.23442053E+04</pdfrwt>
<pdfrwt beam="2">  1       -2 0.64022100E-01 0.23442053E+04</pdfrwt>
<totfact> 0.22683166E+00</totfact>
</mgrwt>
</event>
<event>
 6    1  0.1028026E-006  0.5931510E+03  0.7818608E-02  0.9919718E-01
         -1   -1    0    0    0  501 -0.00000000000E+00  0.00000000000E+00  0.43518302633E+03  0.43518302633E+03  0.00000000000E+00 0.  1.
          1   -1    0    0  501    0  0.00000000000E+00 -0.00000000000E+00 -0.20211504445E+03  0.20211504445E+03  0.00000000000E+00 0. -1.
         23    2    1    2    0    0  0.17441608190E+03 -0.17467359123E+03  0.28144556867E+03  0.38575836417E+03  0.93091752078E+02 0.  0.
         11    1    3    3    0    0  0.92845025021E+02 -0.62376150130E+02  0.67213167212E+02  0.13049364974E+03  0.00000000000E+00 0. -1.
        -11    1    3    3    0    0  0.81571056875E+02 -0.11229744110E+03  0.21423240146E+03  0.25526471443E+03  0.00000000000E+00 0.  1.
         22    1    1    2    0    0 -0.17441608190E+03  0.17467359123E+03 -0.48377586783E+02  0.25153970661E+03  0.00000000000E+00 0. -1.
<mgrwt>
<rscale>  0 0.59315103E+03</rscale>
<asrwt>0</asrwt>
<pdfrwt beam="1">  1        1 0.31094622E-01 0.59315103E+03</pdfrwt>
<pdfrwt beam="2">  1       -1 0.66951235E-01 0.59315103E+03</pdfrwt>
<totfact> 0.33639251E+02</totfact>
</mgrwt>
</event>
<event>
 6    1  0.1028026E-006  0.4189166E+04  0.7818608E-02  0.7967436E-01
         -1   -1    0    0    0  501 -0.00000000000E+00  0.00000000000E+00  0.25226921327E+04  0.25226921327E+04  0.00000000000E+00 0.  1.
          1   -1    0    0  501    0  0.00000000000E+00 -0.00000000000E+00 -0.17391255924E+04  0.17391255924E+04  0.00000000000E+00 0. -1.
         23    2    1    2    0    0  0.18441711608E+04  0.25136795955E+03  0.13676044398E+04  0.23111118557E+04  0.82115675810E+02 0.  0.
         13    1    3    3    0    0  0.98872788353E+03  0.14566594855E+03  0.78320196798E+03  0.12697270253E+04  0.00000000000E+00 0. -1.
        -13    1    3    3    0    0  0.85544327726E+03  0.10570201099E+03  0.58440247184E+03  0.10413848303E+04  0.00000000000E+00 0.  1.
         22    1    1    2    0    0 -0.18441711608E+04 -0.25136795955E+03 -0.58403789951E+03  0.19507058695E+04  0.00000000000E+00 0. -1.
<mgrwt>
<rscale>  0 0.41891662E+04</rscale>
<asrwt>0</asrwt>
<pdfrwt beam="1">  1        1 0.26755778E+00 0.41891662E+04</pdfrwt>
<pdfrwt beam="2">  1       -1 0.38810648E+00 0.41891662E+04</pdfrwt>
<totfact> 0.29764794E-02</totfact>
</mgrwt>
</event>
<event>
 6    1  0.1028026E-006  0.2624302E+04  0.7818608E-02  0.8359993E-01
         -1   -1    0    0    0  501 -0.00000000000E+00  0.00000000000E+00  0.44852086626E+03  0.44852086626E+03  0.00000000000E+00 0.  1.
          1   -1    0    0  501    0  0.00000000000E+00 -0.00000000000E+00 -0.38387078155E+04  0.38387078155E+04  0.00000000000E+00 0. -1.
         23    2    1    2    0    0 -0.11460167156E+04  0.48787334036E+03 -0.10311387043E+04  0.16195549141E+04  0.91303799526E+02 0.  0.
         13    1    3    3    0    0 -0.30643407491E+03  0.15443960951E+03 -0.32922500922E+03  0.47554446895E+03  0.00000000000E+00 0. -1.
        -13    1    3    3    0    0 -0.83958264064E+03  0.33343373085E+03 -0.70191369506E+03  0.11440104452E+04  0.00000000000E+00 0.  1.
         22    1    1    2    0    0  0.11460167156E+04 -0.48787334036E+03 -0.23590482450E+04  0.26676737677E+04  0.00000000000E+00 0.  1.
<mgrwt>
<rscale>  0 0.26243022E+04</rscale>
<asrwt>0</asrwt>
<pdfrwt beam="1">  1        1 0.59057046E+00 0.26243022E+04</pdfrwt>
<pdfrwt beam="2">  1       -1 0.69003207E-01 0.26243022E+04</pdfrwt>
<totfact> 0.24718114E-01</totfact>
</mgrwt>
</event>
<event>
 6    1  0.1028026E-006  0.5403273E+04  0.7818608E-02  0.7769141E-01
          2   -1    0    0  501    0  0.00000000000E+00  0.00000000000E+00  0.40189948795E+04  0.40189948795E+04  0.00000000000E+00 0. -1.
         -2   -1    0    0    0  501 -0.00000000000E+00 -0.00000000000E+00 -0.18160860771E+04  0.18160860771E+04  0.00000000000E+00 0.  1.
         23    2    1    2    0    0  0.19474472998E+04 -0.11437696105E+04 -0.49790927334E+03  0.23144023024E+04  0.88229618346E+02 0.  0.
         11    1    3    3    0    0  0.10312221308E+04 -0.55977497929E+03 -0.23860590087E+03  0.11973720752E+04  0.00000000000E+00 0. -1.
        -11    1    3    3    0    0  0.91622516904E+03 -0.58399463118E+03 -0.25930337248E+03  0.11170302273E+04  0.00000000000E+00 0.  1.
         22    1    1    2    0    0 -0.19474472998E+04  0.11437696105E+04  0.27008180757E+04  0.35206786541E+04  0.00000000000E+00 0. -1.
<mgrwt>
<rscale>  0 0.54032733E+04</rscale>
<asrwt>0</asrwt>
<pdfrwt beam="1">  1        2 0.61830690E+00 0.54032733E+04</pdfrwt>
<pdfrwt beam="2">  1       -2 0.27939786E+00 0.54032733E+04</pdfrwt>
<totfact> 0.98372975E-03</totfact>
</mgrwt>
</event>
<event>
 6    1  0.1028026E-006  0.1823340E+04  0.7818608E-02  0.8693985E-01
          1   -1    0    0  501    0  0.00000000000E+00  0.00000000000E+00  0.37136488479E+04  0.37136488479E+04  0.00000000000E+00 0. -1.
         -1   -1    0    0    0  501 -0.00000000000E+00 -0.00000000000E+00 -0.22380733181E+03  0.22380733181E+03  0.00000000000E+00 0.  1.
         23    2    1    2    0    0  0.50716406607E+03 -0.19481903263E+03  0.33240544842E+04  0.33694287285E+04  0.92422383071E+02 0.  0.
         13    1    3    3    0    0  0.21301242414E+03 -0.68122619429E+02  0.11074603469E+04  0.11298156505E+04  0.00000000000E+00 0. -1.
        -13    1    3    3    0    0  0.29415164193E+03 -0.12669641320E+03  0.22165941373E+04  0.22396130780E+04  0.00000000000E+00 0.  1.
         22    1    1    2    0    0 -0.50716406607E+03  0.19481903263E+03  0.16578703185E+03  0.56802745120E+03  0.00000000000E+00 0.  1.
<mgrwt>
<rscale>  0 0.18233396E+04</rscale>
<asrwt>0</asrwt>
<pdfrwt beam="1">  1        1 0.57133055E+00 0.18233396E+04</pdfrwt>
<pdfrwt beam="2">  1       -1 0.34431900E-01 0.18233396E+04</pdfrwt>
<totfact> 0.12755664E+00</totfact>
</mgrwt>
</event>
<event>
 6    1  0.1028026E-006  0.1704991E+04  0.7818608E-02  0.8758523E-01
         -1   -1    0    0    0  501 -0.00000000000E+00  0.00000000000E+00  0.25194778535E+03  0.25194778535E+03  0.00000000000E+00 0.  1.
          1   -1    0    0  501    0  0.00000000000E+00 -0.00000000000E+00 -0.28845220309E+04  0.28845220309E+04  0.00000000000E+00 0. -1.
         23    2    1    2    0    0 -0.77929497172E+03  0.33651626485E+03 -0.14033565909E+04  0.16426425532E+04  0.91219442901E+02 0.  0.
         11    1    3    3    0    0 -0.44253744994E+03  0.22426716284E+03 -0.75363642951E+03  0.90227657778E+03  0.00000000000E+00 0. -1.
        -11    1    3    3    0    0 -0.33675752179E+03  0.11224910202E+03 -0.64972016143E+03  0.74036597542E+03  0.00000000000E+00 0.  1.
         22    1    1    2    0    0  0.77929497172E+03 -0.33651626485E+03 -0.12292176546E+04  0.14938272631E+04  0.00000000000E+00 0. -1.
<mgrwt>
<rscale>  0 0.17049914E+04</rscale>
<asrwt>0</asrwt>
<pdfrwt beam="1">  1        1 0.44377260E+00 0.17049914E+04</pdfrwt>
<pdfrwt beam="2">  1       -1 0.38761200E-01 0.17049914E+04</pdfrwt>
<totfact> 0.44629611E+00</totfact>
</mgrwt>
</event>
<event>
 6    1  0.1028026E-006  0.1749098E+04  0.7818608E-02  0.8733847E-01
          1   -1    0    0  501    0  0.00000000000E+00  0.00000000000E+00  0.30316025089E+03  0.30316025089E+03  0.00000000000E+00 0. -1.
         -1   -1    0    0    0  501 -0.00000000000E+00 -0.00000000000E+00 -0.25228780871E+04  0.25228780871E+04  0.00000000000E+00 0.  1.
         23    2    1    2    0    0 -0.73106502553E+03  0.16843630444E+03 -0.18315047694E+04  0.19813275913E+04  0.91773873032E+02 0.  0.
         13    1    3    3    0    0 -0.62940192033E+03  0.11861480712E+03 -0.14997555995E+04  0.16307921719E+04  0.00000000000E+00 0. -1.
        -13    1    3    3    0    0 -0.10166310520E+03  0.49821497327E+02 -0.33174916985E+03  0.35053541940E+03  0.00000000000E+00 0.  1.
         22    1    1    2    0    0  0.73106502553E+03 -0.16843630444E+03 -0.38821306680E+03  0.84471074662E+03  0.00000000000E+00 0. -1.
<mgrwt>
<rscale>  0 0.17490985E+04</rscale>
<asrwt>0</asrwt>
<pdfrwt beam="1">  1        1 0.46640039E-01 0.17490985E+04</pdfrwt>
<pdfrwt beam="2">  1       -1 0.38813509E+00 0.17490985E+04</pdfrwt>
<totfact> 0.70880413E-01</totfact>
</mgrwt>
</event>
<event>
 6    1  0.1028026E-006  0.4082441E+04  0.7818608E-02  0.7988119E-01
          2   -1    0    0  501    0  0.00000000000E+00  0.00000000000E+00  0.37576651528E+04  0.37576651528E+04  0.00000000000E+00 0. -1.
         -2   -1    0    0    0  501 -0.00000000000E+00 -0.00000000000E+00 -0.11088216241E+04  0.11088216241E+04  0.00000000000E+00 0.  1.
         23    2    1    2    0    0  0.87839805373E+03  0.23303868084E+03 -0.85233318653E+03  0.12492877834E+04  0.91421754611E+02 0.  0.
         11    1    3    3    0    0  0.35976238530E+03  0.14000452855E+03 -0.37903808659E+03  0.54101766420E+03  0.00000000000E+00 0. -1.
        -11    1    3    3    0    0  0.51863566843E+03  0.93034152290E+02 -0.47329509995E+03  0.70827011916E+03  0.00000000000E+00 0.  1.
         22    1    1    2    0    0 -0.87839805373E+03 -0.23303868084E+03  0.35011767153E+04  0.36171989936E+04  0.00000000000E+00 0. -1.
<mgrwt>
<rscale>  0 0.40824406E+04</rscale>
<asrwt>0</asrwt>
<pdfrwt beam="1">  1        2 0.57810232E+00 0.40824406E+04</pdfrwt>
<pdfrwt beam="2">  1       -2 0.17058794E+00 0.40824406E+04</pdfrwt>
<totfact> 0.87219971E-02</totfact>
</mgrwt>
</event>
<event>
 6    1  0.1028026E-006  0.2490566E+04  0.7818608E-02  0.8406354E-01
          2   -1    0    0  501    0  0.00000000000E+00  0.00000000000E+00  0.13249880046E+04  0.13249880046E+04  0.00000000000E+00 0. -1.
         -2   -1    0    0    0  501 -0.00000000000E+00 -0.00000000000E+00 -0.11703729207E+04  0.11703729207E+04  0.00000000000E+00 0.  1.
         23    2    1    2    0    0  0.61125618882E+03  0.62608672002E+03 -0.80824788107E+03  0.11943137322E+04  0.86613765229E+02 0.  0.
         13    1    3    3    0    0  0.28925357701E+03  0.28530122866E+03 -0.43324567531E+03  0.59394127493E+03  0.00000000000E+00 0. -1.
        -13    1    3    3    0    0  0.32200261181E+03  0.34078549136E+03 -0.37500220576E+03  0.60037245728E+03  0.00000000000E+00 0.  1.
         22    1    1    2    0    0 -0.61125618882E+03 -0.62608672002E+03  0.96286296501E+03  0.13010471931E+04  0.00000000000E+00 0.  1.
<mgrwt>
<rscale>  0 0.24905663E+04</rscale>
<asrwt>0</asrwt>
<pdfrwt beam="1">  1        2 0.20384431E+00 0.24905663E+04</pdfrwt>
<pdfrwt beam="2">  1       -2 0.18005737E+00 0.24905663E+04</pdfrwt>
<totfact> 0.25852461E+00</totfact>
</mgrwt>
</event>
<event>
 6    1  0.1028026E-006  0.3151263E+04  0.7818608E-02  0.8201808E-01
         -2   -1    0    0    0  501 -0.00000000000E+00  0.00000000000E+00  0.67427190720E+03  0.67427190720E+03  0.00000000000E+00 0.  1.
          2   -1    0    0  501    0  0.00000000000E+00 -0.00000000000E+00 -0.36819187039E+04  0.36819187039E+04  0.00000000000E+00 0. -1.
         23    2    1    2    0    0 -0.15212517903E+04 -0.39060223815E+03 -0.13562938418E+04  0.20772119584E+04  0.92192281631E+02 0.  0.
         11    1    3    3    0    0 -0.13310585157E+04 -0.31287533657E+03 -0.11964900233E+04  0.18169194050E+04  0.00000000000E+00 0.  1.
        -11    1    3    3    0    0 -0.19019327462E+03 -0.77726901578E+02 -0.15980381852E+03  0.26029255340E+03  0.00000000000E+00 0. -1.
         22    1    1    2    0    0  0.15212517903E+04  0.39060223815E+03 -0.16513529549E+04  0.22789786527E+04  0.00000000000E+00 0. -1.
<mgrwt>
<rscale>  0 0.31512628E+04</rscale>
<asrwt>0</asrwt>
<pdfrwt beam="1">  1        2 0.56644903E+00 0.31512628E+04</pdfrwt>
<pdfrwt beam="2">  1       -2 0.10373414E+00 0.31512628E+04</pdfrwt>
<totfact> 0.38461196E-01</totfact>
</mgrwt>
</event>
<event>
 6    1  0.1028026E-006  0.4541765E+04  0.7818608E-02  0.7903365E-01
         -2   -1    0    0    0  501 -0.00000000000E+00  0.00000000000E+00  0.18205366718E+04  0.18205366718E+04  0.00000000000E+00 0.  1.
          2   -1    0    0  501    0  0.00000000000E+00 -0.00000000000E+00 -0.28326308144E+04  0.28326308144E+04  0.00000000000E+00 0. -1.
         23    2    1    2    0    0 -0.15058726692E+04 -0.10842721062E+02 -0.22464294003E+04  0.27060276379E+04  0.91490250824E+02 0.  0.
         13    1    3    3    0    0 -0.13738483334E+04 -0.61712717157E+01 -0.20921474226E+04  0.25029139349E+04  0.00000000000E+00 0. -1.
        -13    1    3    3    0    0 -0.13202433581E+03 -0.46714493467E+01 -0.15428197771E+03  0.20311370296E+03  0.00000000000E+00 0.  1.
         22    1    1    2    0    0  0.15058726692E+04  0.10842721062E+02  0.12343352577E+04  0.19471398483E+04  0.00000000000E+00 0.  1.
<mgrwt>
<rscale>  0 0.45417654E+04</rscale>
<asrwt>0</asrwt>
<pdfrwt beam="1">  1        2 0.43578936E+00 0.45417654E+04</pdfrwt>
<pdfrwt beam="2">  1       -2 0.28008257E+00 0.45417654E+04</pdfrwt>
<totfact> 0.70159097E-02</totfact>
</mgrwt>
</event>
<event>
 6    1  0.1028026E-006  0.4717008E+04  0.7818608E-02  0.7873709E-01
          2   -1    0    0  501    0  0.00000000000E+00  0.00000000000E+00  0.26658429324E+04  0.26658429324E+04  0.00000000000E+00 0. -1.
         -2   -1    0    0    0  501 -0.00000000000E+00 -0.00000000000E+00 -0.20865972319E+04  0.20865972319E+04  0.00000000000E+00 0.  1.
         23    2    1    2    0    0  0.14035776548E+04  0.18648397700E+04  0.62491654798E+03  0.24179716107E+04  0.91697422977E+02 0.  0.
         11    1    3    3    0    0  0.92774067215E+03  0.11944265877E+04  0.44334879670E+03  0.15760443470E+04  0.00000000000E+00 0. -1.
        -11    1    3    3    0    0  0.47583698265E+03  0.67041318233E+03  0.18156775128E+03  0.84192726372E+03  0.00000000000E+00 0.  1.
         22    1    1    2    0    0 -0.14035776548E+04 -0.18648397700E+04 -0.45670847474E+02  0.23344685535E+04  0.00000000000E+00 0.  1.
<mgrwt>
<rscale>  0 0.47170077E+04</rscale>
<asrwt>0</asrwt>
<pdfrwt beam="1">  1        2 0.41012968E+00 0.47170077E+04</pdfrwt>
<pdfrwt beam="2">  1       -2 0.32101496E+00 0.47170077E+04</pdfrwt>
<totfact> 0.48893574E-02</totfact>
</mgrwt>
</event>
<event>
 6    1  0.1028026E-006  0.2869975E+04  0.7818608E-02  0.8281867E-01
         -2   -1    0    0    0  501 -0.00000000000E+00  0.00000000000E+00  0.92517602729E+03  0.92517602729E+03  0.00000000000E+00 0.  1.
          2   -1    0    0  501    0  0.00000000000E+00 -0.00000000000E+00 -0.22257266178E+04  0.22257266178E+04  0.00000000000E+00 0. -1.
         23    2    1    2    0    0  0.24828299391E+03 -0.10415334929E+04  0.39559799186E+03  0.11450720253E+04  0.90860937167E+02 0.  0.
         13    1    3    3    0    0  0.12037141964E+02 -0.13508165729E+03  0.26140267457E+02  0.13811321626E+03  0.00000000000E+00 0.  1.
        -13    1    3    3    0    0  0.23624585194E+03 -0.90645183565E+03  0.36945772440E+03  0.10069588090E+04  0.00000000000E+00 0. -1.
         22    1    1    2    0    0 -0.24828299391E+03  0.10415334929E+04 -0.16961485824E+04  0.20058306198E+04  0.00000000000E+00 0. -1.
<mgrwt>
<rscale>  0 0.28699749E+04</rscale>
<asrwt>0</asrwt>
<pdfrwt beam="1">  1        2 0.34241948E+00 0.28699749E+04</pdfrwt>
<pdfrwt beam="2">  1       -2 0.14233477E+00 0.28699749E+04</pdfrwt>
<totfact> 0.14863509E+00</totfact>
</mgrwt>
</event>
<event>
 6    1  0.1028026E-006  0.1202542E+04  0.7818608E-02  0.9110634E-01
          2   -1    0    0  501    0  0.00000000000E+00  0.00000000000E+00  0.11553053105E+04  0.11553053105E+04  0.00000000000E+00 0. -1.
         -2   -1    0    0    0  501 -0.00000000000E+00 -0.00000000000E+00 -0.31292776293E+03  0.31292776293E+03  0.00000000000E+00 0.  1.
         23    2    1    2    0    0 -0.33077887867E+03  0.84920563462E+02  0.10226989341E+04  0.10820440380E+04  0.90994623562E+02 0.  0.
         13    1    3    3    0    0 -0.16900986732E+03  0.36037213081E+02  0.65425953306E+03  0.67669679515E+03  0.00000000000E+00 0.  1.
        -13    1    3    3    0    0 -0.16176901135E+03  0.48883350382E+02  0.36843940109E+03  0.40534724280E+03  0.00000000000E+00 0. -1.
         22    1    1    2    0    0  0.33077887867E+03 -0.84920563462E+02 -0.18032138657E+03  0.38618903548E+03  0.00000000000E+00 0.  1.
<mgrwt>
<rscale>  0 0.12025425E+04</rscale>
<asrwt>0</asrwt>
<pdfrwt beam="1">  1        2 0.17773928E+00 0.12025425E+04</pdfrwt>
<pdfrwt beam="2">  1       -2 0.48142733E-01 0.12025425E+04</pdfrwt>
<totfact> 0.81238738E+01</totfact>
</mgrwt>
</event>
<event>
 6    1  0.1028026E-006  0.2177075E+04  0.7818608E-02  0.8528031E-01
          2   -1    0    0  501    0  0.00000000000E+00  0.00000000000E+00  0.62104910292E+03  0.62104910292E+03  0.00000000000E+00 0. -1.
         -2   -1    0    0    0  501 -0.00000000000E+00 -0.00000000000E+00 -0.19079235730E+04  0.19079235730E+04  0.00000000000E+00 0.  1.
         23    2    1    2    0    0  0.82313332841E+03  0.56380902805E+03 -0.14461587989E+03  0.10123369968E+04  0.92105080429E+02 0.  0.
         13    1    3    3    0    0  0.58456767928E+03  0.44586741535E+03 -0.12197431391E+03  0.74524818483E+03  0.00000000000E+00 0. -1.
        -13    1    3    3    0    0  0.23856564913E+03  0.11794161270E+03 -0.22641565985E+02  0.26708881194E+03  0.00000000000E+00 0.  1.
         22    1    1    2    0    0 -0.82313332841E+03 -0.56380902805E+03 -0.11422585902E+04  0.15166356792E+04  0.00000000000E+00 0.  1.
<mgrwt>
<rscale>  0 0.21770753E+04</rscale>
<asrwt>0</asrwt>
<pdfrwt beam="1">  1        2 0.95546016E-01 0.21770753E+04</pdfrwt>
<pdfrwt beam="2">  1       -2 0.29352670E+00 0.21770753E+04</pdfrwt>
<totfact> 0.15170829E+00</totfact>
</mgrwt>
</event>
<event>
 6    1  0.1028026E-006  0.2330365E+04  0.7818608E-02  0.8466044E-01
         -2   -1    0    0    0  501 -0.00000000000E+00  0.00000000000E+00  0.14527051358E+04  0.14527051358E+04  0.00000000000E+00 0.  1.
          2   -1    0    0  501    0  0.00000000000E+00 -0.00000000000E+00 -0.93456718975E+03  0.93456718975E+03  0.00000000000E+00 0. -1.
         23    2    1    2    0    0 -0.11325552621E+04  0.75436460411E+02  0.52063893458E+03  0.12522047785E+04  0.92627349270E+02 0.  0.
         13    1    3    3    0    0 -0.53558901484E+03  0.82026515638E+02  0.24670290479E+03  0.59535389922E+03  0.00000000000E+00 0. -1.
        -13    1    3    3    0    0 -0.59696624730E+03 -0.65900552275E+01  0.27393602979E+03  0.65685087932E+03  0.00000000000E+00 0.  1.
         22    1    1    2    0    0  0.11325552621E+04 -0.75436460411E+02 -0.25009885154E+01  0.11350675470E+04  0.00000000000E+00 0. -1.
<mgrwt>
<rscale>  0 0.23303653E+04</rscale>
<asrwt>0</asrwt>
<pdfrwt beam="1">  1        2 0.14377957E+00 0.23303653E+04</pdfrwt>
<pdfrwt beam="2">  1       -2 0.22349310E+00 0.23303653E+04</pdfrwt>
<totfact> 0.23607408E+00</totfact>
</mgrwt>
</event>
<event>
 6    1  0.1028026E-006  0.3186208E+04  0.7818608E-02  0.8192469E-01
         -1   -1    0    0    0  501 -0.00000000000E+00  0.00000000000E+00  0.90213022198E+03  0.90213022198E+03  0.00000000000E+00 0.  1.
          1   -1    0    0  501    0  0.00000000000E+00 -0.00000000000E+00 -0.28133184785E+04  0.28133184785E+04  0.00000000000E+00 0. -1.
         23    2    1    2    0    0  0.34145662784E+03 -0.15236044718E+04 -0.13162674515E+04  0.20445525399E+04  0.98345662284E+02 0.  0.
         11    1    3    3    0    0  0.73680850931E+02 -0.49692375606E+03 -0.45923148617E+03  0.68062885997E+03  0.00000000000E+00 0. -1.
        -11    1    3    3    0    0  0.26777577691E+03 -0.10266807157E+04 -0.85703596532E+03  0.13639236799E+04  0.00000000000E+00 0.  1.
         22    1    1    2    0    0 -0.34145662784E+03  0.15236044718E+04 -0.59492080500E+03  0.16708961606E+04  0.00000000000E+00 0.  1.
<mgrwt>
<rscale>  0 0.31862075E+04</rscale>
<asrwt>0</asrwt>
<pdfrwt beam="1">  1        1 0.43281822E+00 0.31862075E+04</pdfrwt>
<pdfrwt beam="2">  1       -1 0.13878927E+00 0.31862075E+04</pdfrwt>
<totfact> 0.29265752E-01</totfact>
</mgrwt>
</event>
<event>
 6    1  0.1028026E-006  0.3615372E+04  0.7818608E-02  0.8086980E-01
         -2   -1    0    0    0  501 -0.00000000000E+00  0.00000000000E+00  0.13342717653E+04  0.13342717653E+04  0.00000000000E+00 0.  1.
          2   -1    0    0  501    0  0.00000000000E+00 -0.00000000000E+00 -0.24490733061E+04  0.24490733061E+04  0.00000000000E+00 0. -1.
         23    2    1    2    0    0  0.16954927489E+03 -0.13642998189E+04 -0.17841945766E+04  0.22542446859E+04  0.90597264283E+02 0.  0.
         11    1    3    3    0    0  0.62408188191E+02 -0.84160334622E+03 -0.10701469898E+04  0.13628666678E+04  0.00000000000E+00 0.  1.
        -11    1    3    3    0    0  0.10714108670E+03 -0.52269647267E+03 -0.71404758680E+03  0.89137801814E+03  0.00000000000E+00 0. -1.
         22    1    1    2    0    0 -0.16954927489E+03  0.13642998189E+04  0.66939303576E+03  0.15291003854E+04  0.00000000000E+00 0.  1.
<mgrwt>
<rscale>  0 0.36153724E+04</rscale>
<asrwt>0</asrwt>
<pdfrwt beam="1">  1        2 0.37678051E+00 0.36153724E+04</pdfrwt>
<pdfrwt beam="2">  1       -2 0.20527258E+00 0.36153724E+04</pdfrwt>
<totfact> 0.37254794E-01</totfact>
</mgrwt>
</event>
<event>
 6    1  0.1028026E-006  0.1684535E+04  0.7818608E-02  0.8770234E-01
         -2   -1    0    0    0  501 -0.00000000000E+00  0.00000000000E+00  0.35987167017E+03  0.35987167017E+03  0.00000000000E+00 0.  1.
          2   -1    0    0  501    0  0.00000000000E+00 -0.00000000000E+00 -0.19712978907E+04  0.19712978907E+04  0.00000000000E+00 0. -1.
         23    2    1    2    0    0 -0.63616333213E+03 -0.21411445405E+03 -0.15070867948E+04  0.16518791220E+04  0.82735978289E+02 0.  0.
         13    1    3    3    0    0 -0.52220575165E+03 -0.20264149688E+03 -0.12057301502E+04  0.13294914886E+04  0.00000000000E+00 0. -1.
        -13    1    3    3    0    0 -0.11395758048E+03 -0.11472957174E+02 -0.30135664466E+03  0.32238763341E+03  0.00000000000E+00 0.  1.
         22    1    1    2    0    0  0.63616333213E+03  0.21411445405E+03 -0.10433942574E+03  0.67929043887E+03  0.00000000000E+00 0.  1.
<mgrwt>
<rscale>  0 0.16845347E+04</rscale>
<asrwt>0</asrwt>
<pdfrwt beam="1">  1        2 0.30327660E+00 0.16845347E+04</pdfrwt>
<pdfrwt beam="2">  1       -2 0.55364872E-01 0.16845347E+04</pdfrwt>
<totfact> 0.20251162E+01</totfact>
</mgrwt>
</event>
<event>
 6    1  0.1028026E-006  0.9397709E+03  0.7818608E-02  0.9377187E-01
         -2   -1    0    0    0  501 -0.00000000000E+00  0.00000000000E+00  0.10777740422E+03  0.10777740422E+03  0.00000000000E+00 0.  1.
          2   -1    0    0  501    0  0.00000000000E+00 -0.00000000000E+00 -0.20485955793E+04  0.20485955793E+04  0.00000000000E+00 0. -1.
         23    2    1    2    0    0 -0.23546169790E+03 -0.15049863813E+03 -0.18336039078E+04  0.18570621912E+04  0.92112106572E+02 0.  0.
         11    1    3    3    0    0 -0.16688428692E+03 -0.13039892729E+03 -0.11167501307E+04  0.11366552247E+04  0.00000000000E+00 0.  1.
        -11    1    3    3    0    0 -0.68577410989E+02 -0.20099710845E+02 -0.71685377712E+03  0.72040696654E+03  0.00000000000E+00 0. -1.
         22    1    1    2    0    0  0.23546169790E+03  0.15049863813E+03 -0.10721426728E+03  0.29931079227E+03  0.00000000000E+00 0.  1.
<mgrwt>
<rscale>  0 0.93977085E+03</rscale>
<asrwt>0</asrwt>
<pdfrwt beam="1">  1        2 0.31516854E+00 0.93977085E+03</pdfrwt>
<pdfrwt beam="2">  1       -2 0.16581140E-01 0.93977085E+03</pdfrwt>
<totfact> 0.18717167E+02</totfact>
</mgrwt>
</event>
<event>
 6    1  0.1028026E-006  0.1642712E+04  0.7818608E-02  0.8794730E-01
          2   -1    0    0  501    0  0.00000000000E+00  0.00000000000E+00  0.11423956146E+04  0.11423956146E+04  0.00000000000E+00 0. -1.
         -2   -1    0    0    0  501 -0.00000000000E+00 -0.00000000000E+00 -0.59053579962E+03  0.59053579962E+03  0.00000000000E+00 0.  1.
         23    2    1    2    0    0  0.41686858951E+03  0.30220905213E+03 -0.39087234515E+03  0.65875561025E+03  0.12675974012E+03 0.  0.
         13    1    3    3    0    0  0.36602444854E+03  0.20255699980E+03 -0.31223582461E+03  0.52201000495E+03  0.00000000000E+00 0.  1.
        -13    1    3    3    0    0  0.50844140970E+02  0.99652052331E+02 -0.78636520542E+02  0.13674560530E+03  0.00000000000E+00 0. -1.
         22    1    1    2    0    0 -0.41686858951E+03 -0.30220905213E+03  0.94273216014E+03  0.10741758040E+04  0.00000000000E+00 0. -1.
<mgrwt>
<rscale>  0 0.16427118E+04</rscale>
<asrwt>0</asrwt>
<pdfrwt beam="1">  1        2 0.17575317E+00 0.16427118E+04</pdfrwt>
<pdfrwt beam="2">  1       -2 0.90851661E-01 0.16427118E+04</pdfrwt>
<totfact> 0.20284064E+01</totfact>
</mgrwt>
</event>
<event>
 6    1  0.1169371E-006  0.3400509E+04  0.7818608E-02  0.8137781E-01
          1   -1    0    0  501    0  0.00000000000E+00  0.00000000000E+00  0.12732350339E+04  0.12732350339E+04  0.00000000000E+00 0. -1.
         -1   -1    0    0    0  501 -0.00000000000E+00 -0.00000000000E+00 -0.22704886356E+04  0.22704886356E+04  0.00000000000E+00 0.  1.
         23    2    1    2    0    0 -0.72678267861E+03 -0.16109627147E+03 -0.20905444877E+04  0.22210558987E+04  0.92455284543E+02 0.  0.
         13    1    3    3    0    0 -0.46213968992E+03 -0.12581418207E+03 -0.12264517524E+04  0.13166572077E+04  0.00000000000E+00 0. -1.
        -13    1    3    3    0    0 -0.26464298868E+03 -0.35282089394E+02 -0.86409273522E+03  0.90439869103E+03  0.00000000000E+00 0.  1.
         22    1    1    2    0    0  0.72678267861E+03  0.16109627147E+03  0.10932908860E+04  0.13226677708E+04  0.00000000000E+00 0. -1.
<mgrwt>
<rscale>  0 0.34005092E+04</rscale>
<asrwt>0</asrwt>
<pdfrwt beam="1">  1        1 0.19588231E+00 0.34005092E+04</pdfrwt>
<pdfrwt beam="2">  1       -1 0.34930594E+00 0.34005092E+04</pdfrwt>
<totfact> 0.12208590E-01</totfact>
</mgrwt>
</event>
<event>
 6    1  0.1028026E-006  0.1132750E+04  0.7818608E-02  0.9173847E-01
         -2   -1    0    0    0  501 -0.00000000000E+00  0.00000000000E+00  0.17521445412E+03  0.17521445412E+03  0.00000000000E+00 0.  1.
          2   -1    0    0  501    0  0.00000000000E+00 -0.00000000000E+00 -0.18307886193E+04  0.18307886193E+04  0.00000000000E+00 0. -1.
         23    2    1    2    0    0 -0.46162862549E+03 -0.14431027004E+03 -0.13420710159E+04  0.14296258822E+04  0.93536675066E+02 0.  0.
         13    1    3    3    0    0 -0.24324275639E+03 -0.12470266948E+03 -0.74949632330E+03  0.79778601952E+03  0.00000000000E+00 0. -1.
        -13    1    3    3    0    0 -0.21838586911E+03 -0.19607600561E+02 -0.59257469259E+03  0.63183986272E+03  0.00000000000E+00 0.  1.
         22    1    1    2    0    0  0.46162862549E+03  0.14431027004E+03 -0.31350314932E+03  0.57637719121E+03  0.00000000000E+00 0.  1.
<mgrwt>
<rscale>  0 0.11327500E+04</rscale>
<asrwt>0</asrwt>
<pdfrwt beam="1">  1        2 0.28165979E+00 0.11327500E+04</pdfrwt>
<pdfrwt beam="2">  1       -2 0.26956069E-01 0.11327500E+04</pdfrwt>
<totfact> 0.10283781E+02</totfact>
</mgrwt>
</event>
<event>
 6    1  0.1028026E-006  0.2347354E+04  0.7818608E-02  0.8459481E-01
         -1   -1    0    0    0  501 -0.00000000000E+00  0.00000000000E+00  0.21882576350E+04  0.21882576350E+04  0.00000000000E+00 0.  1.
          1   -1    0    0  501    0  0.00000000000E+00 -0.00000000000E+00 -0.62950453551E+03  0.62950453551E+03  0.00000000000E+00 0. -1.
         23    2    1    2    0    0  0.34093054595E+03  0.70892552350E+03 -0.26227104499E+03  0.83409436318E+03  0.90101446202E+02 0.  0.
         13    1    3    3    0    0  0.45553570360E+02  0.18246038854E+03 -0.57935344327E+02  0.19678268542E+03  0.00000000000E+00 0. -1.
        -13    1    3    3    0    0  0.29537697559E+03  0.52646513496E+03 -0.20433570067E+03  0.63731167776E+03  0.00000000000E+00 0.  1.
         22    1    1    2    0    0 -0.34093054595E+03 -0.70892552350E+03  0.18210241444E+04  0.19836678073E+04  0.00000000000E+00 0.  1.
<mgrwt>
<rscale>  0 0.23473543E+04</rscale>
<asrwt>0</asrwt>
<pdfrwt beam="1">  1        1 0.96846853E-01 0.23473543E+04</pdfrwt>
<pdfrwt beam="2">  1       -1 0.33665502E+00 0.23473543E+04</pdfrwt>
<totfact> 0.54745735E-01</totfact>
</mgrwt>
</event>
<event>
 6    1  0.1028026E-006  0.1169651E+04  0.7818608E-02  0.9139843E-01
         -2   -1    0    0    0  501 -0.00000000000E+00  0.00000000000E+00  0.40047769654E+03  0.40047769654E+03  0.00000000000E+00 0.  1.
          2   -1    0    0  501    0  0.00000000000E+00 -0.00000000000E+00 -0.85403287913E+03  0.85403287913E+03  0.00000000000E+00 0. -1.
         23    2    1    2    0    0 -0.54275578239E+03 -0.17938706959E+03 -0.34128387269E+03  0.67195722439E+03  0.91039934106E+02 0.  0.
         13    1    3    3    0    0 -0.22553512275E+03 -0.98082347138E+02 -0.10140601591E+03  0.26602522150E+03  0.00000000000E+00 0. -1.
        -13    1    3    3    0    0 -0.31722065964E+03 -0.81304722452E+02 -0.23987785678E+03  0.40593200289E+03  0.00000000000E+00 0.  1.
         22    1    1    2    0    0  0.54275578239E+03  0.17938706959E+03 -0.11227130990E+03  0.58255335127E+03  0.00000000000E+00 0.  1.
<mgrwt>
<rscale>  0 0.11696514E+04</rscale>
<asrwt>0</asrwt>
<pdfrwt beam="1">  1        2 0.13138967E+00 0.11696514E+04</pdfrwt>
<pdfrwt beam="2">  1       -2 0.61611953E-01 0.11696514E+04</pdfrwt>
<totfact> 0.76347806E+01</totfact>
</mgrwt>
</event>
<event>
 6    1  0.1028026E-006  0.1556912E+04  0.7818608E-02  0.8847465E-01
          1   -1    0    0  501    0  0.00000000000E+00  0.00000000000E+00  0.48154952573E+03  0.48154952573E+03  0.00000000000E+00 0. -1.
         -1   -1    0    0    0  501 -0.00000000000E+00 -0.00000000000E+00 -0.12584246402E+04  0.12584246402E+04  0.00000000000E+00 0.  1.
         23    2    1    2    0    0 -0.56237632444E+03 -0.14888753262E+03 -0.96335987066E+03  0.11290640318E+04  0.91042406964E+02 0.  0.
         13    1    3    3    0    0 -0.35569589536E+03 -0.84764056850E+02 -0.68498288998E+03  0.77647026657E+03  0.00000000000E+00 0. -1.
        -13    1    3    3    0    0 -0.20668042908E+03 -0.64123475767E+02 -0.27837698068E+03  0.35259376523E+03  0.00000000000E+00 0.  1.
         22    1    1    2    0    0  0.56237632444E+03  0.14888753262E+03  0.18648475620E+03  0.61091013411E+03  0.00000000000E+00 0. -1.
<mgrwt>
<rscale>  0 0.15569121E+04</rscale>
<asrwt>0</asrwt>
<pdfrwt beam="1">  1        1 0.74084543E-01 0.15569121E+04</pdfrwt>
<pdfrwt beam="2">  1       -1 0.19360379E+00 0.15569121E+04</pdfrwt>
<totfact> 0.74923479E+00</totfact>
</mgrwt>
</event>
<event>
 6    1  0.1274233E-006  0.2296723E+04  0.7818608E-02  0.8479214E-01
          2   -1    0    0  501    0  0.00000000000E+00  0.00000000000E+00  0.12707647104E+04  0.12707647104E+04  0.00000000000E+00 0. -1.
         -2   -1    0    0    0  501 -0.00000000000E+00 -0.00000000000E+00 -0.10377482910E+04  0.10377482910E+04  0.00000000000E+00 0.  1.
         23    2    1    2    0    0 -0.15860609661E+03  0.54383552512E+03  0.11186517377E+04  0.12571981631E+04  0.90843485385E+02 0.  0.
         11    1    3    3    0    0 -0.41828820663E+02  0.29056067354E+03  0.53173418762E+03  0.60738488748E+03  0.00000000000E+00 0. -1.
        -11    1    3    3    0    0 -0.11677727594E+03  0.25327485158E+03  0.58691755009E+03  0.64981327566E+03  0.00000000000E+00 0.  1.
         22    1    1    2    0    0  0.15860609661E+03 -0.54383552512E+03 -0.88563531830E+03  0.10513148383E+04  0.00000000000E+00 0.  1.
<mgrwt>
<rscale>  0 0.22967228E+04</rscale>
<asrwt>0</asrwt>
<pdfrwt beam="1">  1        2 0.19550226E+00 0.22967228E+04</pdfrwt>
<pdfrwt beam="2">  1       -2 0.15965358E+00 0.22967228E+04</pdfrwt>
<totfact> 0.39518064E+00</totfact>
</mgrwt>
</event>
<event>
 6    1  0.1028026E-006  0.1256403E+04  0.7818608E-02  0.9064871E-01
         -2   -1    0    0    0  501 -0.00000000000E+00  0.00000000000E+00  0.18542691050E+03  0.18542691050E+03  0.00000000000E+00 0.  1.
          2   -1    0    0  501    0  0.00000000000E+00 -0.00000000000E+00 -0.21282613436E+04  0.21282613436E+04  0.00000000000E+00 0. -1.
         23    2    1    2    0    0  0.54887897730E+02 -0.39567965876E+03 -0.18611361979E+04  0.19059509915E+04  0.96156961690E+02 0.  0.
         11    1    3    3    0    0  0.22519490736E+02 -0.34216635460E+03 -0.14442611322E+04  0.14844107112E+04  0.00000000000E+00 0. -1.
        -11    1    3    3    0    0  0.32368406994E+02 -0.53513304170E+02 -0.41687506568E+03  0.42154028026E+03  0.00000000000E+00 0.  1.
         22    1    1    2    0    0 -0.54887897730E+02  0.39567965876E+03 -0.81698235239E+02  0.40773726261E+03  0.00000000000E+00 0.  1.
<mgrwt>
<rscale>  0 0.12564027E+04</rscale>
<asrwt>0</asrwt>
<pdfrwt beam="1">  1        2 0.32742482E+00 0.12564027E+04</pdfrwt>
<pdfrwt beam="2">  1       -2 0.28527217E-01 0.12564027E+04</pdfrwt>
<totfact> 0.62842640E+01</totfact>
</mgrwt>
</event>
<event>
 6    1  0.1028026E-006  0.1112404E+04  0.7818608E-02  0.9193186E-01
          1   -1    0    0  501    0  0.00000000000E+00  0.00000000000E+00  0.92329780330E+03  0.92329780330E+03  0.00000000000E+00 0. -1.
         -1   -1    0    0    0  501 -0.00000000000E+00 -0.00000000000E+00 -0.33506040547E+03  0.33506040547E+03  0.00000000000E+00 0.  1.
         23    2    1    2    0    0 -0.56177687895E+02  0.18133328070E+03  0.88303630166E+03  0.90772437554E+03  0.90403211178E+02 0.  0.
         13    1    3    3    0    0 -0.52474138930E+02  0.11839047606E+03  0.39630666325E+03  0.41692782519E+03  0.00000000000E+00 0. -1.
        -13    1    3    3    0    0 -0.37035489650E+01  0.62942804637E+02  0.48672963841E+03  0.49079655035E+03  0.00000000000E+00 0.  1.
         22    1    1    2    0    0  0.56177687895E+02 -0.18133328070E+03 -0.29479890383E+03  0.35063383323E+03  0.00000000000E+00 0.  1.
<mgrwt>
<rscale>  0 0.11124038E+04</rscale>
<asrwt>0</asrwt>
<pdfrwt beam="1">  1        1 0.14204581E+00 0.11124038E+04</pdfrwt>
<pdfrwt beam="2">  1       -1 0.51547755E-01 0.11124038E+04</pdfrwt>
<totfact> 0.65646675E+01</totfact>
</mgrwt>
</event>
<event>
 6    1  0.1028026E-006  0.2411024E+04  0.7818608E-02  0.8435388E-01
          2   -1    0    0  501    0  0.00000000000E+00  0.00000000000E+00  0.11382174415E+04  0.11382174415E+04  0.00000000000E+00 0. -1.
         -2   -1    0    0    0  501 -0.00000000000E+00 -0.00000000000E+00 -0.12767850149E+04  0.12767850149E+04  0.00000000000E+00 0.  1.
         23    2    1    2    0    0  0.72501930858E+03 -0.38158810692E+03  0.81405582514E+03  0.11585177487E+04  0.90631156109E+02 0.  0.
         11    1    3    3    0    0  0.47360175104E+03 -0.21432210952E+03  0.47089102664E+03  0.70140640443E+03  0.00000000000E+00 0.  1.
        -11    1    3    3    0    0  0.25141755754E+03 -0.16726599740E+03  0.34316479850E+03  0.45711134427E+03  0.00000000000E+00 0. -1.
         22    1    1    2    0    0 -0.72501930858E+03  0.38158810692E+03 -0.95262339861E+03  0.12564847077E+04  0.00000000000E+00 0.  1.
<mgrwt>
<rscale>  0 0.24110238E+04</rscale>
<asrwt>0</asrwt>
<pdfrwt beam="1">  1        2 0.17511037E+00 0.24110238E+04</pdfrwt>
<pdfrwt beam="2">  1       -2 0.19642846E+00 0.24110238E+04</pdfrwt>
<totfact> 0.26036778E+00</totfact>
</mgrwt>
</event>
<event>
 6    1  0.1028026E-006  0.1469552E+04  0.7818608E-02  0.8904957E-01
          2   -1    0    0  501    0  0.00000000000E+00  0.00000000000E+00  0.96058276516E+03  0.96058276516E+03  0.00000000000E+00 0. -1.
         -2   -1    0    0    0  501 -0.00000000000E+00 -0.00000000000E+00 -0.56205019382E+03  0.56205019382E+03  0.00000000000E+00 0.  1.
         23    2    1    2    0    0 -0.17252918509E+03  0.34789087536E+02  0.93613172165E+03  0.95695686197E+03  0.91908841170E+02 0.  0.
         11    1    3    3    0    0 -0.84527112106E+01  0.62428010379E+01  0.27401470011E+03  0.27421611326E+03  0.00000000000E+00 0.  1.
        -11    1    3    3    0    0 -0.16407647388E+03  0.28546286498E+02  0.66211702154E+03  0.68274074872E+03  0.00000000000E+00 0. -1.
         22    1    1    2    0    0  0.17252918509E+03 -0.34789087536E+02 -0.53759915031E+03  0.56567609701E+03  0.00000000000E+00 0.  1.
<mgrwt>
<rscale>  0 0.14695519E+04</rscale>
<asrwt>0</asrwt>
<pdfrwt beam="1">  1        2 0.14778196E+00 0.14695519E+04</pdfrwt>
<pdfrwt beam="2">  1       -2 0.86469261E-01 0.14695519E+04</pdfrwt>
<totfact> 0.29986569E+01</totfact>
</mgrwt>
</event>
<event>
 6    1  0.1028026E-006  0.6224435E+04  0.7818608E-02  0.7663181E-01
         -2   -1    0    0    0  501 -0.00000000000E+00  0.00000000000E+00  0.31748700526E+04  0.31748700526E+04  0.00000000000E+00 0.  1.
          2   -1    0    0  501    0  0.00000000000E+00 -0.00000000000E+00 -0.30508018151E+04  0.30508018151E+04  0.00000000000E+00 0. -1.
         23    2    1    2    0    0  0.38177257069E+03  0.17848602435E+04 -0.24584220662E+04  0.30632783829E+04  0.91427628067E+02 0.  0.
         11    1    3    3    0    0  0.17676386385E+03  0.62461421934E+03 -0.89269244249E+03  0.11037609268E+04  0.00000000000E+00 0. -1.
        -11    1    3    3    0    0  0.20500870684E+03  0.11602460241E+04 -0.15657296237E+04  0.19595174561E+04  0.00000000000E+00 0.  1.
         22    1    1    2    0    0 -0.38177257069E+03 -0.17848602435E+04  0.25824903036E+04  0.31623934848E+04  0.00000000000E+00 0.  1.
<mgrwt>
<rscale>  0 0.62244355E+04</rscale>
<asrwt>0</asrwt>
<pdfrwt beam="1">  1        2 0.46935412E+00 0.62244355E+04</pdfrwt>
<pdfrwt beam="2">  1       -2 0.48844155E+00 0.62244355E+04</pdfrwt>
<totfact> 0.21071100E-03</totfact>
</mgrwt>
</event>
<event>
 6    1  0.1028026E-006  0.7406149E+03  0.7818608E-02  0.9650190E-01
         -1   -1    0    0    0  501 -0.00000000000E+00  0.00000000000E+00  0.33388097782E+03  0.33388097782E+03  0.00000000000E+00 0.  1.
          1   -1    0    0  501    0  0.00000000000E+00 -0.00000000000E+00 -0.41070800884E+03  0.41070800884E+03  0.00000000000E+00 0. -1.
         23    2    1    2    0    0 -0.25381165709E+03  0.25107555493E+03  0.35404835411E+02  0.37034937972E+03  0.91901409829E+02 0.  0.
         13    1    3    3    0    0 -0.10637678763E+03  0.68091462523E+02 -0.22593597582E+02  0.12830798442E+03  0.00000000000E+00 0.  1.
        -13    1    3    3    0    0 -0.14743486946E+03  0.18298409241E+03  0.57998432992E+02  0.24204139529E+03  0.00000000000E+00 0. -1.
         22    1    1    2    0    0  0.25381165709E+03 -0.25107555493E+03 -0.11223186644E+03  0.37423960694E+03  0.00000000000E+00 0. -1.
<mgrwt>
<rscale>  0 0.74061486E+03</rscale>
<asrwt>0</asrwt>
<pdfrwt beam="1">  1        1 0.63185847E-01 0.74061486E+03</pdfrwt>
<pdfrwt beam="2">  1       -1 0.51366305E-01 0.74061486E+03</pdfrwt>
<totfact> 0.22369044E+02</totfact>
</mgrwt>
</event>
<event>
 6    1  0.1028026E-006  0.1848593E+04  0.7818608E-02  0.8680877E-01
          1   -1    0    0  501    0  0.00000000000E+00  0.00000000000E+00  0.38288627756E+04  0.38288627756E+04  0.00000000000E+00 0. -1.
         -1   -1    0    0    0  501 -0.00000000000E+00 -0.00000000000E+00 -0.22312729337E+03  0.22312729337E+03  0.00000000000E+00 0.  1.
         23    2    1    2    0    0  0.12573099963E+03  0.80482746259E+03  0.27538629941E+04  0.28733288518E+04  0.93283286786E+02 0.  0.
         13    1    3    3    0    0  0.31969134448E+02  0.41839759078E+03  0.12982654027E+04  0.13643942339E+04  0.00000000000E+00 0. -1.
        -13    1    3    3    0    0  0.93761865179E+02  0.38642987180E+03  0.14555975914E+04  0.15089346180E+04  0.00000000000E+00 0.  1.
         22    1    1    2    0    0 -0.12573099963E+03 -0.80482746259E+03  0.85187248815E+03  0.11786612172E+04  0.00000000000E+00 0.  1.
<mgrwt>
<rscale>  0 0.18485927E+04</rscale>
<asrwt>0</asrwt>
<pdfrwt beam="1">  1        1 0.58905576E+00 0.18485927E+04</pdfrwt>
<pdfrwt beam="2">  1       -1 0.34327279E-01 0.18485927E+04</pdfrwt>
<totfact> 0.10265873E+00</totfact>
</mgrwt>
</event>
<event>
 6    1  0.1028026E-006  0.2148636E+04  0.7818608E-02  0.8540116E-01
          1   -1    0    0  501    0  0.00000000000E+00  0.00000000000E+00  0.64114828561E+03  0.64114828561E+03  0.00000000000E+00 0. -1.
         -1   -1    0    0    0  501 -0.00000000000E+00 -0.00000000000E+00 -0.18001435448E+04  0.18001435448E+04  0.00000000000E+00 0.  1.
         23    2    1    2    0    0 -0.17150118172E+03  0.10200093281E+04 -0.25898369487E+03  0.10702146989E+04  0.91952503431E+02 0.  0.
         11    1    3    3    0    0 -0.15678743154E+03  0.77702442398E+03 -0.16768389180E+03  0.81022659900E+03  0.00000000000E+00 0. -1.
        -11    1    3    3    0    0 -0.14713750184E+02  0.24298490407E+03 -0.91299803071E+02  0.25998809991E+03  0.00000000000E+00 0.  1.
         22    1    1    2    0    0  0.17150118172E+03 -0.10200093281E+04 -0.90001156434E+03  0.13710771315E+04  0.00000000000E+00 0.  1.
<mgrwt>
<rscale>  0 0.21486358E+04</rscale>
<asrwt>0</asrwt>
<pdfrwt beam="1">  1        1 0.98638201E-01 0.21486358E+04</pdfrwt>
<pdfrwt beam="2">  1       -1 0.27694515E+00 0.21486358E+04</pdfrwt>
<totfact> 0.13261356E+00</totfact>
</mgrwt>
</event>
<event>
 6    1  0.1028026E-006  0.4164606E+04  0.7818608E-02  0.7972139E-01
          2   -1    0    0  501    0  0.00000000000E+00  0.00000000000E+00  0.33992116123E+04  0.33992116123E+04  0.00000000000E+00 0. -1.
         -2   -1    0    0    0  501 -0.00000000000E+00 -0.00000000000E+00 -0.12755859606E+04  0.12755859606E+04  0.00000000000E+00 0.  1.
         23    2    1    2    0    0  0.67049985715E+03 -0.90086489952E+03  0.30292738246E+04  0.32321173455E+04  0.94630888843E+02 0.  0.
         13    1    3    3    0    0  0.39324913037E+03 -0.51570743147E+03  0.16153333960E+04  0.17406610852E+04  0.00000000000E+00 0. -1.
        -13    1    3    3    0    0  0.27725072679E+03 -0.38515746805E+03  0.14139404286E+04  0.14914562603E+04  0.00000000000E+00 0.  1.
         22    1    1    2    0    0 -0.67049985715E+03  0.90086489952E+03 -0.90564817285E+03  0.14426802274E+04  0.00000000000E+00 0.  1.
<mgrwt>
<rscale>  0 0.41646064E+04</rscale>
<asrwt>0</asrwt>
<pdfrwt beam="1">  1        2 0.52295563E+00 0.41646064E+04</pdfrwt>
<pdfrwt beam="2">  1       -2 0.19624400E+00 0.41646064E+04</pdfrwt>
<totfact> 0.10448275E-01</totfact>
</mgrwt>
</event>
<event>
 6    1  0.1028026E-006  0.4449262E+04  0.7818608E-02  0.7919580E-01
         -3   -1    0    0    0  501 -0.00000000000E+00  0.00000000000E+00  0.22837198685E+04  0.22837198685E+04  0.00000000000E+00 0.  1.
          3   -1    0    0  501    0  0.00000000000E+00 -0.00000000000E+00 -0.21670709649E+04  0.21670709649E+04  0.00000000000E+00 0. -1.
         23    2    1    2    0    0 -0.44152612383E+03 -0.21352681478E+04  0.49463362202E+03  0.22378317673E+04  0.94409838830E+02 0.  0.
         13    1    3    3    0    0 -0.19265928043E+03 -0.11491439573E+04  0.24695476077E+03  0.11910651061E+04  0.00000000000E+00 0. -1.
        -13    1    3    3    0    0 -0.24886684340E+03 -0.98612419046E+03  0.24767886125E+03  0.10467666612E+04  0.00000000000E+00 0.  1.
         22    1    1    2    0    0  0.44152612383E+03  0.21352681478E+04 -0.37798471841E+03  0.22129590661E+04  0.00000000000E+00 0.  1.
<mgrwt>
<rscale>  0 0.44492620E+04</rscale>
<asrwt>0</asrwt>
<pdfrwt beam="1">  1        3 0.33339553E+00 0.44492620E+04</pdfrwt>
<pdfrwt beam="2">  1       -3 0.35134152E+00 0.44492620E+04</pdfrwt>
<totfact> 0.97454155E-04</totfact>
</mgrwt>
</event>
<event>
 6    1  0.1028026E-006  0.2296194E+04  0.7818608E-02  0.8479423E-01
         -2   -1    0    0    0  501 -0.00000000000E+00  0.00000000000E+00  0.99573820004E+03  0.99573820004E+03  0.00000000000E+00 0.  1.
          2   -1    0    0  501    0  0.00000000000E+00 -0.00000000000E+00 -0.13237681502E+04  0.13237681502E+04  0.00000000000E+00 0. -1.
         23    2    1    2    0    0 -0.90221650902E+03  0.46295072262E+03 -0.70401338331E+03  0.12379881846E+04  0.93069332073E+02 0.  0.
         11    1    3    3    0    0 -0.66910301844E+03  0.37518914693E+03 -0.56507664666E+03  0.95277351026E+03  0.00000000000E+00 0. -1.
        -11    1    3    3    0    0 -0.23311349058E+03  0.87761575685E+02 -0.13893673665E+03  0.28521467432E+03  0.00000000000E+00 0.  1.
         22    1    1    2    0    0  0.90221650902E+03 -0.46295072262E+03  0.37598343313E+03  0.10815181657E+04  0.00000000000E+00 0.  1.
<mgrwt>
<rscale>  0 0.22961938E+04</rscale>
<asrwt>0</asrwt>
<pdfrwt beam="1">  1        2 0.20365664E+00 0.22961938E+04</pdfrwt>
<pdfrwt beam="2">  1       -2 0.15319049E+00 0.22961938E+04</pdfrwt>
<totfact> 0.41144536E+00</totfact>
</mgrwt>
</event>
<event>
 6    1  0.1028026E-006  0.2172379E+04  0.7818608E-02  0.8530013E-01
         -2   -1    0    0    0  501 -0.00000000000E+00  0.00000000000E+00  0.47022230991E+03  0.47022230991E+03  0.00000000000E+00 0.  1.
          2   -1    0    0  501    0  0.00000000000E+00 -0.00000000000E+00 -0.25090412436E+04  0.25090412436E+04  0.00000000000E+00 0. -1.
         23    2    1    2    0    0 -0.56487631432E+03 -0.79567116561E+03 -0.16692743745E+04  0.19358360114E+04  0.93841736720E+02 0.  0.
         11    1    3    3    0    0 -0.18077152750E+03 -0.32599252381E+03 -0.67349868299E+03  0.76977265912E+03  0.00000000000E+00 0.  1.
        -11    1    3    3    0    0 -0.38410478682E+03 -0.46967864180E+03 -0.99577569149E+03  0.11660633523E+04  0.00000000000E+00 0. -1.
         22    1    1    2    0    0  0.56487631432E+03  0.79567116561E+03 -0.36954455916E+03  0.10434275420E+04  0.00000000000E+00 0.  1.
<mgrwt>
<rscale>  0 0.21723786E+04</rscale>
<asrwt>0</asrwt>
<pdfrwt beam="1">  1        2 0.38600634E+00 0.21723786E+04</pdfrwt>
<pdfrwt beam="2">  1       -2 0.72341895E-01 0.21723786E+04</pdfrwt>
<totfact> 0.54499397E+00</totfact>
</mgrwt>
</event>
<event>
 6    1  0.1028026E-006  0.1304878E+04  0.7818608E-02  0.9025706E-01
          1   -1    0    0  501    0  0.00000000000E+00  0.00000000000E+00  0.65012873872E+03  0.65012873872E+03  0.00000000000E+00 0. -1.
         -1   -1    0    0    0  501 -0.00000000000E+00 -0.00000000000E+00 -0.65475773217E+03  0.65475773217E+03  0.00000000000E+00 0.  1.
         23    2    1    2    0    0 -0.44593528179E+03 -0.39892605336E+03 -0.25510167426E+03  0.65624416928E+03  0.87059025395E+02 0.  0.
         11    1    3    3    0    0 -0.30957322392E+03 -0.29978857692E+03 -0.14410623976E+03  0.45439562075E+03  0.00000000000E+00 0. -1.
        -11    1    3    3    0    0 -0.13636205788E+03 -0.99137476443E+02 -0.11099543450E+03  0.20184854853E+03  0.00000000000E+00 0.  1.
         22    1    1    2    0    0  0.44593528179E+03  0.39892605336E+03  0.25047268081E+03  0.64864230160E+03  0.00000000000E+00 0. -1.
<mgrwt>
<rscale>  0 0.13048783E+04</rscale>
<asrwt>0</asrwt>
<pdfrwt beam="1">  1        1 0.10001981E+00 0.13048783E+04</pdfrwt>
<pdfrwt beam="2">  1       -1 0.10073196E+00 0.13048783E+04</pdfrwt>
<totfact> 0.28043430E+01</totfact>
</mgrwt>
</event>
<event>
 6    1  0.1028026E-006  0.1124992E+04  0.7818608E-02  0.9181169E-01
         -1   -1    0    0    0  501 -0.00000000000E+00  0.00000000000E+00  0.27098251219E+04  0.27098251219E+04  0.00000000000E+00 0.  1.
          1   -1    0    0  501    0  0.00000000000E+00 -0.00000000000E+00 -0.11676101115E+03  0.11676101115E+03  0.00000000000E+00 0. -1.
         23    2    1    2    0    0 -0.30012483934E+03  0.51253833323E+02  0.24820482516E+04  0.25025083714E+04  0.96347034305E+02 0.  0.
         13    1    3    3    0    0 -0.21435397158E+03  0.69681853357E+02  0.19874409613E+04  0.20001811819E+04  0.00000000000E+00 0. -1.
        -13    1    3    3    0    0 -0.85770867757E+02 -0.18428020034E+02  0.49460729036E+03  0.50232718954E+03  0.00000000000E+00 0.  1.
         22    1    1    2    0    0  0.30012483934E+03 -0.51253833323E+02  0.11101585916E+03  0.32407776166E+03  0.00000000000E+00 0. -1.
<mgrwt>
<rscale>  0 0.11249923E+04</rscale>
<asrwt>0</asrwt>
<pdfrwt beam="1">  1        1 0.17963235E-01 0.11249923E+04</pdfrwt>
<pdfrwt beam="2">  1       -1 0.41689613E+00 0.11249923E+04</pdfrwt>
<totfact> 0.16825301E+00</totfact>
</mgrwt>
</event>
<event>
 6    1  0.1028026E-006  0.2590459E+04  0.7818608E-02  0.8371449E-01
         -2   -1    0    0    0  501 -0.00000000000E+00  0.00000000000E+00  0.67590115322E+03  0.67590115322E+03  0.00000000000E+00 0.  1.
          2   -1    0    0  501    0  0.00000000000E+00 -0.00000000000E+00 -0.24820478286E+04  0.24820478286E+04  0.00000000000E+00 0. -1.
         23    2    1    2    0    0  0.70282276344E+03  0.10414258820E+04 -0.52822289801E+03  0.13658505232E+04  0.89445610397E+02 0.  0.
         11    1    3    3    0    0  0.34237806402E+03  0.44060838761E+03 -0.26036965416E+03  0.61575226087E+03  0.00000000000E+00 0. -1.
        -11    1    3    3    0    0  0.36044469942E+03  0.60081749442E+03 -0.26785324384E+03  0.75009826234E+03  0.00000000000E+00 0.  1.
         22    1    1    2    0    0 -0.70282276344E+03 -0.10414258820E+04 -0.12779237773E+04  0.17920984586E+04  0.00000000000E+00 0. -1.
<mgrwt>
<rscale>  0 0.25904586E+04</rscale>
<asrwt>0</asrwt>
<pdfrwt beam="1">  1        2 0.38185351E+00 0.25904586E+04</pdfrwt>
<pdfrwt beam="2">  1       -2 0.10398479E+00 0.25904586E+04</pdfrwt>
<totfact> 0.23744588E+00</totfact>
</mgrwt>
</event>
<event>
 6    1  0.1028026E-006  0.5215387E+04  0.7818608E-02  0.7796114E-01
         -2   -1    0    0    0  501 -0.00000000000E+00  0.00000000000E+00  0.17095542395E+04  0.17095542395E+04  0.00000000000E+00 0.  1.
          2   -1    0    0  501    0  0.00000000000E+00 -0.00000000000E+00 -0.39776838424E+04  0.39776838424E+04  0.00000000000E+00 0. -1.
         23    2    1    2    0    0 -0.16405544737E+04  0.13613443919E+04 -0.27705863414E+04  0.34970005813E+04  0.90481246579E+02 0.  0.
         13    1    3    3    0    0 -0.73501159232E+03  0.55729425512E+03 -0.11664678405E+04  0.14870999128E+04  0.00000000000E+00 0. -1.
        -13    1    3    3    0    0 -0.90554288142E+03  0.80405013676E+03 -0.16041185009E+04  0.20099006685E+04  0.00000000000E+00 0.  1.
         22    1    1    2    0    0  0.16405544737E+04 -0.13613443919E+04  0.50245673848E+03  0.21902375005E+04  0.00000000000E+00 0.  1.
<mgrwt>
<rscale>  0 0.52153873E+04</rscale>
<asrwt>0</asrwt>
<pdfrwt beam="1">  1        2 0.61195135E+00 0.52153873E+04</pdfrwt>
<pdfrwt beam="2">  1       -2 0.26300835E+00 0.52153873E+04</pdfrwt>
<totfact> 0.13585791E-02</totfact>
</mgrwt>
</event>
<event>
 6    1  0.1028026E-006  0.1735192E+04  0.7818608E-02  0.8741544E-01
          1   -1    0    0  501    0  0.00000000000E+00  0.00000000000E+00  0.15647287143E+04  0.15647287143E+04  0.00000000000E+00 0. -1.
         -1   -1    0    0    0  501 -0.00000000000E+00 -0.00000000000E+00 -0.48105642903E+03  0.48105642903E+03  0.00000000000E+00 0.  1.
         23    2    1    2    0    0  0.32332721383E+03 -0.56734316764E+03  0.12124609053E+04  0.13801987360E+04  0.92023620708E+02 0.  0.
         11    1    3    3    0    0  0.23162397185E+03 -0.35137751847E+03  0.70376911607E+03  0.82000414240E+03  0.00000000000E+00 0.  1.
        -11    1    3    3    0    0  0.91703241981E+02 -0.21596564917E+03  0.50869178925E+03  0.56019459357E+03  0.00000000000E+00 0. -1.
         22    1    1    2    0    0 -0.32332721383E+03  0.56734316764E+03 -0.12878862000E+03  0.66558640740E+03  0.00000000000E+00 0.  1.
<mgrwt>
<rscale>  0 0.17351920E+04</rscale>
<asrwt>0</asrwt>
<pdfrwt beam="1">  1        1 0.24072749E+00 0.17351920E+04</pdfrwt>
<pdfrwt beam="2">  1       -1 0.74008682E-01 0.17351920E+04</pdfrwt>
<totfact> 0.10292114E+01</totfact>
</mgrwt>
</event>
<event>
 6    1  0.1028026E-006  0.2176361E+04  0.7818608E-02  0.8528332E-01
          2   -1    0    0  501    0  0.00000000000E+00  0.00000000000E+00  0.23237315030E+04  0.23237315030E+04  0.00000000000E+00 0. -1.
         -2   -1    0    0    0  501 -0.00000000000E+00 -0.00000000000E+00 -0.50958438028E+03  0.50958438028E+03  0.00000000000E+00 0.  1.
         23    2    1    2    0    0  0.90713912856E+03  0.56577871210E+03  0.11584520181E+04  0.15791456317E+04  0.93182071472E+02 0.  0.
         13    1    3    3    0    0  0.82435244136E+03  0.54355583390E+03  0.10688046132E+04  0.14551127768E+04  0.00000000000E+00 0. -1.
        -13    1    3    3    0    0  0.82786687204E+02  0.22222878195E+02  0.89647404899E+02  0.12403285492E+03  0.00000000000E+00 0.  1.
         22    1    1    2    0    0 -0.90713912856E+03 -0.56577871210E+03  0.65569510470E+03  0.12541702516E+04  0.00000000000E+00 0.  1.
<mgrwt>
<rscale>  0 0.21763614E+04</rscale>
<asrwt>0</asrwt>
<pdfrwt beam="1">  1        2 0.35749715E+00 0.21763614E+04</pdfrwt>
<pdfrwt beam="2">  1       -2 0.78397598E-01 0.21763614E+04</pdfrwt>
<totfact> 0.58221415E+00</totfact>
</mgrwt>
</event>
<event>
 6    1  0.1028026E-006  0.1781031E+04  0.7818608E-02  0.8716452E-01
          2   -1    0    0  501    0  0.00000000000E+00  0.00000000000E+00  0.80541322374E+03  0.80541322374E+03  0.00000000000E+00 0. -1.
         -2   -1    0    0    0  501 -0.00000000000E+00 -0.00000000000E+00 -0.98461000504E+03  0.98461000504E+03  0.00000000000E+00 0.  1.
         23    2    1    2    0    0  0.72300673165E+03 -0.50527348664E+03 -0.19328893576E+03  0.90784489129E+03  0.93710744557E+02 0.  0.
         13    1    3    3    0    0  0.14080061686E+03 -0.81118208393E+02 -0.70484177727E+02  0.17712424100E+03  0.00000000000E+00 0. -1.
        -13    1    3    3    0    0  0.58220611479E+03 -0.42415527825E+03 -0.12280475804E+03  0.73072065029E+03  0.00000000000E+00 0.  1.
         22    1    1    2    0    0 -0.72300673165E+03  0.50527348664E+03  0.14092154464E+02  0.88217833748E+03  0.00000000000E+00 0. -1.
<mgrwt>
<rscale>  0 0.17810311E+04</rscale>
<asrwt>0</asrwt>
<pdfrwt beam="1">  1        2 0.12390973E+00 0.17810311E+04</pdfrwt>
<pdfrwt beam="2">  1       -2 0.15147846E+00 0.17810311E+04</pdfrwt>
<totfact> 0.94181546E+00</totfact>
</mgrwt>
</event>
<event>
 6    1  0.1028026E-006  0.7615160E+03  0.7818608E-02  0.9617455E-01
          2   -1    0    0  501    0  0.00000000000E+00  0.00000000000E+00  0.76476828159E+03  0.76476828159E+03  0.00000000000E+00 0. -1.
         -2   -1    0    0    0  501 -0.00000000000E+00 -0.00000000000E+00 -0.18956940597E+03  0.18956940597E+03  0.00000000000E+00 0.  1.
         23    2    1    2    0    0 -0.19418269424E+03  0.31755860160E+03  0.35082182515E+03  0.51971665152E+03  0.92081815061E+02 0.  0.
         11    1    3    3    0    0 -0.87438160172E+02  0.21751708691E+03  0.18540853869E+03  0.29889034975E+03  0.00000000000E+00 0. -1.
        -11    1    3    3    0    0 -0.10674453406E+03  0.10004151470E+03  0.16541328646E+03  0.22082630177E+03  0.00000000000E+00 0.  1.
         22    1    1    2    0    0  0.19418269424E+03 -0.31755860160E+03  0.22437705047E+03  0.43462103604E+03  0.00000000000E+00 0.  1.
<mgrwt>
<rscale>  0 0.76151604E+03</rscale>
<asrwt>0</asrwt>
<pdfrwt beam="1">  1        2 0.11765666E+00 0.76151604E+03</pdfrwt>
<pdfrwt beam="2">  1       -2 0.29164524E-01 0.76151604E+03</pdfrwt>
<totfact> 0.39713035E+02</totfact>
</mgrwt>
</event>
<event>
 6    1  0.1028026E-006  0.1634612E+04  0.7818608E-02  0.8799562E-01
          1   -1    0    0  501    0  0.00000000000E+00  0.00000000000E+00  0.57114208756E+03  0.57114208756E+03  0.00000000000E+00 0. -1.
         -1   -1    0    0    0  501 -0.00000000000E+00 -0.00000000000E+00 -0.11695676162E+04  0.11695676162E+04  0.00000000000E+00 0.  1.
         23    2    1    2    0    0  0.63398149339E+02 -0.17839801055E+03 -0.11436659004E+04  0.11635336141E+04  0.99968013756E+02 0.  0.
         13    1    3    3    0    0  0.24352533033E+02 -0.14119102802E+02 -0.39772640886E+03  0.39872132026E+03  0.00000000000E+00 0. -1.
        -13    1    3    3    0    0  0.39045616306E+02 -0.16427890774E+03 -0.74593949156E+03  0.76481229380E+03  0.00000000000E+00 0.  1.
         22    1    1    2    0    0 -0.63398149339E+02  0.17839801055E+03  0.54524037178E+03  0.57717608970E+03  0.00000000000E+00 0. -1.
<mgrwt>
<rscale>  0 0.16346122E+04</rscale>
<asrwt>0</asrwt>
<pdfrwt beam="1">  1        1 0.87868015E-01 0.16346122E+04</pdfrwt>
<pdfrwt beam="2">  1       -1 0.17993348E+00 0.16346122E+04</pdfrwt>
<totfact> 0.73277614E+00</totfact>
</mgrwt>
</event>
<event>
 6    1  0.1028026E-006  0.4146657E+04  0.7818608E-02  0.7975597E-01
         -2   -1    0    0    0  501 -0.00000000000E+00  0.00000000000E+00  0.21651570160E+04  0.21651570160E+04  0.00000000000E+00 0.  1.
          2   -1    0    0  501    0  0.00000000000E+00 -0.00000000000E+00 -0.19853947004E+04  0.19853947004E+04  0.00000000000E+00 0. -1.
         23    2    1    2    0    0 -0.11035673477E+04  0.16788113168E+04 -0.41896437076E+03  0.20541877277E+04  0.88812997075E+02 0.  0.
         13    1    3    3    0    0 -0.85953367006E+03  0.12990931523E+04 -0.36219407112E+03  0.15992578571E+04  0.00000000000E+00 0. -1.
        -13    1    3    3    0    0 -0.24403367760E+03  0.37971816446E+03 -0.56770299641E+02  0.45492987058E+03  0.00000000000E+00 0.  1.
         22    1    1    2    0    0  0.11035673477E+04 -0.16788113168E+04  0.59872668634E+03  0.20963639887E+04  0.00000000000E+00 0. -1.
<mgrwt>
<rscale>  0 0.41466571E+04</rscale>
<asrwt>0</asrwt>
<pdfrwt beam="1">  1        2 0.30544534E+00 0.41466571E+04</pdfrwt>
<pdfrwt beam="2">  1       -2 0.33310108E+00 0.41466571E+04</pdfrwt>
<totfact> 0.10537023E-01</totfact>
</mgrwt>
</event>
<event>
 6    1  0.1028026E-006  0.4719845E+04  0.7818608E-02  0.7873240E-01
          1   -1    0    0  501    0  0.00000000000E+00  0.00000000000E+00  0.12811784725E+04  0.12811784725E+04  0.00000000000E+00 0. -1.
         -1   -1    0    0    0  501 -0.00000000000E+00 -0.00000000000E+00 -0.43469620691E+04  0.43469620691E+04  0.00000000000E+00 0.  1.
         23    2    1    2    0    0  0.11468073407E+04 -0.15479007491E+03 -0.39847857271E+04  0.41504085091E+04  0.90810008977E+02 0.  0.
         11    1    3    3    0    0  0.29900672092E+03 -0.18009873596E+02 -0.11526962933E+04  0.11909819978E+04  0.00000000000E+00 0.  1.
        -11    1    3    3    0    0  0.84780061983E+03 -0.13678020131E+03 -0.28320894338E+04  0.29594265113E+04  0.00000000000E+00 0. -1.
         22    1    1    2    0    0 -0.11468073407E+04  0.15479007491E+03  0.91900213044E+03  0.14777320325E+04  0.00000000000E+00 0. -1.
<mgrwt>
<rscale>  0 0.47198450E+04</rscale>
<asrwt>0</asrwt>
<pdfrwt beam="1">  1        1 0.19710438E+00 0.47198450E+04</pdfrwt>
<pdfrwt beam="2">  1       -1 0.66876340E+00 0.47198450E+04</pdfrwt>
<totfact> 0.17655829E-03</totfact>
</mgrwt>
</event>
<event>
 6    1  0.1028026E-006  0.9955099E+03  0.7818608E-02  0.9313483E-01
          2   -1    0    0  501    0  0.00000000000E+00  0.00000000000E+00  0.33251305919E+03  0.33251305919E+03  0.00000000000E+00 0. -1.
         -2   -1    0    0    0  501 -0.00000000000E+00 -0.00000000000E+00 -0.74511354075E+03  0.74511354075E+03  0.00000000000E+00 0.  1.
         23    2    1    2    0    0 -0.10985275228E+03 -0.43949787119E+03 -0.42030694842E+03  0.62454228594E+03  0.90383239973E+02 0.  0.
         13    1    3    3    0    0 -0.68808860975E+02 -0.20070679841E+03 -0.25252268708E+03  0.32982659955E+03  0.00000000000E+00 0. -1.
        -13    1    3    3    0    0 -0.41043891304E+02 -0.23879107278E+03 -0.16778426134E+03  0.29471568639E+03  0.00000000000E+00 0.  1.
         22    1    1    2    0    0  0.10985275228E+03  0.43949787119E+03  0.77064668562E+01  0.45308431400E+03  0.00000000000E+00 0. -1.
<mgrwt>
<rscale>  0 0.99550989E+03</rscale>
<asrwt>0</asrwt>
<pdfrwt beam="1">  1        2 0.51155855E-01 0.99550989E+03</pdfrwt>
<pdfrwt beam="2">  1       -2 0.11463285E+00 0.99550989E+03</pdfrwt>
<totfact> 0.58067045E+01</totfact>
</mgrwt>
</event>
<event>
 6    1  0.1028026E-006  0.2595224E+04  0.7818608E-02  0.8369825E-01
         -2   -1    0    0    0  501 -0.00000000000E+00  0.00000000000E+00  0.53539970287E+03  0.53539970287E+03  0.00000000000E+00 0.  1.
          2   -1    0    0  501    0  0.00000000000E+00 -0.00000000000E+00 -0.31449340710E+04  0.31449340710E+04  0.00000000000E+00 0. -1.
         23    2    1    2    0    0 -0.62397289665E+01  0.63205192782E+03  0.29658838771E+03  0.70626618122E+03  0.10638925382E+03 0.  0.
         11    1    3    3    0    0  0.47038478452E+02  0.23418364504E+03  0.94846108020E+02  0.25700268921E+03  0.00000000000E+00 0.  1.
        -11    1    3    3    0    0 -0.53278207419E+02  0.39786828278E+03  0.20174227969E+03  0.44926349200E+03  0.00000000000E+00 0. -1.
         22    1    1    2    0    0  0.62397289665E+01 -0.63205192782E+03 -0.29061227559E+04  0.29740675927E+04  0.00000000000E+00 0. -1.
<mgrwt>
<rscale>  0 0.25952239E+04</rscale>
<asrwt>0</asrwt>
<pdfrwt beam="1">  1        2 0.48383601E+00 0.25952239E+04</pdfrwt>
<pdfrwt beam="2">  1       -2 0.82369186E-01 0.25952239E+04</pdfrwt>
<totfact> 0.16126138E+00</totfact>
</mgrwt>
</event>
<event>
 6    1  0.1028026E-006  0.1409394E+04  0.7818608E-02  0.8947047E-01
         -2   -1    0    0    0  501 -0.00000000000E+00  0.00000000000E+00  0.31213077748E+03  0.31213077748E+03  0.00000000000E+00 0.  1.
          2   -1    0    0  501    0  0.00000000000E+00 -0.00000000000E+00 -0.15909932018E+04  0.15909932018E+04  0.00000000000E+00 0. -1.
         23    2    1    2    0    0  0.20628832164E+03 -0.27504850398E+03 -0.14681940414E+04  0.15106281036E+04  0.90537137102E+02 0.  0.
         13    1    3    3    0    0  0.11180606009E+03 -0.13420357378E+03 -0.93279242362E+03  0.94900626966E+03  0.00000000000E+00 0.  1.
        -13    1    3    3    0    0  0.94482261549E+02 -0.14084493021E+03 -0.53540161775E+03  0.56162183398E+03  0.00000000000E+00 0. -1.
         22    1    1    2    0    0 -0.20628832164E+03  0.27504850398E+03  0.18933161705E+03  0.39249587565E+03  0.00000000000E+00 0.  1.
<mgrwt>
<rscale>  0 0.14093941E+04</rscale>
<asrwt>0</asrwt>
<pdfrwt beam="1">  1        2 0.24476819E+00 0.14093941E+04</pdfrwt>
<pdfrwt beam="2">  1       -2 0.48020120E-01 0.14093941E+04</pdfrwt>
<totfact> 0.45076769E+01</totfact>
</mgrwt>
</event>
<event>
 6    1  0.1028026E-006  0.1358733E+03  0.7818608E-02  0.1218992E+00
         -2   -1    0    0    0  501 -0.00000000000E+00  0.00000000000E+00  0.65418791049E+01  0.65418791049E+01  0.00000000000E+00 0.  1.
          2   -1    0    0  501    0  0.00000000000E+00 -0.00000000000E+00 -0.70551417054E+03  0.70551417054E+03  0.00000000000E+00 0. -1.
         23    2    1    2    0    0 -0.17044317869E+02  0.33423553876E+01 -0.68134403492E+03  0.68730861465E+03  0.88666553665E+02 0.  0.
         13    1    3    3    0    0  0.27030997013E+02 -0.58281157182E+01 -0.48839527189E+03  0.48917745587E+03  0.00000000000E+00 0. -1.
        -13    1    3    3    0    0 -0.44075314882E+02  0.91704711057E+01 -0.19294876303E+03  0.19813115878E+03  0.00000000000E+00 0.  1.
         22    1    1    2    0    0  0.17044317869E+02 -0.33423553876E+01 -0.17628256518E+02  0.24747434999E+02  0.00000000000E+00 0.  1.
<mgrwt>
<rscale>  0 0.13587330E+03</rscale>
<asrwt>0</asrwt>
<pdfrwt beam="1">  1        2 0.10854064E+00 0.13587330E+03</pdfrwt>
<pdfrwt beam="2">  1       -2 0.10064430E-02 0.13587330E+03</pdfrwt>
<totfact> 0.81203766E+04</totfact>
</mgrwt>
</event>
<event>
 6    1  0.1028026E-006  0.4685360E+03  0.7818608E-02  0.1022334E+00
          2   -1    0    0  501    0  0.00000000000E+00  0.00000000000E+00  0.60347539867E+03  0.60347539867E+03  0.00000000000E+00 0. -1.
         -2   -1    0    0    0  501 -0.00000000000E+00 -0.00000000000E+00 -0.90942397734E+02  0.90942397734E+02  0.00000000000E+00 0.  1.
         23    2    1    2    0    0  0.17938521809E+03  0.12474864319E+03  0.34721703120E+03  0.42042755881E+03  0.91969478669E+02 0.  0.
         13    1    3    3    0    0  0.47237559762E+02  0.31961973589E+02  0.17631705986E+03  0.18531233204E+03  0.00000000000E+00 0. -1.
        -13    1    3    3    0    0  0.13214765833E+03  0.92786669600E+02  0.17089997134E+03  0.23511522678E+03  0.00000000000E+00 0.  1.
         22    1    1    2    0    0 -0.17938521809E+03 -0.12474864319E+03  0.16531596973E+03  0.27399023759E+03  0.00000000000E+00 0.  1.
<mgrwt>
<rscale>  0 0.46853602E+03</rscale>
<asrwt>0</asrwt>
<pdfrwt beam="1">  1        2 0.92842367E-01 0.46853602E+03</pdfrwt>
<pdfrwt beam="2">  1       -2 0.13991138E-01 0.46853602E+03</pdfrwt>
<totfact> 0.19356252E+03</totfact>
</mgrwt>
</event>
<event>
 6    1  0.1028026E-006  0.2363032E+04  0.7818608E-02  0.8453475E-01
          1   -1    0    0  501    0  0.00000000000E+00  0.00000000000E+00  0.19902999758E+04  0.19902999758E+04  0.00000000000E+00 0. -1.
         -1   -1    0    0    0  501 -0.00000000000E+00 -0.00000000000E+00 -0.70139164529E+03  0.70139164529E+03  0.00000000000E+00 0.  1.
         23    2    1    2    0    0 -0.82711006003E+03 -0.82805933659E+03  0.80001454983E+03  0.14233027040E+04  0.12638825431E+03 0.  0.
         11    1    3    3    0    0 -0.33070026022E+03 -0.31465549965E+03  0.38615885616E+03  0.59790417941E+03  0.00000000000E+00 0. -1.
        -11    1    3    3    0    0 -0.49640979981E+03 -0.51340383694E+03  0.41385569368E+03  0.82539852455E+03  0.00000000000E+00 0.  1.
         22    1    1    2    0    0  0.82711006003E+03  0.82805933659E+03  0.48889378068E+03  0.12683889171E+04  0.00000000000E+00 0. -1.
<mgrwt>
<rscale>  0 0.23630318E+04</rscale>
<asrwt>0</asrwt>
<pdfrwt beam="1">  1        1 0.30619999E+00 0.23630318E+04</pdfrwt>
<pdfrwt beam="2">  1       -1 0.10790641E+00 0.23630318E+04</pdfrwt>
<totfact> 0.21717008E+00</totfact>
</mgrwt>
</event>
<event>
 6    1  0.1028026E-006  0.1942573E+04  0.7818608E-02  0.8633951E-01
          1   -1    0    0  501    0  0.00000000000E+00  0.00000000000E+00  0.26465892254E+04  0.26465892254E+04  0.00000000000E+00 0. -1.
         -1   -1    0    0    0  501 -0.00000000000E+00 -0.00000000000E+00 -0.35645778672E+03  0.35645778672E+03  0.00000000000E+00 0.  1.
         23    2    1    2    0    0 -0.70855876760E+02 -0.85651377142E+03  0.45501177982E+03  0.97664612429E+03  0.90363357711E+02 0.  0.
         13    1    3    3    0    0 -0.31997716622E+02 -0.73784190188E+02  0.39033577001E+02  0.89395641528E+02  0.00000000000E+00 0. -1.
        -13    1    3    3    0    0 -0.38858160137E+02 -0.78272958123E+03  0.41597820282E+03  0.88725048276E+03  0.00000000000E+00 0.  1.
         22    1    1    2    0    0  0.70855876760E+02  0.85651377142E+03  0.18351196589E+04  0.20264008879E+04  0.00000000000E+00 0. -1.
<mgrwt>
<rscale>  0 0.19425729E+04</rscale>
<asrwt>0</asrwt>
<pdfrwt beam="1">  1        1 0.40716756E+00 0.19425729E+04</pdfrwt>
<pdfrwt beam="2">  1       -1 0.54839661E-01 0.19425729E+04</pdfrwt>
<totfact> 0.33556328E+00</totfact>
</mgrwt>
</event>
<event>
 6    1  0.1028026E-006  0.3181633E+04  0.7818608E-02  0.8193685E-01
         -2   -1    0    0    0  501 -0.00000000000E+00  0.00000000000E+00  0.10147070276E+04  0.10147070276E+04  0.00000000000E+00 0.  1.
          2   -1    0    0  501    0  0.00000000000E+00 -0.00000000000E+00 -0.24940174423E+04  0.24940174423E+04  0.00000000000E+00 0. -1.
         23    2    1    2    0    0  0.14894274925E+04 -0.53575094099E+03 -0.57859834542E+03  0.16875420084E+04  0.87170283799E+02 0.  0.
         11    1    3    3    0    0  0.65994349465E+03 -0.20808937864E+03 -0.28831460635E+03  0.74963452287E+03  0.00000000000E+00 0. -1.
        -11    1    3    3    0    0  0.82948399790E+03 -0.32766156234E+03 -0.29028373907E+03  0.93790748551E+03  0.00000000000E+00 0.  1.
         22    1    1    2    0    0 -0.14894274925E+04  0.53575094099E+03 -0.90071206926E+03  0.18211824615E+04  0.00000000000E+00 0.  1.
<mgrwt>
<rscale>  0 0.31816329E+04</rscale>
<asrwt>0</asrwt>
<pdfrwt beam="1">  1        2 0.38369499E+00 0.31816329E+04</pdfrwt>
<pdfrwt beam="2">  1       -2 0.15610877E+00 0.31816329E+04</pdfrwt>
<totfact> 0.79678054E-01</totfact>
</mgrwt>
</event>
<event>
 6    1  0.1028026E-006  0.1707104E+04  0.7818608E-02  0.8757323E-01
          2   -1    0    0  501    0  0.00000000000E+00  0.00000000000E+00  0.21471337588E+04  0.21471337588E+04  0.00000000000E+00 0. -1.
         -2   -1    0    0    0  501 -0.00000000000E+00 -0.00000000000E+00 -0.33931314023E+03  0.33931314023E+03  0.00000000000E+00 0.  1.
         23    2    1    2    0    0  0.65006754237E+03 -0.11601442609E+03  0.12413433263E+03  0.67789867844E+03  0.89945144351E+02 0.  0.
         11    1    3    3    0    0  0.24544789389E+03 -0.77228636098E+02  0.18794430443E+02  0.25799643693E+03  0.00000000000E+00 0. -1.
        -11    1    3    3    0    0  0.40461964848E+03 -0.38785789991E+02  0.10533990218E+03  0.41990224152E+03  0.00000000000E+00 0.  1.
         22    1    1    2    0    0 -0.65006754237E+03  0.11601442609E+03  0.16836862859E+04  0.18085482205E+04  0.00000000000E+00 0. -1.
<mgrwt>
<rscale>  0 0.17071036E+04</rscale>
<asrwt>0</asrwt>
<pdfrwt beam="1">  1        2 0.33032826E+00 0.17071036E+04</pdfrwt>
<pdfrwt beam="2">  1       -2 0.52202023E-01 0.17071036E+04</pdfrwt>
<totfact> 0.18222326E+01</totfact>
</mgrwt>
</event>
<event>
 6    1  0.1028026E-006  0.5753782E+03  0.7818608E-02  0.9957847E-01
          1   -1    0    0  501    0  0.00000000000E+00  0.00000000000E+00  0.13604322838E+04  0.13604322838E+04  0.00000000000E+00 0. -1.
         -1   -1    0    0    0  501 -0.00000000000E+00 -0.00000000000E+00 -0.60837302077E+02  0.60837302077E+02  0.00000000000E+00 0.  1.
         23    2    1    2    0    0 -0.14992692499E+03 -0.18872008707E+03  0.30999736374E+03  0.40274280684E+03  0.89498876163E+02 0.  0.
         11    1    3    3    0    0 -0.33380852496E+02 -0.53274198706E+02  0.27821800214E+02  0.68749357294E+02  0.00000000000E+00 0.  1.
        -11    1    3    3    0    0 -0.11654607249E+03 -0.13544588836E+03  0.28217556353E+03  0.33399344955E+03  0.00000000000E+00 0. -1.
         22    1    1    2    0    0  0.14992692499E+03  0.18872008707E+03  0.98959761801E+03  0.10185267791E+04  0.00000000000E+00 0. -1.
<mgrwt>
<rscale>  0 0.57537824E+03</rscale>
<asrwt>0</asrwt>
<pdfrwt beam="1">  1        1 0.20929725E+00 0.57537824E+03</pdfrwt>
<pdfrwt beam="2">  1       -1 0.93595859E-02 0.57537824E+03</pdfrwt>
<totfact> 0.58759231E+02</totfact>
</mgrwt>
</event>
<event>
 6    1  0.1028026E-006  0.1141948E+04  0.7818608E-02  0.9165244E-01
          1   -1    0    0  501    0  0.00000000000E+00  0.00000000000E+00  0.40584359481E+03  0.40584359481E+03  0.00000000000E+00 0. -1.
         -1   -1    0    0    0  501 -0.00000000000E+00 -0.00000000000E+00 -0.80329301931E+03  0.80329301931E+03  0.00000000000E+00 0.  1.
         23    2    1    2    0    0  0.56542320787E+03  0.14892182240E+02 -0.15402730641E+03  0.59336107980E+03  0.91802934618E+02 0.  0.
         13    1    3    3    0    0  0.37209301568E+03  0.27350099941E+02 -0.59545674492E+02  0.37781864384E+03  0.00000000000E+00 0. -1.
        -13    1    3    3    0    0  0.19333019219E+03 -0.12457917701E+02 -0.94481631921E+02  0.21554243595E+03  0.00000000000E+00 0.  1.
         22    1    1    2    0    0 -0.56542320787E+03 -0.14892182240E+02 -0.24342211809E+03  0.61577553432E+03  0.00000000000E+00 0.  1.
<mgrwt>
<rscale>  0 0.11419480E+04</rscale>
<asrwt>0</asrwt>
<pdfrwt beam="1">  1        1 0.62437477E-01 0.11419480E+04</pdfrwt>
<pdfrwt beam="2">  1       -1 0.12358354E+00 0.11419480E+04</pdfrwt>
<totfact> 0.33676755E+01</totfact>
</mgrwt>
</event>
<event>
 6    1  0.1028026E-006  0.4820106E+04  0.7818608E-02  0.7856873E-01
          2   -1    0    0  501    0  0.00000000000E+00  0.00000000000E+00  0.22443602742E+04  0.22443602742E+04  0.00000000000E+00 0. -1.
         -2   -1    0    0    0  501 -0.00000000000E+00 -0.00000000000E+00 -0.25879783173E+04  0.25879783173E+04  0.00000000000E+00 0.  1.
         23    2    1    2    0    0 -0.18189177355E+04  0.15786304342E+04 -0.11068502363E+03  0.24126705218E+04  0.90510198071E+02 0.  0.
         11    1    3    3    0    0 -0.16113716514E+04  0.14343412546E+04 -0.93164149343E+02  0.21592899278E+04  0.00000000000E+00 0. -1.
        -11    1    3    3    0    0 -0.20754608411E+03  0.14428917963E+03 -0.17520874285E+02  0.25338059402E+03  0.00000000000E+00 0.  1.
         22    1    1    2    0    0  0.18189177355E+04 -0.15786304342E+04 -0.23293301947E+03  0.24196680698E+04  0.00000000000E+00 0.  1.
<mgrwt>
<rscale>  0 0.48201061E+04</rscale>
<asrwt>0</asrwt>
<pdfrwt beam="1">  1        2 0.34528620E+00 0.48201061E+04</pdfrwt>
<pdfrwt beam="2">  1       -2 0.39815051E+00 0.48201061E+04</pdfrwt>
<totfact> 0.27488170E-02</totfact>
</mgrwt>
</event>
<event>
 6    1  0.1028026E-006  0.3216126E+04  0.7818608E-02  0.8184571E-01
         -1   -1    0    0    0  501 -0.00000000000E+00  0.00000000000E+00  0.14629063771E+04  0.14629063771E+04  0.00000000000E+00 0.  1.
          1   -1    0    0  501    0  0.00000000000E+00 -0.00000000000E+00 -0.17676228458E+04  0.17676228458E+04  0.00000000000E+00 0. -1.
         23    2    1    2    0    0  0.13619393761E+04  0.47797557375E+03 -0.86156732627E+03  0.16834602551E+04  0.91655111120E+02 0.  0.
         11    1    3    3    0    0  0.27899813040E+03  0.13754359724E+03 -0.19016120333E+03  0.36458124082E+03  0.00000000000E+00 0.  1.
        -11    1    3    3    0    0  0.10829412457E+04  0.34043197651E+03 -0.67140612294E+03  0.13188790143E+04  0.00000000000E+00 0. -1.
         22    1    1    2    0    0 -0.13619393761E+04 -0.47797557375E+03  0.55685085756E+03  0.15470689677E+04  0.00000000000E+00 0.  1.
<mgrwt>
<rscale>  0 0.32161261E+04</rscale>
<asrwt>0</asrwt>
<pdfrwt beam="1">  1        1 0.27194198E+00 0.32161261E+04</pdfrwt>
<pdfrwt beam="2">  1       -1 0.22506252E+00 0.32161261E+04</pdfrwt>
<totfact> 0.36457386E-01</totfact>
</mgrwt>
</event>
<event>
 6    1  0.1028026E-006  0.1464233E+04  0.7818608E-02  0.8908593E-01
          1   -1    0    0  501    0  0.00000000000E+00  0.00000000000E+00  0.11906978140E+04  0.11906978140E+04  0.00000000000E+00 0. -1.
         -1   -1    0    0    0  501 -0.00000000000E+00 -0.00000000000E+00 -0.45015133821E+03  0.45015133821E+03  0.00000000000E+00 0.  1.
         23    2    1    2    0    0 -0.21890114507E+03 -0.17497257262E+03  0.11262036541E+04  0.11641264113E+04  0.91227838089E+02 0.  0.
         11    1    3    3    0    0 -0.11123734708E+03 -0.96175413116E+02  0.40930313305E+03  0.43491667271E+03  0.00000000000E+00 0. -1.
        -11    1    3    3    0    0 -0.10766379798E+03 -0.78797159506E+02  0.71690052107E+03  0.72920973859E+03  0.00000000000E+00 0.  1.
         22    1    1    2    0    0  0.21890114507E+03  0.17497257262E+03 -0.38565717834E+03  0.47672274090E+03  0.00000000000E+00 0.  1.
<mgrwt>
<rscale>  0 0.14642325E+04</rscale>
<asrwt>0</asrwt>
<pdfrwt beam="1">  1        1 0.18318428E+00 0.14642325E+04</pdfrwt>
<pdfrwt beam="2">  1       -1 0.69254052E-01 0.14642325E+04</pdfrwt>
<totfact> 0.22211765E+01</totfact>
</mgrwt>
</event>
<event>
 6    1  0.1028026E-006  0.1795495E+04  0.7818608E-02  0.8708699E-01
         -2   -1    0    0    0  501 -0.00000000000E+00  0.00000000000E+00  0.10321673314E+04  0.10321673314E+04  0.00000000000E+00 0.  1.
          2   -1    0    0  501    0  0.00000000000E+00 -0.00000000000E+00 -0.78083307420E+03  0.78083307420E+03  0.00000000000E+00 0. -1.
         23    2    1    2    0    0  0.19950359808E+03 -0.79552700351E+03  0.48888837840E+03  0.95912871772E+03  0.90835850032E+02 0.  0.
         13    1    3    3    0    0  0.18835176197E+03 -0.63170639961E+03  0.41600537481E+03  0.77948048944E+03  0.00000000000E+00 0.  1.
        -13    1    3    3    0    0  0.11151836117E+02 -0.16382060390E+03  0.72883003585E+02  0.17964822827E+03  0.00000000000E+00 0. -1.
         22    1    1    2    0    0 -0.19950359808E+03  0.79552700351E+03 -0.23755412115E+03  0.85387168792E+03  0.00000000000E+00 0. -1.
<mgrwt>
<rscale>  0 0.17954948E+04</rscale>
<asrwt>0</asrwt>
<pdfrwt beam="1">  1        2 0.12012816E+00 0.17954948E+04</pdfrwt>
<pdfrwt beam="2">  1       -2 0.15879497E+00 0.17954948E+04</pdfrwt>
<totfact> 0.86340453E+00</totfact>
</mgrwt>
</event>
<event>
 6    1  0.1028026E-006  0.3064488E+04  0.7818608E-02  0.8225552E-01
         -2   -1    0    0    0  501 -0.00000000000E+00  0.00000000000E+00  0.61134334566E+03  0.61134334566E+03  0.00000000000E+00 0.  1.
          2   -1    0    0  501    0  0.00000000000E+00 -0.00000000000E+00 -0.38403484613E+04  0.38403484613E+04  0.00000000000E+00 0. -1.
         23    2    1    2    0    0  0.67158299806E+03 -0.77735985759E+03 -0.32648166580E+04  0.34237839618E+04  0.89200534509E+02 0.  0.
         13    1    3    3    0    0  0.47053793278E+03 -0.54048324345E+03 -0.21367841656E+04  0.22537468032E+04  0.00000000000E+00 0.  1.
        -13    1    3    3    0    0  0.20104506529E+03 -0.23687661414E+03 -0.11280324924E+04  0.11700371586E+04  0.00000000000E+00 0. -1.
         22    1    1    2    0    0 -0.67158299806E+03  0.77735985759E+03  0.35811542389E+02  0.10279078451E+04  0.00000000000E+00 0.  1.
<mgrwt>
<rscale>  0 0.30644879E+04</rscale>
<asrwt>0</asrwt>
<pdfrwt beam="1">  1        2 0.59082283E+00 0.30644879E+04</pdfrwt>
<pdfrwt beam="2">  1       -2 0.94052823E-01 0.30644879E+04</pdfrwt>
<totfact> 0.37122198E-01</totfact>
</mgrwt>
</event>
<event>
 6    1  0.1028026E-006  0.4680565E+04  0.7818608E-02  0.7879766E-01
         -2   -1    0    0    0  501 -0.00000000000E+00  0.00000000000E+00  0.20520688700E+04  0.20520688700E+04  0.00000000000E+00 0.  1.
          2   -1    0    0  501    0  0.00000000000E+00 -0.00000000000E+00 -0.26689757596E+04  0.26689757596E+04  0.00000000000E+00 0. -1.
         23    2    1    2    0    0  0.40733782668E+03 -0.17248525950E+04 -0.18487890699E+04  0.25626715651E+04  0.90685975665E+02 0.  0.
         13    1    3    3    0    0  0.38369471152E+02 -0.82648522783E+02 -0.83994565037E+02  0.12392772729E+03  0.00000000000E+00 0.  1.
        -13    1    3    3    0    0  0.36896835553E+03 -0.16422040722E+04 -0.17647945049E+04  0.24387438378E+04  0.00000000000E+00 0. -1.
         22    1    1    2    0    0 -0.40733782668E+03  0.17248525950E+04  0.12318821803E+04  0.21583730645E+04  0.00000000000E+00 0. -1.
<mgrwt>
<rscale>  0 0.46805650E+04</rscale>
<asrwt>0</asrwt>
<pdfrwt beam="1">  1        2 0.41061166E+00 0.46805650E+04</pdfrwt>
<pdfrwt beam="2">  1       -2 0.31570290E+00 0.46805650E+04</pdfrwt>
<totfact> 0.52657593E-02</totfact>
</mgrwt>
</event>
<event>
 6    1  0.1028026E-006  0.5256650E+04  0.7818608E-02  0.7790092E-01
         -2   -1    0    0    0  501 -0.00000000000E+00  0.00000000000E+00  0.44082157025E+04  0.44082157025E+04  0.00000000000E+00 0.  1.
          2   -1    0    0  501    0  0.00000000000E+00 -0.00000000000E+00 -0.15670951425E+04  0.15670951425E+04  0.00000000000E+00 0. -1.
         23    2    1    2    0    0  0.19039487747E+04  0.42684272319E+03  0.34213921449E+04  0.39396461478E+04  0.87589459817E+02 0.  0.
         11    1    3    3    0    0  0.17104228295E+04  0.36745563579E+03  0.30210252323E+04  0.34910117952E+04  0.00000000000E+00 0. -1.
        -11    1    3    3    0    0  0.19352594522E+03  0.59387087403E+02  0.40036691266E+03  0.44863435265E+03  0.00000000000E+00 0.  1.
         22    1    1    2    0    0 -0.19039487747E+04 -0.42684272319E+03 -0.58027158486E+03  0.20356646972E+04  0.00000000000E+00 0. -1.
<mgrwt>
<rscale>  0 0.52566504E+04</rscale>
<asrwt>0</asrwt>
<pdfrwt beam="1">  1        2 0.24109156E+00 0.52566504E+04</pdfrwt>
<pdfrwt beam="2">  1       -2 0.67818703E+00 0.52566504E+04</pdfrwt>
<totfact> 0.22737846E-03</totfact>
</mgrwt>
</event>
<event>
 6    1  0.1028026E-006  0.6402014E+03  0.7818608E-02  0.9825341E-01
          2   -1    0    0  501    0  0.00000000000E+00  0.00000000000E+00  0.25687758027E+04  0.25687758027E+04  0.00000000000E+00 0. -1.
         -2   -1    0    0    0  501 -0.00000000000E+00 -0.00000000000E+00 -0.39888439199E+02  0.39888439199E+02  0.00000000000E+00 0.  1.
         23    2    1    2    0    0 -0.20188122480E+02 -0.70413913723E+02  0.25326061135E+04  0.25353191082E+04  0.91561865146E+02 0.  0.
         11    1    3    3    0    0  0.25195782398E+02 -0.37948790102E+02  0.53559157042E+03  0.53752513284E+03  0.00000000000E+00 0.  1.
        -11    1    3    3    0    0 -0.45383904878E+02 -0.32465123621E+02  0.19970145430E+04  0.19977939754E+04  0.00000000000E+00 0. -1.
         22    1    1    2    0    0  0.20188122480E+02  0.70413913723E+02 -0.37187499242E+01  0.73345133691E+02  0.00000000000E+00 0.  1.
<mgrwt>
<rscale>  0 0.64020140E+03</rscale>
<asrwt>0</asrwt>
<pdfrwt beam="1">  1        2 0.39519615E+00 0.64020140E+03</pdfrwt>
<pdfrwt beam="2">  1       -2 0.61366850E-02 0.64020140E+03</pdfrwt>
<totfact> 0.49971559E+02</totfact>
</mgrwt>
</event>
<event>
 6    1  0.1028026E-006  0.1020876E+04  0.7818608E-02  0.9285940E-01
         -1   -1    0    0    0  501 -0.00000000000E+00  0.00000000000E+00  0.15326934686E+03  0.15326934686E+03  0.00000000000E+00 0.  1.
          1   -1    0    0  501    0  0.00000000000E+00 -0.00000000000E+00 -0.16999286393E+04  0.16999286393E+04  0.00000000000E+00 0. -1.
         23    2    1    2    0    0 -0.84566942241E+02  0.48164416282E+03 -0.54127001312E+03  0.73519070969E+03  0.91648705440E+02 0.  0.
         11    1    3    3    0    0 -0.65142414876E+02  0.13831129081E+03 -0.18565258834E+03  0.24050037617E+03  0.00000000000E+00 0.  1.
        -11    1    3    3    0    0 -0.19424527365E+02  0.34333287201E+03 -0.35561742478E+03  0.49469033351E+03  0.00000000000E+00 0. -1.
         22    1    1    2    0    0  0.84566942241E+02 -0.48164416282E+03 -0.10053892794E+04  0.11180072765E+04  0.00000000000E+00 0. -1.
<mgrwt>
<rscale>  0 0.10208760E+04</rscale>
<asrwt>0</asrwt>
<pdfrwt beam="1">  1        1 0.26152748E+00 0.10208760E+04</pdfrwt>
<pdfrwt beam="2">  1       -1 0.23579900E-01 0.10208760E+04</pdfrwt>
<totfact> 0.73992886E+01</totfact>
</mgrwt>
</event>
<event>
 6    1  0.1028026E-006  0.2954450E+04  0.7818608E-02  0.8256859E-01
          2   -1    0    0  501    0  0.00000000000E+00  0.00000000000E+00  0.27038064190E+04  0.27038064190E+04  0.00000000000E+00 0. -1.
         -2   -1    0    0    0  501 -0.00000000000E+00 -0.00000000000E+00 -0.80708202359E+03  0.80708202359E+03  0.00000000000E+00 0.  1.
         23    2    1    2    0    0  0.10070640719E+04  0.76562931088E+03  0.45932287808E+02  0.12690593429E+04  0.89641253301E+02 0.  0.
         11    1    3    3    0    0  0.54207675584E+03  0.42650261162E+03 -0.18143155965E+02  0.68998613106E+03  0.00000000000E+00 0. -1.
        -11    1    3    3    0    0  0.46498731602E+03  0.33912669926E+03  0.64075443773E+02  0.57907321187E+03  0.00000000000E+00 0.  1.
         22    1    1    2    0    0 -0.10070640719E+04 -0.76562931088E+03  0.18507921076E+04  0.22418290997E+04  0.00000000000E+00 0. -1.
<mgrwt>
<rscale>  0 0.29544499E+04</rscale>
<asrwt>0</asrwt>
<pdfrwt beam="1">  1        2 0.41597021E+00 0.29544499E+04</pdfrwt>
<pdfrwt beam="2">  1       -2 0.12416647E+00 0.29544499E+04</pdfrwt>
<totfact> 0.11063403E+00</totfact>
</mgrwt>
</event>
<event>
 6    1  0.1028026E-006  0.2802592E+04  0.7818608E-02  0.8302464E-01
          2   -1    0    0  501    0  0.00000000000E+00  0.00000000000E+00  0.12172125384E+04  0.12172125384E+04  0.00000000000E+00 0. -1.
         -2   -1    0    0    0  501 -0.00000000000E+00 -0.00000000000E+00 -0.16132185976E+04  0.16132185976E+04  0.00000000000E+00 0.  1.
         23    2    1    2    0    0  0.88378342825E+03 -0.18810865789E+02  0.89759805770E+03  0.12636386776E+04  0.98353635252E+02 0.  0.
         13    1    3    3    0    0  0.19297735734E+03 -0.44471845026E+02  0.19129629500E+03  0.27534029477E+03  0.00000000000E+00 0. -1.
        -13    1    3    3    0    0  0.69080607091E+03  0.25660979237E+02  0.70630176270E+03  0.98829838280E+03  0.00000000000E+00 0.  1.
         22    1    1    2    0    0 -0.88378342825E+03  0.18810865789E+02 -0.12936041169E+04  0.15667924585E+04  0.00000000000E+00 0.  1.
<mgrwt>
<rscale>  0 0.28025916E+04</rscale>
<asrwt>0</asrwt>
<pdfrwt beam="1">  1        2 0.18726347E+00 0.28025916E+04</pdfrwt>
<pdfrwt beam="2">  1       -2 0.24818747E+00 0.28025916E+04</pdfrwt>
<totfact> 0.10610503E+00</totfact>
</mgrwt>
</event>
<event>
 6    1  0.1028026E-006  0.5651870E+04  0.7818608E-02  0.7735131E-01
          1   -1    0    0  501    0  0.00000000000E+00  0.00000000000E+00  0.36387984312E+04  0.36387984312E+04  0.00000000000E+00 0. -1.
         -1   -1    0    0    0  501 -0.00000000000E+00 -0.00000000000E+00 -0.21946557233E+04  0.21946557233E+04  0.00000000000E+00 0.  1.
         23    2    1    2    0    0  0.39173773524E+03 -0.15341783317E+03  0.36057188083E+04  0.36313173008E+04  0.90894059254E+02 0.  0.
         11    1    3    3    0    0  0.22670594214E+03 -0.62835242912E+02  0.23185436946E+04  0.23304481792E+04  0.00000000000E+00 0. -1.
        -11    1    3    3    0    0  0.16503179310E+03 -0.90582590262E+02  0.12871751137E+04  0.13008691217E+04  0.00000000000E+00 0.  1.
         22    1    1    2    0    0 -0.39173773524E+03  0.15341783317E+03 -0.21615761003E+04  0.22021368537E+04  0.00000000000E+00 0.  1.
<mgrwt>
<rscale>  0 0.56518704E+04</rscale>
<asrwt>0</asrwt>
<pdfrwt beam="1">  1        1 0.55981514E+00 0.56518704E+04</pdfrwt>
<pdfrwt beam="2">  1       -1 0.33763934E+00 0.56518704E+04</pdfrwt>
<totfact> 0.24859810E-03</totfact>
</mgrwt>
</event>
<event>
 6    1  0.1028026E-006  0.1847444E+04  0.7818608E-02  0.8681468E-01
          2   -1    0    0  501    0  0.00000000000E+00  0.00000000000E+00  0.15279607966E+04  0.15279607966E+04  0.00000000000E+00 0. -1.
         -2   -1    0    0    0  501 -0.00000000000E+00 -0.00000000000E+00 -0.55843218650E+03  0.55843218650E+03  0.00000000000E+00 0.  1.
         23    2    1    2    0    0 -0.89022423623E+03 -0.33872133533E+02  0.21945544373E+03  0.92180882249E+03  0.89018544314E+02 0.  0.
         13    1    3    3    0    0 -0.37633934281E+03  0.18626673586E+02  0.12263029881E+03  0.39625300516E+03  0.00000000000E+00 0. -1.
        -13    1    3    3    0    0 -0.51388489342E+03 -0.52498807119E+02  0.96825144928E+02  0.52555581733E+03  0.00000000000E+00 0.  1.
         22    1    1    2    0    0  0.89022423623E+03  0.33872133533E+02  0.75007316633E+03  0.11645841606E+04  0.00000000000E+00 0. -1.
<mgrwt>
<rscale>  0 0.18474442E+04</rscale>
<asrwt>0</asrwt>
<pdfrwt beam="1">  1        2 0.23507089E+00 0.18474442E+04</pdfrwt>
<pdfrwt beam="2">  1       -2 0.85912645E-01 0.18474442E+04</pdfrwt>
<totfact> 0.13537669E+01</totfact>
</mgrwt>
</event>
<event>
 6    1  0.1028026E-006  0.1949189E+04  0.7818608E-02  0.8630752E-01
         -2   -1    0    0    0  501 -0.00000000000E+00  0.00000000000E+00  0.65983487993E+03  0.65983487993E+03  0.00000000000E+00 0.  1.
          2   -1    0    0  501    0  0.00000000000E+00 -0.00000000000E+00 -0.14395034686E+04  0.14395034686E+04  0.00000000000E+00 0. -1.
         23    2    1    2    0    0 -0.92952293595E+03  0.17393007909E+03 -0.63249218003E+03  0.11422984036E+04  0.10263880450E+03 0.  0.
         11    1    3    3    0    0 -0.99094836257E+02  0.89685794275E+00 -0.99800001451E+02  0.14064363198E+03  0.00000000000E+00 0. -1.
        -11    1    3    3    0    0 -0.83042809969E+03  0.17303322115E+03 -0.53269217858E+03  0.10016547716E+04  0.00000000000E+00 0.  1.
         22    1    1    2    0    0  0.92952293595E+03 -0.17393007909E+03 -0.14717640860E+03  0.95703994489E+03  0.00000000000E+00 0. -1.
<mgrwt>
<rscale>  0 0.19491892E+04</rscale>
<asrwt>0</asrwt>
<pdfrwt beam="1">  1        2 0.22146207E+00 0.19491892E+04</pdfrwt>
<pdfrwt beam="2">  1       -2 0.10151306E+00 0.19491892E+04</pdfrwt>
<totfact> 0.10215374E+01</totfact>
</mgrwt>
</event>
<event>
 6    1  0.1028026E-006  0.1474160E+04  0.7818608E-02  0.8901821E-01
          2   -1    0    0  501    0  0.00000000000E+00  0.00000000000E+00  0.21357765269E+03  0.21357765269E+03  0.00000000000E+00 0. -1.
         -2   -1    0    0    0  501 -0.00000000000E+00 -0.00000000000E+00 -0.25437433227E+04  0.25437433227E+04  0.00000000000E+00 0.  1.
         23    2    1    2    0    0  0.52154385189E+02  0.27449646632E+03 -0.24395594424E+04  0.24572620022E+04  0.92832562366E+02 0.  0.
         11    1    3    3    0    0  0.49608092394E+02  0.20338936050E+03 -0.14356141504E+04  0.14507984641E+04  0.00000000000E+00 0. -1.
        -11    1    3    3    0    0  0.25462927951E+01  0.71107105827E+02 -0.10039452920E+04  0.10064635381E+04  0.00000000000E+00 0.  1.
         22    1    1    2    0    0 -0.52154385189E+02 -0.27449646632E+03  0.10939377241E+03  0.30005897314E+03  0.00000000000E+00 0. -1.
<mgrwt>
<rscale>  0 0.14741597E+04</rscale>
<asrwt>0</asrwt>
<pdfrwt beam="1">  1        2 0.32858098E-01 0.14741597E+04</pdfrwt>
<pdfrwt beam="2">  1       -2 0.39134516E+00 0.14741597E+04</pdfrwt>
<totfact> 0.13275798E+00</totfact>
</mgrwt>
</event>
<event>
 6    1  0.1028026E-006  0.2343033E+04  0.7818608E-02  0.8461145E-01
          1   -1    0    0  501    0  0.00000000000E+00  0.00000000000E+00  0.10030539510E+04  0.10030539510E+04  0.00000000000E+00 0. -1.
         -1   -1    0    0    0  501 -0.00000000000E+00 -0.00000000000E+00 -0.13682720201E+04  0.13682720201E+04  0.00000000000E+00 0.  1.
         23    2    1    2    0    0  0.11158154684E+03 -0.11036595272E+04 -0.55879251418E+03  0.12452771892E+04  0.89170682647E+02 0.  0.
         13    1    3    3    0    0  0.83292649153E+02 -0.56411412689E+03 -0.24649352233E+03  0.62122578030E+03  0.00000000000E+00 0. -1.
        -13    1    3    3    0    0  0.28288897689E+02 -0.53954540027E+03 -0.31229899185E+03  0.62405140894E+03  0.00000000000E+00 0.  1.
         22    1    1    2    0    0 -0.11158154684E+03  0.11036595272E+04  0.19357444507E+03  0.11260487819E+04  0.00000000000E+00 0. -1.
<mgrwt>
<rscale>  0 0.23430328E+04</rscale>
<asrwt>0</asrwt>
<pdfrwt beam="1">  1        1 0.15431599E+00 0.23430328E+04</pdfrwt>
<pdfrwt beam="2">  1       -1 0.21050339E+00 0.23430328E+04</pdfrwt>
<totfact> 0.17284289E+00</totfact>
</mgrwt>
</event>
<event>
 6    1  0.1028026E-006  0.2371846E+04  0.7818608E-02  0.8450120E-01
         -2   -1    0    0    0  501 -0.00000000000E+00  0.00000000000E+00  0.12883734923E+04  0.12883734923E+04  0.00000000000E+00 0.  1.
          2   -1    0    0  501    0  0.00000000000E+00 -0.00000000000E+00 -0.10916189089E+04  0.10916189089E+04  0.00000000000E+00 0. -1.
         23    2    1    2    0    0  0.67788853010E+03 -0.23309485316E+03 -0.84746063103E+03  0.11134019056E+04  0.87225067208E+02 0.  0.
         11    1    3    3    0    0  0.35436038870E+03 -0.16779204421E+03 -0.46076888560E+03  0.60500695956E+03  0.00000000000E+00 0.  1.
        -11    1    3    3    0    0  0.32352814140E+03 -0.65302808951E+02 -0.38669174543E+03  0.50839494600E+03  0.00000000000E+00 0. -1.
         22    1    1    2    0    0 -0.67788853010E+03  0.23309485316E+03  0.10442152144E+04  0.12665904957E+04  0.00000000000E+00 0.  1.
<mgrwt>
<rscale>  0 0.23718456E+04</rscale>
<asrwt>0</asrwt>
<pdfrwt beam="1">  1        2 0.16794137E+00 0.23718456E+04</pdfrwt>
<pdfrwt beam="2">  1       -2 0.19821131E+00 0.23718456E+04</pdfrwt>
<totfact> 0.27152974E+00</totfact>
</mgrwt>
</event>
<event>
 6    1  0.1028026E-006  0.2026317E+04  0.7818608E-02  0.8594415E-01
          1   -1    0    0  501    0  0.00000000000E+00  0.00000000000E+00  0.19649726655E+04  0.19649726655E+04  0.00000000000E+00 0. -1.
         -1   -1    0    0    0  501 -0.00000000000E+00 -0.00000000000E+00 -0.52239412852E+03  0.52239412852E+03  0.00000000000E+00 0.  1.
         23    2    1    2    0    0 -0.16943315946E+03 -0.14126355415E+03  0.19340122156E+04  0.19486924511E+04  0.91301870490E+02 0.  0.
         11    1    3    3    0    0 -0.15454004751E+03 -0.14496121250E+03  0.15550027747E+04  0.15693724888E+04  0.00000000000E+00 0.  1.
        -11    1    3    3    0    0 -0.14893111951E+02  0.36976583520E+01  0.37900944087E+03  0.37931996220E+03  0.00000000000E+00 0. -1.
         22    1    1    2    0    0  0.16943315946E+03  0.14126355415E+03 -0.49143367862E+03  0.53867434294E+03  0.00000000000E+00 0.  1.
<mgrwt>
<rscale>  0 0.20263170E+04</rscale>
<asrwt>0</asrwt>
<pdfrwt beam="1">  1        1 0.30230348E+00 0.20263170E+04</pdfrwt>
<pdfrwt beam="2">  1       -1 0.80368329E-01 0.20263170E+04</pdfrwt>
<totfact> 0.44997449E+00</totfact>
</mgrwt>
</event>
<event>
 6    1  0.1028026E-006  0.1627869E+04  0.7818608E-02  0.8803608E-01
          2   -1    0    0  501    0  0.00000000000E+00  0.00000000000E+00  0.63679220972E+03  0.63679220972E+03  0.00000000000E+00 0. -1.
         -2   -1    0    0    0  501 -0.00000000000E+00 -0.00000000000E+00 -0.10403537731E+04  0.10403537731E+04  0.00000000000E+00 0.  1.
         23    2    1    2    0    0  0.14646526649E+03 -0.23216493455E+03 -0.98904449258E+03  0.10305062906E+04  0.91550945495E+02 0.  0.
         13    1    3    3    0    0  0.44703298327E+02 -0.14952515893E+02 -0.21685557919E+03  0.22191959093E+03  0.00000000000E+00 0.  1.
        -13    1    3    3    0    0  0.10176196816E+03 -0.21721241866E+03 -0.77218891340E+03  0.80858669972E+03  0.00000000000E+00 0. -1.
         22    1    1    2    0    0 -0.14646526649E+03  0.23216493455E+03  0.58548292920E+03  0.64663969219E+03  0.00000000000E+00 0. -1.
<mgrwt>
<rscale>  0 0.16278688E+04</rscale>
<asrwt>0</asrwt>
<pdfrwt beam="1">  1        2 0.97968032E-01 0.16278688E+04</pdfrwt>
<pdfrwt beam="2">  1       -2 0.16005443E+00 0.16278688E+04</pdfrwt>
<totfact> 0.11097052E+01</totfact>
</mgrwt>
</event>
<event>
 6    1  0.1028026E-006  0.1253400E+04  0.7818608E-02  0.9067358E-01
          1   -1    0    0  501    0  0.00000000000E+00  0.00000000000E+00  0.71697562420E+03  0.71697562420E+03  0.00000000000E+00 0. -1.
         -1   -1    0    0    0  501 -0.00000000000E+00 -0.00000000000E+00 -0.54779121781E+03  0.54779121781E+03  0.00000000000E+00 0.  1.
         23    2    1    2    0    0 -0.29210779920E+03  0.28018531405E+01  0.64063725679E+03  0.71014750689E+03  0.92512539786E+02 0.  0.
         11    1    3    3    0    0 -0.62431581128E+02  0.38615751267E+02  0.13603215971E+03  0.15457563535E+03  0.00000000000E+00 0. -1.
        -11    1    3    3    0    0 -0.22967621807E+03 -0.35813898127E+02  0.50460509708E+03  0.55557187154E+03  0.00000000000E+00 0.  1.
         22    1    1    2    0    0  0.29210779920E+03 -0.28018531405E+01 -0.47145285040E+03  0.55461933512E+03  0.00000000000E+00 0.  1.
<mgrwt>
<rscale>  0 0.12534001E+04</rscale>
<asrwt>0</asrwt>
<pdfrwt beam="1">  1        1 0.11030394E+00 0.12534001E+04</pdfrwt>
<pdfrwt beam="2">  1       -1 0.84275572E-01 0.12534001E+04</pdfrwt>
<totfact> 0.36132387E+01</totfact>
</mgrwt>
</event>
<event>
 6    1  0.1028026E-006  0.7087430E+03  0.7818608E-02  0.9702396E-01
          1   -1    0    0  501    0  0.00000000000E+00  0.00000000000E+00  0.38606241300E+03  0.38606241300E+03  0.00000000000E+00 0. -1.
         -1   -1    0    0    0  501 -0.00000000000E+00 -0.00000000000E+00 -0.32528205183E+03  0.32528205183E+03  0.00000000000E+00 0.  1.
         23    2    1    2    0    0  0.11154046263E+03  0.32895499646E+03  0.60200272041E+02  0.36399305631E+03  0.90632266819E+02 0.  0.
         11    1    3    3    0    0  0.44986772823E+02  0.11165120699E+03 -0.21903191580E+02  0.12235011873E+03  0.00000000000E+00 0.  1.
        -11    1    3    3    0    0  0.66553689808E+02  0.21730378947E+03  0.82103463621E+02  0.24164293759E+03  0.00000000000E+00 0. -1.
         22    1    1    2    0    0 -0.11154046263E+03 -0.32895499646E+03  0.58008912644E+00  0.34735140852E+03  0.00000000000E+00 0.  1.
<mgrwt>
<rscale>  0 0.70874304E+03</rscale>
<asrwt>0</asrwt>
<pdfrwt beam="1">  1        1 0.59394217E-01 0.70874304E+03</pdfrwt>
<pdfrwt beam="2">  1       -1 0.50043393E-01 0.70874304E+03</pdfrwt>
<totfact> 0.25547343E+02</totfact>
</mgrwt>
</event>
<event>
 6    1  0.1028026E-006  0.4815345E+04  0.7818608E-02  0.7857641E-01
         -1   -1    0    0    0  501 -0.00000000000E+00  0.00000000000E+00  0.28720696662E+04  0.28720696662E+04  0.00000000000E+00 0.  1.
          1   -1    0    0  501    0  0.00000000000E+00 -0.00000000000E+00 -0.20183659729E+04  0.20183659729E+04  0.00000000000E+00 0. -1.
         23    2    1    2    0    0 -0.94406386131E+03 -0.54881641395E+03 -0.17512802478E+04  0.20658299384E+04  0.90635520151E+02 0.  0.
         13    1    3    3    0    0 -0.65721628495E+03 -0.41392868901E+03 -0.11847648317E+04  0.14166643608E+04  0.00000000000E+00 0. -1.
        -13    1    3    3    0    0 -0.28684757637E+03 -0.13488772493E+03 -0.56651541615E+03  0.64916557760E+03  0.00000000000E+00 0.  1.
         22    1    1    2    0    0  0.94406386131E+03  0.54881641395E+03  0.26049839412E+04  0.28246057007E+04  0.00000000000E+00 0.  1.
<mgrwt>
<rscale>  0 0.48153453E+04</rscale>
<asrwt>0</asrwt>
<pdfrwt beam="1">  1        1 0.31051784E+00 0.48153453E+04</pdfrwt>
<pdfrwt beam="2">  1       -1 0.44185687E+00 0.48153453E+04</pdfrwt>
<totfact> 0.78233882E-03</totfact>
</mgrwt>
</event>
<event>
 6    1  0.1028026E-006  0.1141784E+04  0.7818608E-02  0.9165396E-01
          1   -1    0    0  501    0  0.00000000000E+00  0.00000000000E+00  0.15380266698E+04  0.15380266698E+04  0.00000000000E+00 0. -1.
         -1   -1    0    0    0  501 -0.00000000000E+00 -0.00000000000E+00 -0.21190650154E+03  0.21190650154E+03  0.00000000000E+00 0.  1.
         23    2    1    2    0    0 -0.52155998987E+03 -0.13681265028E+03  0.93678522471E+03  0.10848585721E+04  0.92784911832E+02 0.  0.
         13    1    3    3    0    0 -0.29423568934E+03 -0.76698435325E+02  0.61779788126E+03  0.68857208261E+03  0.00000000000E+00 0. -1.
        -13    1    3    3    0    0 -0.22732430053E+03 -0.60114214958E+02  0.31898734345E+03  0.39628648947E+03  0.00000000000E+00 0.  1.
         22    1    1    2    0    0  0.52155998987E+03  0.13681265028E+03  0.38933494355E+03  0.66507459926E+03  0.00000000000E+00 0. -1.
<mgrwt>
<rscale>  0 0.11417843E+04</rscale>
<asrwt>0</asrwt>
<pdfrwt beam="1">  1        1 0.23661948E+00 0.11417843E+04</pdfrwt>
<pdfrwt beam="2">  1       -1 0.32601001E-01 0.11417843E+04</pdfrwt>
<totfact> 0.53888235E+01</totfact>
</mgrwt>
</event>
<event>
 6    1  0.1028026E-006  0.1432687E+04  0.7818608E-02  0.8930492E-01
         -1   -1    0    0    0  501 -0.00000000000E+00  0.00000000000E+00  0.55372957923E+03  0.55372957923E+03  0.00000000000E+00 0.  1.
          1   -1    0    0  501    0  0.00000000000E+00 -0.00000000000E+00 -0.92671263772E+03  0.92671263772E+03  0.00000000000E+00 0. -1.
         23    2    1    2    0    0 -0.16972031843E+03 -0.38043145015E+03  0.41132359795E+03  0.59237127041E+03  0.90462948398E+02 0.  0.
         11    1    3    3    0    0 -0.84395953767E+02 -0.12502610482E+03  0.10116547030E+03  0.18162779600E+03  0.00000000000E+00 0. -1.
        -11    1    3    3    0    0 -0.85324364661E+02 -0.25540534532E+03  0.31015812765E+03  0.41074347441E+03  0.00000000000E+00 0.  1.
         22    1    1    2    0    0  0.16972031843E+03  0.38043145015E+03 -0.78430665644E+03  0.88807094653E+03  0.00000000000E+00 0. -1.
<mgrwt>
<rscale>  0 0.14326873E+04</rscale>
<asrwt>0</asrwt>
<pdfrwt beam="1">  1        1 0.14257117E+00 0.14326873E+04</pdfrwt>
<pdfrwt beam="2">  1       -1 0.85189167E-01 0.14326873E+04</pdfrwt>
<totfact> 0.22939699E+01</totfact>
</mgrwt>
</event>
<event>
 6    1  0.1028026E-006  0.3295957E+04  0.7818608E-02  0.8163925E-01
          2   -1    0    0  501    0  0.00000000000E+00  0.00000000000E+00  0.21749026791E+04  0.21749026791E+04  0.00000000000E+00 0. -1.
         -2   -1    0    0    0  501 -0.00000000000E+00 -0.00000000000E+00 -0.12487147916E+04  0.12487147916E+04  0.00000000000E+00 0.  1.
         23    2    1    2    0    0 -0.16088824232E+04  0.33077920332E+03  0.34151248561E+03  0.16801258996E+04  0.90965530723E+02 0.  0.
         13    1    3    3    0    0 -0.46786640278E+03  0.57894055121E+02  0.11514612578E+03  0.48529302772E+03  0.00000000000E+00 0.  1.
        -13    1    3    3    0    0 -0.11410160204E+04  0.27288514820E+03  0.22636635983E+03  0.11948328719E+04  0.00000000000E+00 0. -1.
         22    1    1    2    0    0  0.16088824232E+04 -0.33077920332E+03  0.58467540188E+03  0.17434915711E+04  0.00000000000E+00 0. -1.
<mgrwt>
<rscale>  0 0.32959570E+04</rscale>
<asrwt>0</asrwt>
<pdfrwt beam="1">  1        2 0.33460041E+00 0.32959570E+04</pdfrwt>
<pdfrwt beam="2">  1       -2 0.19210997E+00 0.32959570E+04</pdfrwt>
<totfact> 0.66869988E-01</totfact>
</mgrwt>
</event>
<event>
 6    1  0.1028026E-006  0.2685271E+04  0.7818608E-02  0.8339800E-01
         -2   -1    0    0    0  501 -0.00000000000E+00  0.00000000000E+00  0.15045208901E+04  0.15045208901E+04  0.00000000000E+00 0.  1.
          2   -1    0    0  501    0  0.00000000000E+00 -0.00000000000E+00 -0.11981689078E+04  0.11981689078E+04  0.00000000000E+00 0. -1.
         23    2    1    2    0    0  0.33609357388E+03 -0.37353044684E+03  0.14048365674E+04  0.14947360451E+04  0.90477502322E+02 0.  0.
         13    1    3    3    0    0  0.23463636023E+03 -0.31426179605E+03  0.11163714036E+04  0.11832581328E+04  0.00000000000E+00 0. -1.
        -13    1    3    3    0    0  0.10145721365E+03 -0.59268650791E+02  0.28846516378E+03  0.31147791235E+03  0.00000000000E+00 0.  1.
         22    1    1    2    0    0 -0.33609357388E+03  0.37353044684E+03 -0.10984845851E+04  0.12079537527E+04  0.00000000000E+00 0. -1.
<mgrwt>
<rscale>  0 0.26852710E+04</rscale>
<asrwt>0</asrwt>
<pdfrwt beam="1">  1        2 0.18433368E+00 0.26852710E+04</pdfrwt>
<pdfrwt beam="2">  1       -2 0.23146475E+00 0.26852710E+04</pdfrwt>
<totfact> 0.13961966E+00</totfact>
</mgrwt>
</event>
<event>
 6    1  0.1028026E-006  0.1014340E+04  0.7818608E-02  0.9292955E-01
         -1   -1    0    0    0  501 -0.00000000000E+00  0.00000000000E+00  0.16301814701E+04  0.16301814701E+04  0.00000000000E+00 0.  1.
          1   -1    0    0  501    0  0.00000000000E+00 -0.00000000000E+00 -0.15778702826E+03  0.15778702826E+03  0.00000000000E+00 0. -1.
         23    2    1    2    0    0 -0.36897268916E+02  0.36105603604E+03  0.12927615700E+03  0.39667787571E+03  0.94435918450E+02 0.  0.
         11    1    3    3    0    0 -0.22053915548E+02  0.15185261669E+03  0.63465968083E+01  0.15357692430E+03  0.00000000000E+00 0. -1.
        -11    1    3    3    0    0 -0.14843353368E+02  0.20920341935E+03  0.12292956019E+03  0.24310095141E+03  0.00000000000E+00 0.  1.
         22    1    1    2    0    0  0.36897268916E+02 -0.36105603604E+03  0.13431182848E+04  0.13912906226E+04  0.00000000000E+00 0.  1.
<mgrwt>
<rscale>  0 0.10143402E+04</rscale>
<asrwt>0</asrwt>
<pdfrwt beam="1">  1        1 0.24274929E-01 0.10143402E+04</pdfrwt>
<pdfrwt beam="2">  1       -1 0.25079714E+00 0.10143402E+04</pdfrwt>
<totfact> 0.14095073E+01</totfact>
</mgrwt>
</event>
<event>
 6    1  0.1028026E-006  0.1423060E+04  0.7818608E-02  0.8937294E-01
          2   -1    0    0  501    0  0.00000000000E+00  0.00000000000E+00  0.98836702919E+03  0.98836702919E+03  0.00000000000E+00 0. -1.
         -2   -1    0    0    0  501 -0.00000000000E+00 -0.00000000000E+00 -0.51223355045E+03  0.51223355045E+03  0.00000000000E+00 0.  1.
         23    2    1    2    0    0 -0.51453351992E+03 -0.47229476377E+03  0.36333341364E+03  0.79311846560E+03  0.96013769918E+02 0.  0.
         11    1    3    3    0    0 -0.55426485860E+02 -0.48751112742E+02  0.74709988995E+02  0.10502546731E+03  0.00000000000E+00 0. -1.
        -11    1    3    3    0    0 -0.45910703406E+03 -0.42354365103E+03  0.28862342464E+03  0.68809299829E+03  0.00000000000E+00 0.  1.
         22    1    1    2    0    0  0.51453351992E+03  0.47229476377E+03  0.11280006510E+03  0.70748211404E+03  0.00000000000E+00 0.  1.
<mgrwt>
<rscale>  0 0.14230597E+04</rscale>
<asrwt>0</asrwt>
<pdfrwt beam="1">  1        2 0.15205647E+00 0.14230597E+04</pdfrwt>
<pdfrwt beam="2">  1       -2 0.78805162E-01 0.14230597E+04</pdfrwt>
<totfact> 0.35615524E+01</totfact>
</mgrwt>
</event>
<event>
 6    1  0.1028026E-006  0.2335681E+04  0.7818608E-02  0.8463984E-01
          1   -1    0    0  501    0  0.00000000000E+00  0.00000000000E+00  0.87865751125E+03  0.87865751125E+03  0.00000000000E+00 0. -1.
         -1   -1    0    0    0  501 -0.00000000000E+00 -0.00000000000E+00 -0.15521985061E+04  0.15521985061E+04  0.00000000000E+00 0.  1.
         23    2    1    2    0    0  0.15697326096E+03 -0.95239643602E+03 -0.10181298550E+04  0.14059457488E+04  0.91626802578E+02 0.  0.
         11    1    3    3    0    0  0.11779697229E+03 -0.83261469502E+03 -0.84826640631E+03  0.11944367933E+04  0.00000000000E+00 0.  1.
        -11    1    3    3    0    0  0.39176288666E+02 -0.11978174100E+03 -0.16986344873E+03  0.21150895556E+03  0.00000000000E+00 0. -1.
         22    1    1    2    0    0 -0.15697326096E+03  0.95239643602E+03  0.34458886017E+03  0.10249102685E+04  0.00000000000E+00 0. -1.
<mgrwt>
<rscale>  0 0.23356805E+04</rscale>
<asrwt>0</asrwt>
<pdfrwt beam="1">  1        1 0.13517808E+00 0.23356805E+04</pdfrwt>
<pdfrwt beam="2">  1       -1 0.23879977E+00 0.23356805E+04</pdfrwt>
<totfact> 0.14097723E+00</totfact>
</mgrwt>
</event>
<event>
 6    1  0.1028026E-006  0.3725986E+04  0.7818608E-02  0.8062227E-01
         -1   -1    0    0    0  501 -0.00000000000E+00  0.00000000000E+00  0.12270243716E+04  0.12270243716E+04  0.00000000000E+00 0.  1.
          1   -1    0    0  501    0  0.00000000000E+00 -0.00000000000E+00 -0.28285857602E+04  0.28285857602E+04  0.00000000000E+00 0. -1.
         23    2    1    2    0    0 -0.10873438442E+04  0.71317693426E+03  0.64989179647E+03  0.14556140895E+04  0.74263417876E+02 0.  0.
         11    1    3    3    0    0 -0.56577723934E+03  0.37010223581E+03  0.29639163688E+03  0.73819208335E+03  0.00000000000E+00 0. -1.
        -11    1    3    3    0    0 -0.52156660488E+03  0.34307469844E+03  0.35350015959E+03  0.71742200612E+03  0.00000000000E+00 0.  1.
         22    1    1    2    0    0  0.10873438442E+04 -0.71317693426E+03 -0.22514531852E+04  0.25999960423E+04  0.00000000000E+00 0. -1.
<mgrwt>
<rscale>  0 0.37259864E+04</rscale>
<asrwt>0</asrwt>
<pdfrwt beam="1">  1        1 0.43516704E+00 0.37259864E+04</pdfrwt>
<pdfrwt beam="2">  1       -1 0.18877298E+00 0.37259864E+04</pdfrwt>
<totfact> 0.11468904E-01</totfact>
</mgrwt>
</event>
<event>
 6    1  0.1028026E-006  0.2985097E+04  0.7818608E-02  0.8247999E-01
         -1   -1    0    0    0  501 -0.00000000000E+00  0.00000000000E+00  0.18960644715E+04  0.18960644715E+04  0.00000000000E+00 0.  1.
          1   -1    0    0  501    0  0.00000000000E+00 -0.00000000000E+00 -0.11749077610E+04  0.11749077610E+04  0.00000000000E+00 0. -1.
         23    2    1    2    0    0  0.20824387876E+03 -0.31298072712E+03  0.18454763255E+04  0.18854693664E+04  0.88822380184E+02 0.  0.
         13    1    3    3    0    0  0.13236301194E+03 -0.24180631385E+03  0.11705197908E+04  0.12025418250E+04  0.00000000000E+00 0. -1.
        -13    1    3    3    0    0  0.75880866813E+02 -0.71174413273E+02  0.67495653472E+03  0.68292754141E+03  0.00000000000E+00 0.  1.
         22    1    1    2    0    0 -0.20824387876E+03  0.31298072712E+03 -0.11243196150E+04  0.11855028660E+04  0.00000000000E+00 0. -1.
<mgrwt>
<rscale>  0 0.29850969E+04</rscale>
<asrwt>0</asrwt>
<pdfrwt beam="1">  1        1 0.18075504E+00 0.29850969E+04</pdfrwt>
<pdfrwt beam="2">  1       -1 0.29170223E+00 0.29850969E+04</pdfrwt>
<totfact> 0.35508604E-01</totfact>
</mgrwt>
</event>
<event>
 6    1  0.1028026E-006  0.2586650E+04  0.7818608E-02  0.8372750E-01
         -2   -1    0    0    0  501 -0.00000000000E+00  0.00000000000E+00  0.14542505446E+04  0.14542505446E+04  0.00000000000E+00 0.  1.
          2   -1    0    0  501    0  0.00000000000E+00 -0.00000000000E+00 -0.11502069712E+04  0.11502069712E+04  0.00000000000E+00 0. -1.
         23    2    1    2    0    0 -0.86081625698E+03  0.19400361728E+03  0.11019675991E+04  0.14147832819E+04  0.92936072570E+02 0.  0.
         13    1    3    3    0    0 -0.40819769074E+03  0.66315924295E+02  0.57811259554E+03  0.71080048513E+03  0.00000000000E+00 0.  1.
        -13    1    3    3    0    0 -0.45261856624E+03  0.12768769299E+03  0.52385500357E+03  0.70398279681E+03  0.00000000000E+00 0. -1.
         22    1    1    2    0    0  0.86081625698E+03 -0.19400361728E+03 -0.79792402569E+03  0.11896742338E+04  0.00000000000E+00 0. -1.
<mgrwt>
<rscale>  0 0.25866497E+04</rscale>
<asrwt>0</asrwt>
<pdfrwt beam="1">  1        2 0.17695492E+00 0.25866497E+04</pdfrwt>
<pdfrwt beam="2">  1       -2 0.22373085E+00 0.25866497E+04</pdfrwt>
<totfact> 0.16823912E+00</totfact>
</mgrwt>
</event>
<event>
 6    1  0.1028026E-006  0.9044981E+03  0.7818608E-02  0.9419976E-01
          1   -1    0    0  501    0  0.00000000000E+00  0.00000000000E+00  0.41842054574E+03  0.41842054574E+03  0.00000000000E+00 0. -1.
         -1   -1    0    0    0  501 -0.00000000000E+00 -0.00000000000E+00 -0.48881252209E+03  0.48881252209E+03  0.00000000000E+00 0.  1.
         23    2    1    2    0    0  0.46826537454E+02 -0.43502681877E+03  0.59679097390E+02  0.45076889412E+03  0.90498307093E+02 0.  0.
         13    1    3    3    0    0  0.57171343533E+02 -0.32156320082E+03  0.10778102929E+02  0.32678375441E+03  0.00000000000E+00 0.  1.
        -13    1    3    3    0    0 -0.10344806079E+02 -0.11346361794E+03  0.48900994461E+02  0.12398513971E+03  0.00000000000E+00 0. -1.
         22    1    1    2    0    0 -0.46826537454E+02  0.43502681877E+03 -0.13007107375E+03  0.45646417371E+03  0.00000000000E+00 0. -1.
<mgrwt>
<rscale>  0 0.90449810E+03</rscale>
<asrwt>0</asrwt>
<pdfrwt beam="1">  1        1 0.64372392E-01 0.90449810E+03</pdfrwt>
<pdfrwt beam="2">  1       -1 0.75201926E-01 0.90449810E+03</pdfrwt>
<totfact> 0.10125563E+02</totfact>
</mgrwt>
</event>
<event>
 6    1  0.1067364E-006  0.2493659E+04  0.7818608E-02  0.8405248E-01
         -2   -1    0    0    0  501 -0.00000000000E+00  0.00000000000E+00  0.10319400385E+04  0.10319400385E+04  0.00000000000E+00 0.  1.
          2   -1    0    0  501    0  0.00000000000E+00 -0.00000000000E+00 -0.15064668137E+04  0.15064668137E+04  0.00000000000E+00 0. -1.
         23    2    1    2    0    0 -0.12921681166E+03 -0.93071508480E+03  0.59388497637E+03  0.11155817665E+04  0.94317331481E+02 0.  0.
         13    1    3    3    0    0 -0.62133318066E+02 -0.62744174815E+03  0.44068407190E+03  0.76925038041E+03  0.00000000000E+00 0. -1.
        -13    1    3    3    0    0 -0.67083493592E+02 -0.30327333665E+03  0.15320090448E+03  0.34633138606E+03  0.00000000000E+00 0.  1.
         22    1    1    2    0    0  0.12921681166E+03  0.93071508480E+03 -0.10684117516E+04  0.14228250857E+04  0.00000000000E+00 0. -1.
<mgrwt>
<rscale>  0 0.24936587E+04</rscale>
<asrwt>0</asrwt>
<pdfrwt beam="1">  1        2 0.23176412E+00 0.24936587E+04</pdfrwt>
<pdfrwt beam="2">  1       -2 0.15876001E+00 0.24936587E+04</pdfrwt>
<totfact> 0.28903646E+00</totfact>
</mgrwt>
</event>
<event>
 6    1  0.1028026E-006  0.2797402E+04  0.7818608E-02  0.8304075E-01
          1   -1    0    0  501    0  0.00000000000E+00  0.00000000000E+00  0.70960437658E+03  0.70960437658E+03  0.00000000000E+00 0. -1.
         -1   -1    0    0    0  501 -0.00000000000E+00 -0.00000000000E+00 -0.27569798953E+04  0.27569798953E+04  0.00000000000E+00 0.  1.
         23    2    1    2    0    0 -0.18569941902E+03  0.10590861751E+04 -0.21304261403E+04  0.23881385356E+04  0.91336332776E+02 0.  0.
         13    1    3    3    0    0  0.38563893636E+01  0.48210908255E+02 -0.13202365368E+03  0.14060372877E+03  0.00000000000E+00 0. -1.
        -13    1    3    3    0    0 -0.18955580838E+03  0.10108752668E+04 -0.19984024866E+04  0.22475348068E+04  0.00000000000E+00 0.  1.
         22    1    1    2    0    0  0.18569941902E+03 -0.10590861751E+04  0.83050621500E+02  0.10784457363E+04  0.00000000000E+00 0. -1.
<mgrwt>
<rscale>  0 0.27974024E+04</rscale>
<asrwt>0</asrwt>
<pdfrwt beam="1">  1        1 0.10916990E+00 0.27974024E+04</pdfrwt>
<pdfrwt beam="2">  1       -1 0.42415076E+00 0.27974024E+04</pdfrwt>
<totfact> 0.11269567E-01</totfact>
</mgrwt>
</event>
<event>
 6    1  0.1028026E-006  0.2472963E+04  0.7818608E-02  0.8412681E-01
         -1   -1    0    0    0  501 -0.00000000000E+00  0.00000000000E+00  0.73357566708E+03  0.73357566708E+03  0.00000000000E+00 0.  1.
          1   -1    0    0  501    0  0.00000000000E+00 -0.00000000000E+00 -0.20841569971E+04  0.20841569971E+04  0.00000000000E+00 0. -1.
         23    2    1    2    0    0  0.10670812989E+04 -0.32110856695E+03 -0.12826368079E+04  0.17013144324E+04  0.86835514258E+02 0.  0.
         13    1    3    3    0    0  0.29984529089E+03 -0.54923213235E+02 -0.37902697349E+03  0.48640025129E+03  0.00000000000E+00 0. -1.
        -13    1    3    3    0    0  0.76723600798E+03 -0.26618535372E+03 -0.90360983445E+03  0.12149141811E+04  0.00000000000E+00 0.  1.
         22    1    1    2    0    0 -0.10670812989E+04  0.32110856695E+03 -0.67944522046E+02  0.11164182318E+04  0.00000000000E+00 0.  1.
<mgrwt>
<rscale>  0 0.24729633E+04</rscale>
<asrwt>0</asrwt>
<pdfrwt beam="1">  1        1 0.32063954E+00 0.24729633E+04</pdfrwt>
<pdfrwt beam="2">  1       -1 0.11285779E+00 0.24729633E+04</pdfrwt>
<totfact> 0.16700129E+00</totfact>
</mgrwt>
</event>
<event>
 6    1  0.1028026E-006  0.1792031E+04  0.7818608E-02  0.8710549E-01
          2   -1    0    0  501    0  0.00000000000E+00  0.00000000000E+00  0.25637002695E+04  0.25637002695E+04  0.00000000000E+00 0. -1.
         -2   -1    0    0    0  501 -0.00000000000E+00 -0.00000000000E+00 -0.31315821867E+03  0.31315821867E+03  0.00000000000E+00 0.  1.
         23    2    1    2    0    0  0.20808578949E+03  0.82357839907E+02  0.25171841834E+04  0.25287485393E+04  0.90942025453E+02 0.  0.
         11    1    3    3    0    0  0.19491300489E+03  0.10032490845E+03  0.22670492203E+04  0.22776233960E+04  0.00000000000E+00 0. -1.
        -11    1    3    3    0    0  0.13172784602E+02 -0.17967068546E+02  0.25013496318E+03  0.25112514333E+03  0.00000000000E+00 0.  1.
         22    1    1    2    0    0 -0.20808578949E+03 -0.82357839907E+02 -0.26664213265E+03  0.34810994884E+03  0.00000000000E+00 0.  1.
<mgrwt>
<rscale>  0 0.17920310E+04</rscale>
<asrwt>0</asrwt>
<pdfrwt beam="1">  1        2 0.39441541E+00 0.17920310E+04</pdfrwt>
<pdfrwt beam="2">  1       -2 0.48178189E-01 0.17920310E+04</pdfrwt>
<totfact> 0.12340537E+01</totfact>
</mgrwt>
</event>
<event>
 6    1  0.1028026E-006  0.1973950E+04  0.7818608E-02  0.8618898E-01
          2   -1    0    0  501    0  0.00000000000E+00  0.00000000000E+00  0.18538641699E+04  0.18538641699E+04  0.00000000000E+00 0. -1.
         -2   -1    0    0    0  501 -0.00000000000E+00 -0.00000000000E+00 -0.52545367724E+03  0.52545367724E+03  0.00000000000E+00 0.  1.
         23    2    1    2    0    0 -0.68622774476E+02  0.93622408706E+03  0.10239880735E+04  0.13924553260E+04  0.95685076870E+02 0.  0.
         13    1    3    3    0    0 -0.41319251587E+02  0.26320951337E+03  0.23712573259E+03  0.35667231675E+03  0.00000000000E+00 0. -1.
        -13    1    3    3    0    0 -0.27303522889E+02  0.67301457369E+03  0.78686234086E+03  0.10357830092E+04  0.00000000000E+00 0.  1.
         22    1    1    2    0    0  0.68622774476E+02 -0.93622408706E+03  0.30442241924E+03  0.98686252118E+03  0.00000000000E+00 0. -1.
<mgrwt>
<rscale>  0 0.19739501E+04</rscale>
<asrwt>0</asrwt>
<pdfrwt beam="1">  1        2 0.28520987E+00 0.19739501E+04</pdfrwt>
<pdfrwt beam="2">  1       -2 0.80839028E-01 0.19739501E+04</pdfrwt>
<totfact> 0.10124237E+01</totfact>
</mgrwt>
</event>
<event>
 6    1  0.1028026E-006  0.3441465E+04  0.7818608E-02  0.8127804E-01
          1   -1    0    0  501    0  0.00000000000E+00  0.00000000000E+00  0.15160052513E+04  0.15160052513E+04  0.00000000000E+00 0. -1.
         -1   -1    0    0    0  501 -0.00000000000E+00 -0.00000000000E+00 -0.19531072738E+04  0.19531072738E+04  0.00000000000E+00 0.  1.
         23    2    1    2    0    0  0.20930914673E+03  0.11841391157E+04  0.10204190657E+04  0.15795719760E+04  0.88299455263E+02 0.  0.
         13    1    3    3    0    0  0.63522048398E+02  0.57735526577E+03  0.52143424835E+03  0.78055610234E+03  0.00000000000E+00 0. -1.
        -13    1    3    3    0    0  0.14578709833E+03  0.60678384989E+03  0.49898481730E+03  0.79901587370E+03  0.00000000000E+00 0.  1.
         22    1    1    2    0    0 -0.20930914673E+03 -0.11841391157E+04 -0.14575210881E+04  0.18895405491E+04  0.00000000000E+00 0.  1.
<mgrwt>
<rscale>  0 0.34414653E+04</rscale>
<asrwt>0</asrwt>
<pdfrwt beam="1">  1        1 0.23323158E+00 0.34414653E+04</pdfrwt>
<pdfrwt beam="2">  1       -1 0.30047804E+00 0.34414653E+04</pdfrwt>
<totfact> 0.17139828E-01</totfact>
</mgrwt>
</event>
<event>
 6    1  0.1028026E-006  0.3452177E+04  0.7818608E-02  0.8125218E-01
         -2   -1    0    0    0  501 -0.00000000000E+00  0.00000000000E+00  0.93989925209E+03  0.93989925209E+03  0.00000000000E+00 0.  1.
          2   -1    0    0  501    0  0.00000000000E+00 -0.00000000000E+00 -0.31698952554E+04  0.31698952554E+04  0.00000000000E+00 0. -1.
         23    2    1    2    0    0 -0.15353897012E+03 -0.71229678197E+03  0.74542372302E+03  0.10464526283E+04  0.92008996928E+02 0.  0.
         11    1    3    3    0    0 -0.70723336422E+02 -0.49990727518E+03  0.48103179931E+03  0.69735261242E+03  0.00000000000E+00 0.  1.
        -11    1    3    3    0    0 -0.82815633697E+02 -0.21238950679E+03  0.26439192371E+03  0.34910001590E+03  0.00000000000E+00 0. -1.
         22    1    1    2    0    0  0.15353897012E+03  0.71229678197E+03 -0.29754197263E+04  0.30633418792E+04  0.00000000000E+00 0. -1.
<mgrwt>
<rscale>  0 0.34521774E+04</rscale>
<asrwt>0</asrwt>
<pdfrwt beam="1">  1        2 0.48767620E+00 0.34521774E+04</pdfrwt>
<pdfrwt beam="2">  1       -2 0.14459988E+00 0.34521774E+04</pdfrwt>
<totfact> 0.36901376E-01</totfact>
</mgrwt>
</event>
<event>
 6    1  0.1028026E-006  0.1525643E+04  0.7818608E-02  0.8867578E-01
         -1   -1    0    0    0  501 -0.00000000000E+00  0.00000000000E+00  0.77342199130E+03  0.77342199130E+03  0.00000000000E+00 0.  1.
          1   -1    0    0  501    0  0.00000000000E+00 -0.00000000000E+00 -0.75236582689E+03  0.75236582689E+03  0.00000000000E+00 0. -1.
         23    2    1    2    0    0 -0.39825091122E+03 -0.44753481892E+03 -0.45806200072E+03  0.75868585718E+03  0.83019461231E+02 0.  0.
         11    1    3    3    0    0 -0.20920532053E+03 -0.23962219105E+03 -0.29477979034E+03  0.43368281655E+03  0.00000000000E+00 0. -1.
        -11    1    3    3    0    0 -0.18904559069E+03 -0.20791262788E+03 -0.16328221038E+03  0.32500304063E+03  0.00000000000E+00 0.  1.
         22    1    1    2    0    0  0.39825091122E+03  0.44753481892E+03  0.47911816513E+03  0.76710196102E+03  0.00000000000E+00 0.  1.
<mgrwt>
<rscale>  0 0.15256425E+04</rscale>
<asrwt>0</asrwt>
<pdfrwt beam="1">  1        1 0.11574859E+00 0.15256425E+04</pdfrwt>
<pdfrwt beam="2">  1       -1 0.11898800E+00 0.15256425E+04</pdfrwt>
<totfact> 0.14875375E+01</totfact>
</mgrwt>
</event>
<event>
 6    1  0.1028026E-006  0.2848501E+04  0.7818608E-02  0.8288367E-01
         -2   -1    0    0    0  501 -0.00000000000E+00  0.00000000000E+00  0.85361121223E+03  0.85361121223E+03  0.00000000000E+00 0.  1.
          2   -1    0    0  501    0  0.00000000000E+00 -0.00000000000E+00 -0.23763615861E+04  0.23763615861E+04  0.00000000000E+00 0. -1.
         23    2    1    2    0    0  0.78212502313E+03  0.91817893405E+03  0.93634637501E+02  0.12131751854E+04  0.90854159404E+02 0.  0.
         11    1    3    3    0    0  0.45823104429E+03  0.49012694720E+03  0.84915968356E+02  0.67632154779E+03  0.00000000000E+00 0.  1.
        -11    1    3    3    0    0  0.32389397884E+03  0.42805198685E+03  0.87186691444E+01  0.53685363757E+03  0.00000000000E+00 0. -1.
         22    1    1    2    0    0 -0.78212502313E+03 -0.91817893405E+03 -0.16163850114E+04  0.20167976130E+04  0.00000000000E+00 0. -1.
<mgrwt>
<rscale>  0 0.28485006E+04</rscale>
<asrwt>0</asrwt>
<pdfrwt beam="1">  1        2 0.36559409E+00 0.28485006E+04</pdfrwt>
<pdfrwt beam="2">  1       -2 0.13132480E+00 0.28485006E+04</pdfrwt>
<totfact> 0.15043747E+00</totfact>
</mgrwt>
</event>
<event>
 6    1  0.1028026E-006  0.2358193E+04  0.7818608E-02  0.8455323E-01
         -1   -1    0    0    0  501 -0.00000000000E+00  0.00000000000E+00  0.10148030868E+04  0.10148030868E+04  0.00000000000E+00 0.  1.
          1   -1    0    0  501    0  0.00000000000E+00 -0.00000000000E+00 -0.13699885339E+04  0.13699885339E+04  0.00000000000E+00 0. -1.
         23    2    1    2    0    0 -0.53089213090E+03  0.24909079849E+03 -0.12102685620E+04  0.13479407087E+04  0.91112465889E+02 0.  0.
         13    1    3    3    0    0 -0.49382051230E+03  0.24078223802E+03 -0.11700570563E+04  0.12926207098E+04  0.00000000000E+00 0. -1.
        -13    1    3    3    0    0 -0.37071618599E+02  0.83085604685E+01 -0.40211505725E+02  0.55319998873E+02  0.00000000000E+00 0.  1.
         22    1    1    2    0    0  0.53089213090E+03 -0.24909079849E+03  0.85508311481E+03  0.10368509120E+04  0.00000000000E+00 0.  1.
<mgrwt>
<rscale>  0 0.23581930E+04</rscale>
<asrwt>0</asrwt>
<pdfrwt beam="1">  1        1 0.21076747E+00 0.23581930E+04</pdfrwt>
<pdfrwt beam="2">  1       -1 0.15612355E+00 0.23581930E+04</pdfrwt>
<totfact> 0.22696640E+00</totfact>
</mgrwt>
</event>
<event>
 6    1  0.1028026E-006  0.5768033E+04  0.7818608E-02  0.7719847E-01
          2   -1    0    0  501    0  0.00000000000E+00  0.00000000000E+00  0.32076373656E+04  0.32076373656E+04  0.00000000000E+00 0. -1.
         -2   -1    0    0    0  501 -0.00000000000E+00 -0.00000000000E+00 -0.25930461583E+04  0.25930461583E+04  0.00000000000E+00 0.  1.
         23    2    1    2    0    0 -0.59112230682E+03  0.10172666221E+03 -0.25288062934E+04  0.26005707535E+04  0.91285700467E+02 0.  0.
         11    1    3    3    0    0 -0.37776452010E+03  0.33637347647E+02 -0.14513645753E+04  0.15000988749E+04  0.00000000000E+00 0. -1.
        -11    1    3    3    0    0 -0.21335778672E+03  0.68089314559E+02 -0.10774417180E+04  0.11004718786E+04  0.00000000000E+00 0.  1.
         22    1    1    2    0    0  0.59112230682E+03 -0.10172666221E+03  0.31433975007E+04  0.32001127703E+04  0.00000000000E+00 0. -1.
<mgrwt>
<rscale>  0 0.57680332E+04</rscale>
<asrwt>0</asrwt>
<pdfrwt beam="1">  1        2 0.49348267E+00 0.57680332E+04</pdfrwt>
<pdfrwt beam="2">  1       -2 0.39893018E+00 0.57680332E+04</pdfrwt>
<totfact> 0.66273182E-03</totfact>
</mgrwt>
</event>
<event>
 6    1  0.1028026E-006  0.4046090E+03  0.7818608E-02  0.1042195E+00
          2   -1    0    0  501    0  0.00000000000E+00  0.00000000000E+00  0.12623295405E+04  0.12623295405E+04  0.00000000000E+00 0. -1.
         -2   -1    0    0    0  501 -0.00000000000E+00 -0.00000000000E+00 -0.32421887789E+02  0.32421887789E+02  0.00000000000E+00 0.  1.
         23    2    1    2    0    0 -0.11477399634E+03  0.14344729511E+03  0.48226604526E+03  0.52486950883E+03  0.95693605766E+02 0.  0.
         11    1    3    3    0    0 -0.34503649158E+02  0.79183480832E+02  0.11714331572E+03  0.14554408906E+03  0.00000000000E+00 0. -1.
        -11    1    3    3    0    0 -0.80270347180E+02  0.64263814275E+02  0.36512272954E+03  0.37932541978E+03  0.00000000000E+00 0.  1.
         22    1    1    2    0    0  0.11477399634E+03 -0.14344729511E+03  0.74764160743E+03  0.76988191943E+03  0.00000000000E+00 0. -1.
<mgrwt>
<rscale>  0 0.40460898E+03</rscale>
<asrwt>0</asrwt>
<pdfrwt beam="1">  1        2 0.19420451E+00 0.40460898E+03</pdfrwt>
<pdfrwt beam="2">  1       -2 0.49879837E-02 0.40460898E+03</pdfrwt>
<totfact> 0.36297058E+03</totfact>
</mgrwt>
</event>
<event>
 6    1  0.1028026E-006  0.1800344E+04  0.7818608E-02  0.8706116E-01
          1   -1    0    0  501    0  0.00000000000E+00  0.00000000000E+00  0.13681356031E+04  0.13681356031E+04  0.00000000000E+00 0. -1.
         -1   -1    0    0    0  501 -0.00000000000E+00 -0.00000000000E+00 -0.59227317349E+03  0.59227317349E+03  0.00000000000E+00 0.  1.
         23    2    1    2    0    0 -0.45769360925E+03  0.77200677876E+02 -0.44797370194E+03  0.65150913893E+03  0.91325439317E+02 0.  0.
         11    1    3    3    0    0 -0.42232631814E+03  0.93226142442E+02 -0.39423832608E+03  0.58521320079E+03  0.00000000000E+00 0. -1.
        -11    1    3    3    0    0 -0.35367291106E+02 -0.16025464566E+02 -0.53735375856E+02  0.66295938135E+02  0.00000000000E+00 0.  1.
         22    1    1    2    0    0  0.45769360925E+03 -0.77200677876E+02  0.12238361316E+04  0.13088996377E+04  0.00000000000E+00 0. -1.
<mgrwt>
<rscale>  0 0.18003444E+04</rscale>
<asrwt>0</asrwt>
<pdfrwt beam="1">  1        1 0.21048240E+00 0.18003444E+04</pdfrwt>
<pdfrwt beam="2">  1       -1 0.91118950E-01 0.18003444E+04</pdfrwt>
<totfact> 0.89729213E+00</totfact>
</mgrwt>
</event>
<event>
 6    1  0.1367311E-006  0.4323536E+04  0.7818608E-02  0.7942280E-01
          1   -1    0    0  501    0  0.00000000000E+00  0.00000000000E+00  0.30321852810E+04  0.30321852810E+04  0.00000000000E+00 0. -1.
         -1   -1    0    0    0  501 -0.00000000000E+00 -0.00000000000E+00 -0.15412123401E+04  0.15412123401E+04  0.00000000000E+00 0.  1.
         23    2    1    2    0    0 -0.38612512990E+03 -0.67968870610E+03  0.28766128408E+04  0.29824647862E+04  0.95527024252E+02 0.  0.
         13    1    3    3    0    0 -0.12521439855E+03 -0.27638397762E+03  0.12584966738E+04  0.12945580816E+04  0.00000000000E+00 0.  1.
        -13    1    3    3    0    0 -0.26091073135E+03 -0.40330472848E+03  0.16181161670E+04  0.16879067046E+04  0.00000000000E+00 0. -1.
         22    1    1    2    0    0  0.38612512990E+03  0.67968870610E+03 -0.13856398998E+04  0.15909328349E+04  0.00000000000E+00 0.  1.
<mgrwt>
<rscale>  0 0.43235362E+04</rscale>
<asrwt>0</asrwt>
<pdfrwt beam="1">  1        1 0.46649004E+00 0.43235362E+04</pdfrwt>
<pdfrwt beam="2">  1       -1 0.23710959E+00 0.43235362E+04</pdfrwt>
<totfact> 0.36543994E-02</totfact>
</mgrwt>
</event>
<event>
 6    1  0.1028026E-006  0.9741924E+03  0.7818608E-02  0.9337312E-01
         -1   -1    0    0    0  501 -0.00000000000E+00  0.00000000000E+00  0.58662163317E+03  0.58662163317E+03  0.00000000000E+00 0.  1.
          1   -1    0    0  501    0  0.00000000000E+00 -0.00000000000E+00 -0.40445615747E+03  0.40445615747E+03  0.00000000000E+00 0. -1.
         23    2    1    2    0    0 -0.47412446245E+03 -0.82518705398E+02  0.53112284779E+02  0.49282276687E+03  0.91924001819E+02 0.  0.
         13    1    3    3    0    0 -0.30333398708E+03 -0.41574973433E+02 -0.96331832902E+01  0.30632137430E+03  0.00000000000E+00 0. -1.
        -13    1    3    3    0    0 -0.17079047537E+03 -0.40943731965E+02  0.62745468070E+02  0.18650139257E+03  0.00000000000E+00 0.  1.
         22    1    1    2    0    0  0.47412446245E+03  0.82518705398E+02  0.12905319092E+03  0.49825502378E+03  0.00000000000E+00 0.  1.
<mgrwt>
<rscale>  0 0.97419245E+03</rscale>
<asrwt>0</asrwt>
<pdfrwt beam="1">  1        1 0.62224024E-01 0.97419245E+03</pdfrwt>
<pdfrwt beam="2">  1       -1 0.90249482E-01 0.97419245E+03</pdfrwt>
<totfact> 0.71306443E+01</totfact>
</mgrwt>
</event>
<event>
 6    1  0.1028026E-006  0.3007966E+04  0.7818608E-02  0.8241460E-01
         -1   -1    0    0    0  501 -0.00000000000E+00  0.00000000000E+00  0.17115219875E+04  0.17115219875E+04  0.00000000000E+00 0.  1.
          1   -1    0    0  501    0  0.00000000000E+00 -0.00000000000E+00 -0.13216103236E+04  0.13216103236E+04  0.00000000000E+00 0. -1.
         23    2    1    2    0    0  0.74191385422E+03  0.13061553244E+04  0.15815755298E+03  0.15132020935E+04  0.91043208472E+02 0.  0.
         11    1    3    3    0    0  0.34613816455E+03  0.62501992832E+03  0.12028730745E+03  0.72452092867E+03  0.00000000000E+00 0. -1.
        -11    1    3    3    0    0  0.39577568967E+03  0.68113539607E+03  0.37870245530E+02  0.78868116487E+03  0.00000000000E+00 0.  1.
         22    1    1    2    0    0 -0.74191385422E+03 -0.13061553244E+04  0.23175411094E+03  0.15199302176E+04  0.00000000000E+00 0.  1.
<mgrwt>
<rscale>  0 0.30079662E+04</rscale>
<asrwt>0</asrwt>
<pdfrwt beam="1">  1        1 0.20332466E+00 0.30079662E+04</pdfrwt>
<pdfrwt beam="2">  1       -1 0.26331108E+00 0.30079662E+04</pdfrwt>
<totfact> 0.42393442E-01</totfact>
</mgrwt>
</event>
<event>
 6    1  0.1028026E-006  0.3798949E+04  0.7818608E-02  0.8046381E-01
         -2   -1    0    0    0  501 -0.00000000000E+00  0.00000000000E+00  0.18019679395E+04  0.18019679395E+04  0.00000000000E+00 0.  1.
          2   -1    0    0  501    0  0.00000000000E+00 -0.00000000000E+00 -0.20022567492E+04  0.20022567492E+04  0.00000000000E+00 0. -1.
         23    2    1    2    0    0 -0.11584935187E+04 -0.51145928993E+03 -0.15162122235E+04  0.19779300057E+04  0.98029395380E+02 0.  0.
         13    1    3    3    0    0 -0.69253624892E+03 -0.27264887207E+03 -0.83104820589E+03  0.11156096916E+04  0.00000000000E+00 0. -1.
        -13    1    3    3    0    0 -0.46595726980E+03 -0.23881041786E+03 -0.68516401764E+03  0.86232031405E+03  0.00000000000E+00 0.  1.
         22    1    1    2    0    0  0.11584935187E+04  0.51145928993E+03  0.13159234138E+04  0.18262946830E+04  0.00000000000E+00 0.  1.
<mgrwt>
<rscale>  0 0.37989485E+04</rscale>
<asrwt>0</asrwt>
<pdfrwt beam="1">  1        2 0.30803950E+00 0.37989485E+04</pdfrwt>
<pdfrwt beam="2">  1       -2 0.27722584E+00 0.37989485E+04</pdfrwt>
<totfact> 0.23392097E-01</totfact>
</mgrwt>
</event>
<event>
 6    1  0.1028026E-006  0.1247112E+04  0.7818608E-02  0.9072590E-01
          2   -1    0    0  501    0  0.00000000000E+00  0.00000000000E+00  0.19747811074E+04  0.19747811074E+04  0.00000000000E+00 0. -1.
         -2   -1    0    0    0  501 -0.00000000000E+00 -0.00000000000E+00 -0.19689386872E+03  0.19689386872E+03  0.00000000000E+00 0.  1.
         23    2    1    2    0    0  0.22032620508E+03 -0.41779767230E+03  0.15938474152E+04  0.16647536920E+04  0.89200563885E+02 0.  0.
         11    1    3    3    0    0  0.16828112602E+03 -0.24427496340E+03  0.10757295915E+04  0.11158776587E+04  0.00000000000E+00 0.  1.
        -11    1    3    3    0    0  0.52045079063E+02 -0.17352270890E+03  0.51811782366E+03  0.54887603332E+03  0.00000000000E+00 0. -1.
         22    1    1    2    0    0 -0.22032620508E+03  0.41779767230E+03  0.18403982350E+03  0.50692128409E+03  0.00000000000E+00 0.  1.
<mgrwt>
<rscale>  0 0.12471123E+04</rscale>
<asrwt>0</asrwt>
<pdfrwt beam="1">  1        2 0.30381247E+00 0.12471123E+04</pdfrwt>
<pdfrwt beam="2">  1       -2 0.30291366E-01 0.12471123E+04</pdfrwt>
<totfact> 0.68426611E+01</totfact>
</mgrwt>
</event>
<event>
 6    1  0.1028026E-006  0.1477657E+04  0.7818608E-02  0.8899448E-01
         -1   -1    0    0    0  501 -0.00000000000E+00  0.00000000000E+00  0.45440254887E+03  0.45440254887E+03  0.00000000000E+00 0.  1.
          1   -1    0    0  501    0  0.00000000000E+00 -0.00000000000E+00 -0.12012857400E+04  0.12012857400E+04  0.00000000000E+00 0. -1.
         23    2    1    2    0    0 -0.64749717620E+03  0.31150084181E+03 -0.19657276632E+03  0.75063197498E+03  0.92315447081E+02 0.  0.
         13    1    3    3    0    0 -0.23780523617E+03  0.13447144427E+03 -0.32470506806E+02  0.27511494595E+03  0.00000000000E+00 0. -1.
        -13    1    3    3    0    0 -0.40969194003E+03  0.17702939754E+03 -0.16410225951E+03  0.47551702903E+03  0.00000000000E+00 0.  1.
         22    1    1    2    0    0  0.64749717620E+03 -0.31150084181E+03 -0.55031042479E+03  0.90505631387E+03  0.00000000000E+00 0. -1.
<mgrwt>
<rscale>  0 0.14776567E+04</rscale>
<asrwt>0</asrwt>
<pdfrwt beam="1">  1        1 0.18481319E+00 0.14776567E+04</pdfrwt>
<pdfrwt beam="2">  1       -1 0.69908085E-01 0.14776567E+04</pdfrwt>
<totfact> 0.21378066E+01</totfact>
</mgrwt>
</event>
<event>
 6    1  0.1028026E-006  0.8889321E+03  0.7818608E-02  0.9439524E-01
          2   -1    0    0  501    0  0.00000000000E+00  0.00000000000E+00  0.57448761286E+03  0.57448761286E+03  0.00000000000E+00 0. -1.
         -2   -1    0    0    0  501 -0.00000000000E+00 -0.00000000000E+00 -0.34387177235E+03  0.34387177235E+03  0.00000000000E+00 0.  1.
         23    2    1    2    0    0 -0.17926617913E+03 -0.11095248918E+03 -0.28369033341E+03  0.36251978752E+03  0.80582710572E+02 0.  0.
         13    1    3    3    0    0 -0.10305546468E+03 -0.73720994402E+02 -0.10440006784E+03  0.16417852473E+03  0.00000000000E+00 0. -1.
        -13    1    3    3    0    0 -0.76210714442E+02 -0.37231494775E+02 -0.17929026557E+03  0.19834126280E+03  0.00000000000E+00 0.  1.
         22    1    1    2    0    0  0.17926617913E+03  0.11095248918E+03  0.51430617391E+03  0.55583959769E+03  0.00000000000E+00 0. -1.
<mgrwt>
<rscale>  0 0.88893211E+03</rscale>
<asrwt>0</asrwt>
<pdfrwt beam="1">  1        2 0.88382709E-01 0.88893211E+03</pdfrwt>
<pdfrwt beam="2">  1       -2 0.52903350E-01 0.88893211E+03</pdfrwt>
<totfact> 0.17683099E+02</totfact>
</mgrwt>
</event>
<event>
 6    1  0.1028026E-006  0.2533353E+04  0.7818608E-02  0.8391199E-01
          2   -1    0    0  501    0  0.00000000000E+00  0.00000000000E+00  0.17752662001E+04  0.17752662001E+04  0.00000000000E+00 0. -1.
         -2   -1    0    0    0  501 -0.00000000000E+00 -0.00000000000E+00 -0.90379116629E+03  0.90379116629E+03  0.00000000000E+00 0.  1.
         23    2    1    2    0    0 -0.11923752504E+04  0.13894878184E+03  0.85835828989E+03  0.14785418311E+04  0.90782656852E+02 0.  0.
         11    1    3    3    0    0 -0.55679707108E+03  0.21289348331E+02  0.41359542297E+03  0.69392895070E+03  0.00000000000E+00 0.  1.
        -11    1    3    3    0    0 -0.63557817928E+03  0.11765943350E+03  0.44476286692E+03  0.78461288038E+03  0.00000000000E+00 0. -1.
         22    1    1    2    0    0  0.11923752504E+04 -0.13894878184E+03  0.13116743954E+02  0.12005155353E+04  0.00000000000E+00 0.  1.
<mgrwt>
<rscale>  0 0.25333534E+04</rscale>
<asrwt>0</asrwt>
<pdfrwt beam="1">  1        2 0.27311788E+00 0.25333534E+04</pdfrwt>
<pdfrwt beam="2">  1       -2 0.13904480E+00 0.25333534E+04</pdfrwt>
<totfact> 0.28964867E+00</totfact>
</mgrwt>
</event>
<event>
 6    1  0.1028026E-006  0.3270826E+04  0.7818608E-02  0.8170359E-01
         -1   -1    0    0    0  501 -0.00000000000E+00  0.00000000000E+00  0.22876727578E+04  0.22876727578E+04  0.00000000000E+00 0.  1.
          1   -1    0    0  501    0  0.00000000000E+00 -0.00000000000E+00 -0.11691252853E+04  0.11691252853E+04  0.00000000000E+00 0. -1.
         23    2    1    2    0    0  0.11068265770E+04  0.22993992760E+03  0.18068783221E+04  0.21332661016E+04  0.89875178282E+02 0.  0.
         13    1    3    3    0    0  0.70891662889E+03  0.18691753942E+03  0.11339262795E+04  0.13502924723E+04  0.00000000000E+00 0.  1.
        -13    1    3    3    0    0  0.39790994808E+03  0.43022388181E+02  0.67295204254E+03  0.78297362933E+03  0.00000000000E+00 0. -1.
         22    1    1    2    0    0 -0.11068265770E+04 -0.22993992760E+03 -0.68833084958E+03  0.13235319415E+04  0.00000000000E+00 0. -1.
<mgrwt>
<rscale>  0 0.32708262E+04</rscale>
<asrwt>0</asrwt>
<pdfrwt beam="1">  1        1 0.17986543E+00 0.32708262E+04</pdfrwt>
<pdfrwt beam="2">  1       -1 0.35194966E+00 0.32708262E+04</pdfrwt>
<totfact> 0.14115717E-01</totfact>
</mgrwt>
</event>
<event>
 6    1  0.1028026E-006  0.2998449E+04  0.7818608E-02  0.8244174E-01
         -2   -1    0    0    0  501 -0.00000000000E+00  0.00000000000E+00  0.82076400153E+03  0.82076400153E+03  0.00000000000E+00 0.  1.
          2   -1    0    0  501    0  0.00000000000E+00 -0.00000000000E+00 -0.27385140328E+04  0.27385140328E+04  0.00000000000E+00 0. -1.
         23    2    1    2    0    0 -0.10613124256E+04  0.44901418029E+03 -0.20953104820E+04  0.23932911079E+04  0.97562865068E+02 0.  0.
         13    1    3    3    0    0 -0.11176301953E+03  0.78943010486E+02 -0.22467021923E+03  0.26305831834E+03  0.00000000000E+00 0. -1.
        -13    1    3    3    0    0 -0.94954940606E+03  0.37007116980E+03 -0.18706402627E+04  0.21302327896E+04  0.00000000000E+00 0.  1.
         22    1    1    2    0    0  0.10613124256E+04 -0.44901418029E+03  0.17756045072E+03  0.11659869264E+04  0.00000000000E+00 0.  1.
<mgrwt>
<rscale>  0 0.29984488E+04</rscale>
<asrwt>0</asrwt>
<pdfrwt beam="1">  1        2 0.42130985E+00 0.29984488E+04</pdfrwt>
<pdfrwt beam="2">  1       -2 0.12627139E+00 0.29984488E+04</pdfrwt>
<totfact> 0.10073977E+00</totfact>
</mgrwt>
</event>
<event>
 6    1  0.1028026E-006  0.2874593E+04  0.7818608E-02  0.8280477E-01
          2   -1    0    0  501    0  0.00000000000E+00  0.00000000000E+00  0.19872251096E+04  0.19872251096E+04  0.00000000000E+00 0. -1.
         -2   -1    0    0    0  501 -0.00000000000E+00 -0.00000000000E+00 -0.10395504308E+04  0.10395504308E+04  0.00000000000E+00 0.  1.
         23    2    1    2    0    0  0.43740849087E+03 -0.13369089919E+04  0.17100571942E+03  0.14199567849E+04  0.91555852858E+02 0.  0.
         11    1    3    3    0    0  0.28803031460E+03 -0.84212658160E+03  0.15092041729E+03  0.90272676593E+03  0.00000000000E+00 0.  1.
        -11    1    3    3    0    0  0.14937817626E+03 -0.49478241034E+03  0.20085302126E+02  0.51723001894E+03  0.00000000000E+00 0. -1.
         22    1    1    2    0    0 -0.43740849087E+03  0.13369089919E+04  0.77666895938E+03  0.16068187555E+04  0.00000000000E+00 0. -1.
<mgrwt>
<rscale>  0 0.28745926E+04</rscale>
<asrwt>0</asrwt>
<pdfrwt beam="1">  1        2 0.30572694E+00 0.28745926E+04</pdfrwt>
<pdfrwt beam="2">  1       -2 0.15993084E+00 0.28745926E+04</pdfrwt>
<totfact> 0.14814044E+00</totfact>
</mgrwt>
</event>
<event>
 6    1  0.1028026E-006  0.1261043E+04  0.7818608E-02  0.9061042E-01
          1   -1    0    0  501    0  0.00000000000E+00  0.00000000000E+00  0.76624310371E+03  0.76624310371E+03  0.00000000000E+00 0. -1.
         -1   -1    0    0    0  501 -0.00000000000E+00 -0.00000000000E+00 -0.51883995352E+03  0.51883995352E+03  0.00000000000E+00 0.  1.
         23    2    1    2    0    0 -0.37795463296E+03  0.35991723212E+03  0.47937961758E+03  0.71394104339E+03  0.86699925813E+02 0.  0.
         11    1    3    3    0    0 -0.22618813235E+03  0.15639933071E+03  0.23962134612E+03  0.36474677706E+03  0.00000000000E+00 0. -1.
        -11    1    3    3    0    0 -0.15176650060E+03  0.20351790141E+03  0.23975827147E+03  0.34919426633E+03  0.00000000000E+00 0.  1.
         22    1    1    2    0    0  0.37795463296E+03 -0.35991723212E+03 -0.23197646739E+03  0.57114201384E+03  0.00000000000E+00 0.  1.
<mgrwt>
<rscale>  0 0.12610433E+04</rscale>
<asrwt>0</asrwt>
<pdfrwt beam="1">  1        1 0.11788356E+00 0.12610433E+04</pdfrwt>
<pdfrwt beam="2">  1       -1 0.79821531E-01 0.12610433E+04</pdfrwt>
<totfact> 0.36590299E+01</totfact>
</mgrwt>
</event>
<event>
 6    1  0.1028026E-006  0.1231211E+04  0.7818608E-02  0.9085968E-01
         -1   -1    0    0    0  501 -0.00000000000E+00  0.00000000000E+00  0.25959537013E+03  0.25959537013E+03  0.00000000000E+00 0.  1.
          1   -1    0    0  501    0  0.00000000000E+00 -0.00000000000E+00 -0.14598492733E+04  0.14598492733E+04  0.00000000000E+00 0. -1.
         23    2    1    2    0    0 -0.15039069885E+03 -0.56095947956E+03 -0.87528735087E+03  0.10539402031E+04  0.85843491882E+02 0.  0.
         13    1    3    3    0    0 -0.79123713141E+02 -0.43685687147E+03 -0.66008433598E+03  0.79549721479E+03  0.00000000000E+00 0. -1.
        -13    1    3    3    0    0 -0.71266985704E+02 -0.12410260808E+03 -0.21520301489E+03  0.25844298830E+03  0.00000000000E+00 0.  1.
         22    1    1    2    0    0  0.15039069885E+03  0.56095947956E+03 -0.32496655231E+03  0.66550444035E+03  0.00000000000E+00 0.  1.
<mgrwt>
<rscale>  0 0.12312110E+04</rscale>
<asrwt>0</asrwt>
<pdfrwt beam="1">  1        1 0.22459219E+00 0.12312110E+04</pdfrwt>
<pdfrwt beam="2">  1       -1 0.39937750E-01 0.12312110E+04</pdfrwt>
<totfact> 0.42069663E+01</totfact>
</mgrwt>
</event>
<event>
 6    1  0.1028026E-006  0.2294498E+04  0.7818608E-02  0.8480094E-01
          2   -1    0    0  501    0  0.00000000000E+00  0.00000000000E+00  0.14575813565E+04  0.14575813565E+04  0.00000000000E+00 0. -1.
         -2   -1    0    0    0  501 -0.00000000000E+00 -0.00000000000E+00 -0.90298894376E+03  0.90298894376E+03  0.00000000000E+00 0.  1.
         23    2    1    2    0    0  0.72184898990E+01  0.88993415215E+03  0.10195179655E+04  0.13564833164E+04  0.92710322116E+02 0.  0.
         11    1    3    3    0    0  0.24013780597E+02  0.81908630048E+03  0.90582460813E+03  0.12214733931E+04  0.00000000000E+00 0.  1.
        -11    1    3    3    0    0 -0.16795290698E+02  0.70847851673E+02  0.11369335737E+03  0.13500992329E+03  0.00000000000E+00 0. -1.
         22    1    1    2    0    0 -0.72184898990E+01 -0.88993415215E+03 -0.46492555271E+03  0.10040869839E+04  0.00000000000E+00 0.  1.
<mgrwt>
<rscale>  0 0.22944976E+04</rscale>
<asrwt>0</asrwt>
<pdfrwt beam="1">  1        2 0.22424329E+00 0.22944976E+04</pdfrwt>
<pdfrwt beam="2">  1       -2 0.13892138E+00 0.22944976E+04</pdfrwt>
<totfact> 0.44600778E+00</totfact>
</mgrwt>
</event>
<event>
 6    1  0.1028026E-006  0.6812977E+03  0.7818608E-02  0.9749761E-01
          2   -1    0    0  501    0  0.00000000000E+00  0.00000000000E+00  0.28981937177E+03  0.28981937177E+03  0.00000000000E+00 0. -1.
         -2   -1    0    0    0  501 -0.00000000000E+00 -0.00000000000E+00 -0.40039296874E+03  0.40039296874E+03  0.00000000000E+00 0.  1.
         23    2    1    2    0    0  0.17313350027E+03  0.20679768976E+03  0.14417620543E+03  0.31921644399E+03  0.91497904312E+02 0.  0.
         13    1    3    3    0    0  0.57998284512E+02  0.16474981767E+02  0.15549324524E+02  0.62265620720E+02  0.00000000000E+00 0. -1.
        -13    1    3    3    0    0  0.11513521576E+03  0.19032270800E+03  0.12862688091E+03  0.25695082327E+03  0.00000000000E+00 0.  1.
         22    1    1    2    0    0 -0.17313350027E+03 -0.20679768976E+03 -0.25474980241E+03  0.37099589652E+03  0.00000000000E+00 0.  1.
<mgrwt>
<rscale>  0 0.68129770E+03</rscale>
<asrwt>0</asrwt>
<pdfrwt beam="1">  1        2 0.44587595E-01 0.68129770E+03</pdfrwt>
<pdfrwt beam="2">  1       -2 0.61598919E-01 0.68129770E+03</pdfrwt>
<totfact> 0.28224376E+02</totfact>
</mgrwt>
</event>
<event>
 6    1  0.1028026E-006  0.1683305E+04  0.7818608E-02  0.8770944E-01
         -1   -1    0    0    0  501 -0.00000000000E+00  0.00000000000E+00  0.82822439095E+03  0.82822439095E+03  0.00000000000E+00 0.  1.
          1   -1    0    0  501    0  0.00000000000E+00 -0.00000000000E+00 -0.85529856946E+03  0.85529856946E+03  0.00000000000E+00 0. -1.
         23    2    1    2    0    0  0.71185489054E+03  0.44273047789E+03 -0.57675471771E+02  0.84466415203E+03  0.85926762118E+02 0.  0.
         11    1    3    3    0    0  0.65644250907E+03  0.38593943023E+03 -0.68585687566E+02  0.76457178084E+03  0.00000000000E+00 0. -1.
        -11    1    3    3    0    0  0.55412381471E+02  0.56791047658E+02  0.10910215796E+02  0.80092371192E+02  0.00000000000E+00 0.  1.
         22    1    1    2    0    0 -0.71185489054E+03 -0.44273047789E+03  0.30601293267E+02  0.83885880838E+03  0.00000000000E+00 0. -1.
<mgrwt>
<rscale>  0 0.16833052E+04</rscale>
<asrwt>0</asrwt>
<pdfrwt beam="1">  1        1 0.13158439E+00 0.16833052E+04</pdfrwt>
<pdfrwt beam="2">  1       -1 0.12741914E+00 0.16833052E+04</pdfrwt>
<totfact> 0.10078461E+01</totfact>
</mgrwt>
</event>
<event>
 6    1  0.1028026E-006  0.2537968E+04  0.7818608E-02  0.8389583E-01
          2   -1    0    0  501    0  0.00000000000E+00  0.00000000000E+00  0.19920178360E+04  0.19920178360E+04  0.00000000000E+00 0. -1.
         -2   -1    0    0    0  501 -0.00000000000E+00 -0.00000000000E+00 -0.80838624488E+03  0.80838624488E+03  0.00000000000E+00 0.  1.
         23    2    1    2    0    0  0.38230823910E+03  0.90818554718E+03 -0.28675482734E+03  0.10303767372E+04  0.92126607023E+02 0.  0.
         11    1    3    3    0    0  0.31620165792E+03  0.65014244625E+03 -0.22141191474E+03  0.75610311789E+03  0.00000000000E+00 0.  1.
        -11    1    3    3    0    0  0.66106581186E+02  0.25804310093E+03 -0.65342912607E+02  0.27427361929E+03  0.00000000000E+00 0. -1.
         22    1    1    2    0    0 -0.38230823910E+03 -0.90818554718E+03  0.14703864184E+04  0.17700273436E+04  0.00000000000E+00 0. -1.
<mgrwt>
<rscale>  0 0.25379675E+04</rscale>
<asrwt>0</asrwt>
<pdfrwt beam="1">  1        2 0.30646428E+00 0.25379675E+04</pdfrwt>
<pdfrwt beam="2">  1       -2 0.12436711E+00 0.25379675E+04</pdfrwt>
<totfact> 0.29144781E+00</totfact>
</mgrwt>
</event>
<event>
 6    1  0.1028026E-006  0.3125954E+04  0.7818608E-02  0.8208651E-01
         -1   -1    0    0    0  501 -0.00000000000E+00  0.00000000000E+00  0.20664405383E+04  0.20664405383E+04  0.00000000000E+00 0.  1.
          1   -1    0    0  501    0  0.00000000000E+00 -0.00000000000E+00 -0.11821767038E+04  0.11821767038E+04  0.00000000000E+00 0. -1.
         23    2    1    2    0    0  0.34585498073E+03 -0.13863082599E+04  0.10975820965E+04  0.18039820147E+04  0.90544969588E+02 0.  0.
         11    1    3    3    0    0  0.88191119086E+02 -0.49449542740E+03  0.35221487308E+03  0.61348082124E+03  0.00000000000E+00 0. -1.
        -11    1    3    3    0    0  0.25766386164E+03 -0.89181283250E+03  0.74536722344E+03  0.11905011934E+04  0.00000000000E+00 0.  1.
         22    1    1    2    0    0 -0.34585498073E+03  0.13863082599E+04 -0.21331826204E+03  0.14446352273E+04  0.00000000000E+00 0. -1.
<mgrwt>
<rscale>  0 0.31259545E+04</rscale>
<asrwt>0</asrwt>
<pdfrwt beam="1">  1        1 0.18187334E+00 0.31259545E+04</pdfrwt>
<pdfrwt beam="2">  1       -1 0.31791393E+00 0.31259545E+04</pdfrwt>
<totfact> 0.23411127E-01</totfact>
</mgrwt>
</event>
<event>
 6    1  0.1028026E-006  0.3079424E+03  0.7818608E-02  0.1081336E+00
         -2   -1    0    0    0  501 -0.00000000000E+00  0.00000000000E+00  0.36856917920E+02  0.36856917920E+02  0.00000000000E+00 0.  1.
          2   -1    0    0  501    0  0.00000000000E+00 -0.00000000000E+00 -0.64322052708E+03  0.64322052708E+03  0.00000000000E+00 0. -1.
         23    2    1    2    0    0 -0.53884868233E+02  0.19725139851E+02 -0.61288912375E+03  0.62232588652E+03  0.91453654142E+02 0.  0.
         13    1    3    3    0    0 -0.30276334625E+01  0.36024011689E+02 -0.43737738529E+03  0.43886885643E+03  0.00000000000E+00 0.  1.
        -13    1    3    3    0    0 -0.50857234771E+02 -0.16298871838E+02 -0.17551173846E+03  0.18345703009E+03  0.00000000000E+00 0. -1.
         22    1    1    2    0    0  0.53884868233E+02 -0.19725139851E+02  0.65255145857E+01  0.57751558484E+02  0.00000000000E+00 0.  1.
<mgrwt>
<rscale>  0 0.30794237E+03</rscale>
<asrwt>0</asrwt>
<pdfrwt beam="1">  1        2 0.98956995E-01 0.30794237E+03</pdfrwt>
<pdfrwt beam="2">  1       -2 0.56702956E-02 0.30794237E+03</pdfrwt>
<totfact> 0.75061583E+03</totfact>
</mgrwt>
</event>
<event>
 6    1  0.1028026E-006  0.2011937E+04  0.7818608E-02  0.8601060E-01
         -2   -1    0    0    0  501 -0.00000000000E+00  0.00000000000E+00  0.33674592590E+03  0.33674592590E+03  0.00000000000E+00 0.  1.
          2   -1    0    0  501    0  0.00000000000E+00 -0.00000000000E+00 -0.30051509261E+04  0.30051509261E+04  0.00000000000E+00 0. -1.
         23    2    1    2    0    0 -0.26835017951E+03 -0.15853072710E+03 -0.29220683636E+04  0.29400400215E+04  0.90597993015E+02 0.  0.
         13    1    3    3    0    0 -0.22079816055E+03 -0.15112185502E+03 -0.21699390777E+04  0.21863726223E+04  0.00000000000E+00 0.  1.
        -13    1    3    3    0    0 -0.47552018954E+02 -0.74088720827E+01 -0.75212928594E+03  0.75366739923E+03  0.00000000000E+00 0. -1.
         22    1    1    2    0    0  0.26835017951E+03  0.15853072710E+03  0.25366336339E+03  0.40185683048E+03  0.00000000000E+00 0.  1.
<mgrwt>
<rscale>  0 0.20119367E+04</rscale>
<asrwt>0</asrwt>
<pdfrwt beam="1">  1        2 0.46233092E+00 0.20119367E+04</pdfrwt>
<pdfrwt beam="2">  1       -2 0.51807064E-01 0.20119367E+04</pdfrwt>
<totfact> 0.56573811E+00</totfact>
</mgrwt>
</event>
<event>
 6    1  0.1028026E-006  0.1915816E+04  0.7818608E-02  0.8647024E-01
          2   -1    0    0  501    0  0.00000000000E+00  0.00000000000E+00  0.20129637676E+04  0.20129637676E+04  0.00000000000E+00 0. -1.
         -2   -1    0    0    0  501 -0.00000000000E+00 -0.00000000000E+00 -0.45583902576E+03  0.45583902576E+03  0.00000000000E+00 0.  1.
         23    2    1    2    0    0  0.84751872133E+03  0.36398483815E+02  0.21392384564E+03  0.88015510422E+03  0.96419723754E+02 0.  0.
         11    1    3    3    0    0  0.41767764958E+03  0.65578107215E+02  0.98064570838E+02  0.43401816455E+03  0.00000000000E+00 0.  1.
        -11    1    3    3    0    0  0.42984107175E+03 -0.29179623400E+02  0.11585927480E+03  0.44613693968E+03  0.00000000000E+00 0. -1.
         22    1    1    2    0    0 -0.84751872133E+03 -0.36398483815E+02  0.13432008962E+04  0.15886476891E+04  0.00000000000E+00 0. -1.
<mgrwt>
<rscale>  0 0.19158157E+04</rscale>
<asrwt>0</asrwt>
<pdfrwt beam="1">  1        2 0.30968673E+00 0.19158157E+04</pdfrwt>
<pdfrwt beam="2">  1       -2 0.70129082E-01 0.19158157E+04</pdfrwt>
<totfact> 0.11379166E+01</totfact>
</mgrwt>
</event>
<event>
 6    1  0.1028026E-006  0.1183692E+04  0.7818608E-02  0.9127252E-01
          1   -1    0    0  501    0  0.00000000000E+00  0.00000000000E+00  0.23332689894E+03  0.23332689894E+03  0.00000000000E+00 0. -1.
         -1   -1    0    0    0  501 -0.00000000000E+00 -0.00000000000E+00 -0.15012494395E+04  0.15012494395E+04  0.00000000000E+00 0.  1.
         23    2    1    2    0    0 -0.45211414902E+03 -0.33034593404E+03 -0.37329026210E+03  0.67916051824E+03  0.91530049049E+02 0.  0.
         13    1    3    3    0    0 -0.31327897429E+03 -0.27815136481E+03 -0.26976116694E+03  0.49828002636E+03  0.00000000000E+00 0. -1.
        -13    1    3    3    0    0 -0.13883517473E+03 -0.52194569228E+02 -0.10352909516E+03  0.18088049188E+03  0.00000000000E+00 0.  1.
         22    1    1    2    0    0  0.45211414902E+03  0.33034593404E+03 -0.89463227845E+03  0.10554158202E+04  0.00000000000E+00 0. -1.
<mgrwt>
<rscale>  0 0.11836923E+04</rscale>
<asrwt>0</asrwt>
<pdfrwt beam="1">  1        1 0.35896445E-01 0.11836923E+04</pdfrwt>
<pdfrwt beam="2">  1       -1 0.23096146E+00 0.11836923E+04</pdfrwt>
<totfact> 0.11231958E+01</totfact>
</mgrwt>
</event>
<event>
 6    1  0.1028026E-006  0.3051487E+04  0.7818608E-02  0.8229179E-01
         -2   -1    0    0    0  501 -0.00000000000E+00  0.00000000000E+00  0.10523499193E+04  0.10523499193E+04  0.00000000000E+00 0.  1.
          2   -1    0    0  501    0  0.00000000000E+00 -0.00000000000E+00 -0.22120906791E+04  0.22120906791E+04  0.00000000000E+00 0. -1.
         23    2    1    2    0    0  0.25092544966E+03 -0.98529324123E+03 -0.17954550576E+04  0.20653163259E+04  0.90035046869E+02 0.  0.
         11    1    3    3    0    0  0.16467054117E+03 -0.75959927031E+03 -0.13148619162E+04  0.15274060682E+04  0.00000000000E+00 0. -1.
        -11    1    3    3    0    0  0.86254908492E+02 -0.22569397092E+03 -0.48059314138E+03  0.53791025765E+03  0.00000000000E+00 0.  1.
         22    1    1    2    0    0 -0.25092544966E+03  0.98529324123E+03  0.63571429785E+03  0.11991242725E+04  0.00000000000E+00 0.  1.
<mgrwt>
<rscale>  0 0.30514871E+04</rscale>
<asrwt>0</asrwt>
<pdfrwt beam="1">  1        2 0.34032164E+00 0.30514871E+04</pdfrwt>
<pdfrwt beam="2">  1       -2 0.16189999E+00 0.30514871E+04</pdfrwt>
<totfact> 0.10568408E+00</totfact>
</mgrwt>
</event>
<event>
 6    1  0.1028026E-006  0.1869631E+04  0.7818608E-02  0.8670123E-01
         -1   -1    0    0    0  501 -0.00000000000E+00  0.00000000000E+00  0.41781664499E+03  0.41781664499E+03  0.00000000000E+00 0.  1.
          1   -1    0    0  501    0  0.00000000000E+00 -0.00000000000E+00 -0.20915388886E+04  0.20915388886E+04  0.00000000000E+00 0. -1.
         23    2    1    2    0    0  0.25139776954E+03  0.21948906185E+03 -0.20077449274E+04  0.20371824296E+04  0.87728394950E+02 0.  0.
         13    1    3    3    0    0  0.20390314857E+03  0.15761214304E+03 -0.13114969647E+04  0.13365786060E+04  0.00000000000E+00 0.  1.
        -13    1    3    3    0    0  0.47494620978E+02  0.61876918808E+02 -0.69624796265E+03  0.70060382357E+03  0.00000000000E+00 0. -1.
         22    1    1    2    0    0 -0.25139776954E+03 -0.21948906185E+03  0.33402268380E+03  0.47217310395E+03  0.00000000000E+00 0.  1.
<mgrwt>
<rscale>  0 0.18696307E+04</rscale>
<asrwt>0</asrwt>
<pdfrwt beam="1">  1        1 0.32177521E+00 0.18696307E+04</pdfrwt>
<pdfrwt beam="2">  1       -1 0.64279484E-01 0.18696307E+04</pdfrwt>
<totfact> 0.59459245E+00</totfact>
</mgrwt>
</event>
<event>
 6    1  0.1028026E-006  0.2436837E+04  0.7818608E-02  0.8425840E-01
         -1   -1    0    0    0  501 -0.00000000000E+00  0.00000000000E+00  0.12910633587E+04  0.12910633587E+04  0.00000000000E+00 0.  1.
          1   -1    0    0  501    0  0.00000000000E+00 -0.00000000000E+00 -0.11498613729E+04  0.11498613729E+04  0.00000000000E+00 0. -1.
         23    2    1    2    0    0 -0.57272305072E+02  0.48116263103E+03 -0.10472615632E+04  0.11574750046E+04  0.90520771680E+02 0.  0.
         13    1    3    3    0    0  0.22841791751E+02  0.17439690643E+03 -0.37255702855E+03  0.41198879590E+03  0.00000000000E+00 0. -1.
        -13    1    3    3    0    0 -0.80114096823E+02  0.30676572460E+03 -0.67470453461E+03  0.74548620867E+03  0.00000000000E+00 0.  1.
         22    1    1    2    0    0  0.57272305072E+02 -0.48116263103E+03  0.11884635490E+04  0.12834497270E+04  0.00000000000E+00 0.  1.
<mgrwt>
<rscale>  0 0.24368372E+04</rscale>
<asrwt>0</asrwt>
<pdfrwt beam="1">  1        1 0.17690175E+00 0.24368372E+04</pdfrwt>
<pdfrwt beam="2">  1       -1 0.19862513E+00 0.24368372E+04</pdfrwt>
<totfact> 0.15988709E+00</totfact>
</mgrwt>
</event>
<event>
 6    1  0.1028026E-006  0.2824761E+04  0.7818608E-02  0.8295622E-01
          2   -1    0    0  501    0  0.00000000000E+00  0.00000000000E+00  0.16724064787E+04  0.16724064787E+04  0.00000000000E+00 0. -1.
         -2   -1    0    0    0  501 -0.00000000000E+00 -0.00000000000E+00 -0.11927832489E+04  0.11927832489E+04  0.00000000000E+00 0.  1.
         23    2    1    2    0    0  0.12502919651E+04  0.53293564148E+03  0.62405713022E+03  0.14984009556E+04  0.92237335421E+02 0.  0.
         11    1    3    3    0    0  0.19559141592E+03  0.82418223516E+02  0.61545436136E+02  0.22099005918E+03  0.00000000000E+00 0. -1.
        -11    1    3    3    0    0  0.10547005492E+04  0.45051741796E+03  0.56251169408E+03  0.12774108964E+04  0.00000000000E+00 0.  1.
         22    1    1    2    0    0 -0.12502919651E+04 -0.53293564148E+03 -0.14443390039E+03  0.13667887721E+04  0.00000000000E+00 0.  1.
<mgrwt>
<rscale>  0 0.28247608E+04</rscale>
<asrwt>0</asrwt>
<pdfrwt beam="1">  1        2 0.25729331E+00 0.28247608E+04</pdfrwt>
<pdfrwt beam="2">  1       -2 0.18350511E+00 0.28247608E+04</pdfrwt>
<totfact> 0.15136946E+00</totfact>
</mgrwt>
</event>
<event>
 6    1  0.1028026E-006  0.1432564E+04  0.7818608E-02  0.8930579E-01
         -2   -1    0    0    0  501 -0.00000000000E+00  0.00000000000E+00  0.46348866479E+03  0.46348866479E+03  0.00000000000E+00 0.  1.
          2   -1    0    0  501    0  0.00000000000E+00 -0.00000000000E+00 -0.11069521422E+04  0.11069521422E+04  0.00000000000E+00 0. -1.
         23    2    1    2    0    0 -0.36773134014E+03  0.54421292128E+03 -0.17440974499E+02  0.66308298544E+03  0.89335411602E+02 0.  0.
         13    1    3    3    0    0 -0.30185431329E+03  0.47007327542E+03 -0.44100015561E+02  0.56038354909E+03  0.00000000000E+00 0.  1.
        -13    1    3    3    0    0 -0.65877026851E+02  0.74139645870E+02  0.26659041062E+02  0.10269943635E+03  0.00000000000E+00 0. -1.
         22    1    1    2    0    0  0.36773134014E+03 -0.54421292128E+03 -0.62602250295E+03  0.90735782160E+03  0.00000000000E+00 0. -1.
<mgrwt>
<rscale>  0 0.14325638E+04</rscale>
<asrwt>0</asrwt>
<pdfrwt beam="1">  1        2 0.17030033E+00 0.14325638E+04</pdfrwt>
<pdfrwt beam="2">  1       -2 0.71305949E-01 0.14325638E+04</pdfrwt>
<totfact> 0.37398765E+01</totfact>
</mgrwt>
</event>
<event>
 6    1  0.1028026E-006  0.2861335E+04  0.7818608E-02  0.8284475E-01
          1   -1    0    0  501    0  0.00000000000E+00  0.00000000000E+00  0.16321883144E+04  0.16321883144E+04  0.00000000000E+00 0. -1.
         -1   -1    0    0    0  501 -0.00000000000E+00 -0.00000000000E+00 -0.12540276181E+04  0.12540276181E+04  0.00000000000E+00 0.  1.
         23    2    1    2    0    0 -0.85356427337E+03  0.94122475643E+02  0.13415884849E+04  0.15956253262E+04  0.93431844965E+02 0.  0.
         13    1    3    3    0    0 -0.40726776900E+03  0.19318661007E+01  0.59862228615E+03  0.72402997814E+03  0.00000000000E+00 0.  1.
        -13    1    3    3    0    0 -0.44629650437E+03  0.92190609542E+02  0.74296619876E+03  0.87159534808E+03  0.00000000000E+00 0. -1.
         22    1    1    2    0    0  0.85356427337E+03 -0.94122475643E+02 -0.96342778860E+03  0.12905906063E+04  0.00000000000E+00 0.  1.
<mgrwt>
<rscale>  0 0.28613348E+04</rscale>
<asrwt>0</asrwt>
<pdfrwt beam="1">  1        1 0.25110590E+00 0.28613348E+04</pdfrwt>
<pdfrwt beam="2">  1       -1 0.19292733E+00 0.28613348E+04</pdfrwt>
<totfact> 0.76981673E-01</totfact>
</mgrwt>
</event>
<event>
 6    1  0.1028026E-006  0.2049362E+04  0.7818608E-02  0.8583884E-01
          1   -1    0    0  501    0  0.00000000000E+00  0.00000000000E+00  0.23775906562E+04  0.23775906562E+04  0.00000000000E+00 0. -1.
         -1   -1    0    0    0  501 -0.00000000000E+00 -0.00000000000E+00 -0.44161119539E+03  0.44161119539E+03  0.00000000000E+00 0.  1.
         23    2    1    2    0    0 -0.70982620085E+03  0.53676532215E+03  0.16629933265E+04  0.18883465051E+04  0.91298811451E+02 0.  0.
         13    1    3    3    0    0 -0.45706700186E+03  0.29104716536E+03  0.98697542371E+03  0.11259392451E+04  0.00000000000E+00 0. -1.
        -13    1    3    3    0    0 -0.25275919900E+03  0.24571815678E+03  0.67601790276E+03  0.76240726000E+03  0.00000000000E+00 0.  1.
         22    1    1    2    0    0  0.70982620085E+03 -0.53676532215E+03  0.27298613430E+03  0.93085534644E+03  0.00000000000E+00 0.  1.
<mgrwt>
<rscale>  0 0.20493615E+04</rscale>
<asrwt>0</asrwt>
<pdfrwt beam="1">  1        1 0.36578317E+00 0.20493615E+04</pdfrwt>
<pdfrwt beam="2">  1       -1 0.67940185E-01 0.20493615E+04</pdfrwt>
<totfact> 0.33360487E+00</totfact>
</mgrwt>
</event>
<event>
 6    1  0.1028026E-006  0.2662335E+04  0.7818608E-02  0.8347330E-01
         -1   -1    0    0    0  501 -0.00000000000E+00  0.00000000000E+00  0.19778922321E+04  0.19778922321E+04  0.00000000000E+00 0.  1.
          1   -1    0    0  501    0  0.00000000000E+00 -0.00000000000E+00 -0.89590658136E+03  0.89590658136E+03  0.00000000000E+00 0. -1.
         23    2    1    2    0    0  0.44470248401E+03 -0.98209407227E+03  0.13811438276E+04  0.17549759138E+04  0.10056400560E+03 0.  0.
         13    1    3    3    0    0  0.19625520889E+03 -0.48567661164E+03  0.74427780246E+03  0.91013588290E+03  0.00000000000E+00 0.  1.
        -13    1    3    3    0    0  0.24844727512E+03 -0.49641746063E+03  0.63686602517E+03  0.84484003086E+03  0.00000000000E+00 0. -1.
         22    1    1    2    0    0 -0.44470248401E+03  0.98209407227E+03 -0.29915817689E+03  0.11188228997E+04  0.00000000000E+00 0. -1.
<mgrwt>
<rscale>  0 0.26623348E+04</rscale>
<asrwt>0</asrwt>
<pdfrwt beam="1">  1        1 0.13783178E+00 0.26623348E+04</pdfrwt>
<pdfrwt beam="2">  1       -1 0.30429111E+00 0.26623348E+04</pdfrwt>
<totfact> 0.49756141E-01</totfact>
</mgrwt>
</event>
<event>
 6    1  0.1028026E-006  0.2121419E+04  0.7818608E-02  0.8551866E-01
         -1   -1    0    0    0  501 -0.00000000000E+00  0.00000000000E+00  0.13996531196E+04  0.13996531196E+04  0.00000000000E+00 0.  1.
          1   -1    0    0  501    0  0.00000000000E+00 -0.00000000000E+00 -0.80384566070E+03  0.80384566070E+03  0.00000000000E+00 0. -1.
         23    2    1    2    0    0 -0.45993395533E+03  0.95328961790E+03  0.29639672091E+03  0.11035228129E+04  0.98036949891E+02 0.  0.
         13    1    3    3    0    0 -0.11015734896E+03  0.14508396763E+03  0.58063812944E+02  0.19119467976E+03  0.00000000000E+00 0. -1.
        -13    1    3    3    0    0 -0.34977660636E+03  0.80820565027E+03  0.23833290796E+03  0.91232813313E+03  0.00000000000E+00 0.  1.
         22    1    1    2    0    0  0.45993395533E+03 -0.95328961790E+03  0.29941073802E+03  0.10999759674E+04  0.00000000000E+00 0.  1.
<mgrwt>
<rscale>  0 0.21214194E+04</rscale>
<asrwt>0</asrwt>
<pdfrwt beam="1">  1        1 0.12366856E+00 0.21214194E+04</pdfrwt>
<pdfrwt beam="2">  1       -1 0.21533125E+00 0.21214194E+04</pdfrwt>
<totfact> 0.23823315E+00</totfact>
</mgrwt>
</event>
<event>
 6    1  0.1028026E-006  0.2266839E+04  0.7818608E-02  0.8491112E-01
         -2   -1    0    0    0  501 -0.00000000000E+00  0.00000000000E+00  0.28000001681E+04  0.28000001681E+04  0.00000000000E+00 0.  1.
          2   -1    0    0  501    0  0.00000000000E+00 -0.00000000000E+00 -0.45879976418E+03  0.45879976418E+03  0.00000000000E+00 0. -1.
         23    2    1    2    0    0 -0.10795762871E+04 -0.44966446148E+02  0.68896585886E+03  0.12846201196E+04  0.89821801643E+02 0.  0.
         11    1    3    3    0    0 -0.51796133456E+03  0.20704639712E+02  0.34745530054E+03  0.62404952694E+03  0.00000000000E+00 0. -1.
        -11    1    3    3    0    0 -0.56161495254E+03 -0.65671085860E+02  0.34151055832E+03  0.66057059265E+03  0.00000000000E+00 0.  1.
         22    1    1    2    0    0  0.10795762871E+04  0.44966446148E+02  0.16522345451E+04  0.19741798127E+04  0.00000000000E+00 0.  1.
<mgrwt>
<rscale>  0 0.22668387E+04</rscale>
<asrwt>0</asrwt>
<pdfrwt beam="1">  1        2 0.70584581E-01 0.22668387E+04</pdfrwt>
<pdfrwt beam="2">  1       -2 0.43076925E+00 0.22668387E+04</pdfrwt>
<totfact> 0.28794662E-01</totfact>
</mgrwt>
</event>
<event>
 6    1  0.1028026E-006  0.3770078E+03  0.7818608E-02  0.1052045E+00
          2   -1    0    0  501    0  0.00000000000E+00  0.00000000000E+00  0.83108044017E+03  0.83108044017E+03  0.00000000000E+00 0. -1.
         -2   -1    0    0    0  501 -0.00000000000E+00 -0.00000000000E+00 -0.42756050678E+02  0.42756050678E+02  0.00000000000E+00 0.  1.
         23    2    1    2    0    0 -0.49310794813E+02 -0.15016151271E+03  0.23215562426E+03  0.29564644440E+03  0.92360986518E+02 0.  0.
         13    1    3    3    0    0 -0.27048709060E+02 -0.94740338593E+02  0.20996417015E+03  0.23193170798E+03  0.00000000000E+00 0. -1.
        -13    1    3    3    0    0 -0.22262085753E+02 -0.55421174116E+02  0.22191454105E+02  0.63714736426E+02  0.00000000000E+00 0.  1.
         22    1    1    2    0    0  0.49310794813E+02  0.15016151271E+03  0.55616876524E+03  0.57819004645E+03  0.00000000000E+00 0. -1.
<mgrwt>
<rscale>  0 0.37700778E+03</rscale>
<asrwt>0</asrwt>
<pdfrwt beam="1">  1        2 0.12785852E+00 0.37700778E+03</pdfrwt>
<pdfrwt beam="2">  1       -2 0.65778546E-02 0.37700778E+03</pdfrwt>
<totfact> 0.43559760E+03</totfact>
</mgrwt>
</event>
<event>
 6    1  0.1028026E-006  0.1596430E+04  0.7818608E-02  0.8822744E-01
          2   -1    0    0  501    0  0.00000000000E+00  0.00000000000E+00  0.35124699602E+04  0.35124699602E+04  0.00000000000E+00 0. -1.
         -2   -1    0    0    0  501 -0.00000000000E+00 -0.00000000000E+00 -0.18139582385E+03  0.18139582385E+03  0.00000000000E+00 0.  1.
         23    2    1    2    0    0  0.59793759524E+03  0.43221385800E+03  0.23602030997E+04  0.24744689017E+04  0.89997149133E+02 0.  0.
         11    1    3    3    0    0  0.10186627069E+03  0.50363468351E+02  0.28231448772E+03  0.30432661077E+03  0.00000000000E+00 0. -1.
        -11    1    3    3    0    0  0.49607132455E+03  0.38185038965E+03  0.20778886120E+04  0.21701422910E+04  0.00000000000E+00 0.  1.
         22    1    1    2    0    0 -0.59793759524E+03 -0.43221385800E+03  0.97087103660E+03  0.12193968823E+04  0.00000000000E+00 0.  1.
<mgrwt>
<rscale>  0 0.15964302E+04</rscale>
<asrwt>0</asrwt>
<pdfrwt beam="1">  1        2 0.54037994E+00 0.15964302E+04</pdfrwt>
<pdfrwt beam="2">  1       -2 0.27907052E-01 0.15964302E+04</pdfrwt>
<totfact> 0.90732330E+00</totfact>
</mgrwt>
</event>
<event>
 6    1  0.1028026E-006  0.1374806E+04  0.7818608E-02  0.8972260E-01
         -2   -1    0    0    0  501 -0.00000000000E+00  0.00000000000E+00  0.29481601347E+03  0.29481601347E+03  0.00000000000E+00 0.  1.
          2   -1    0    0  501    0  0.00000000000E+00 -0.00000000000E+00 -0.16027725895E+04  0.16027725895E+04  0.00000000000E+00 0. -1.
         23    2    1    2    0    0 -0.66778964067E+03 -0.46806841985E+02 -0.85346803617E+03  0.10884571442E+04  0.90539391459E+02 0.  0.
         13    1    3    3    0    0 -0.25001376804E+03 -0.58226830355E+02 -0.35208475850E+03  0.43573033536E+03  0.00000000000E+00 0. -1.
        -13    1    3    3    0    0 -0.41777587263E+03  0.11419988370E+02 -0.50138327767E+03  0.65272680887E+03  0.00000000000E+00 0.  1.
         22    1    1    2    0    0  0.66778964067E+03  0.46806841985E+02 -0.45448853984E+03  0.80913145872E+03  0.00000000000E+00 0.  1.
<mgrwt>
<rscale>  0 0.13748062E+04</rscale>
<asrwt>0</asrwt>
<pdfrwt beam="1">  1        2 0.24658040E+00 0.13748062E+04</pdfrwt>
<pdfrwt beam="2">  1       -2 0.45356309E-01 0.13748062E+04</pdfrwt>
<totfact> 0.49935024E+01</totfact>
</mgrwt>
</event>
<event>
 6    1  0.1028026E-006  0.4687307E+03  0.7818608E-02  0.1022279E+00
          2   -1    0    0  501    0  0.00000000000E+00  0.00000000000E+00  0.95541779253E+03  0.95541779253E+03  0.00000000000E+00 0. -1.
         -2   -1    0    0    0  501 -0.00000000000E+00 -0.00000000000E+00 -0.57490147720E+02  0.57490147720E+02  0.00000000000E+00 0.  1.
         23    2    1    2    0    0 -0.11534483746E+02 -0.10828931540E+03  0.89249537751E+03  0.90387065455E+03  0.92598818262E+02 0.  0.
         13    1    3    3    0    0  0.15846111633E+02 -0.71481835879E+02  0.76271079493E+03  0.76621701157E+03  0.00000000000E+00 0. -1.
        -13    1    3    3    0    0 -0.27380595379E+02 -0.36807479518E+02  0.12978458258E+03  0.13765364299E+03  0.00000000000E+00 0.  1.
         22    1    1    2    0    0  0.11534483746E+02  0.10828931540E+03  0.54322673033E+01  0.10903728570E+03  0.00000000000E+00 0.  1.
<mgrwt>
<rscale>  0 0.46873067E+03</rscale>
<asrwt>0</asrwt>
<pdfrwt beam="1">  1        2 0.14698734E+00 0.46873067E+03</pdfrwt>
<pdfrwt beam="2">  1       -2 0.88446388E-02 0.46873067E+03</pdfrwt>
<totfact> 0.22633465E+03</totfact>
</mgrwt>
</event>
<event>
 6    1  0.1324463E-006  0.3876745E+04  0.7818608E-02  0.8029883E-01
         -2   -1    0    0    0  501 -0.00000000000E+00  0.00000000000E+00  0.17314833163E+04  0.17314833163E+04  0.00000000000E+00 0.  1.
          2   -1    0    0  501    0  0.00000000000E+00 -0.00000000000E+00 -0.21699819225E+04  0.21699819225E+04  0.00000000000E+00 0. -1.
         23    2    1    2    0    0 -0.36704210704E+03 -0.17706153814E+04  0.47985538812E+03  0.18733693839E+04  0.97226117159E+02 0.  0.
         13    1    3    3    0    0 -0.18818678550E+03 -0.92390812165E+03  0.30031050677E+03  0.98954882849E+03  0.00000000000E+00 0.  1.
        -13    1    3    3    0    0 -0.17885532154E+03 -0.84670725979E+03  0.17954488134E+03  0.88382055545E+03  0.00000000000E+00 0. -1.
         22    1    1    2    0    0  0.36704210704E+03  0.17706153814E+04 -0.91835399434E+03  0.20280958548E+04  0.00000000000E+00 0. -1.
<mgrwt>
<rscale>  0 0.38767448E+04</rscale>
<asrwt>0</asrwt>
<pdfrwt beam="1">  1        2 0.33384337E+00 0.38767448E+04</pdfrwt>
<pdfrwt beam="2">  1       -2 0.26638205E+00 0.38767448E+04</pdfrwt>
<totfact> 0.21816471E-01</totfact>
</mgrwt>
</event>
<event>
 6    1  0.1028026E-006  0.3524631E+04  0.7818608E-02  0.8107978E-01
          2   -1    0    0  501    0  0.00000000000E+00  0.00000000000E+00  0.46857512736E+04  0.46857512736E+04  0.00000000000E+00 0. -1.
         -2   -1    0    0    0  501 -0.00000000000E+00 -0.00000000000E+00 -0.66280836620E+03  0.66280836620E+03  0.00000000000E+00 0.  1.
         23    2    1    2    0    0 -0.47761083648E+03 -0.70451050867E+03  0.43524323894E+04  0.44358655582E+04  0.93746348304E+02 0.  0.
         13    1    3    3    0    0 -0.38271860243E+03 -0.50847894745E+03  0.33724885734E+04  0.34320115889E+04  0.00000000000E+00 0.  1.
        -13    1    3    3    0    0 -0.94892234049E+02 -0.19603156122E+03  0.97994381601E+03  0.10038539693E+04  0.00000000000E+00 0. -1.
         22    1    1    2    0    0  0.47761083648E+03  0.70451050867E+03 -0.32948948199E+03  0.91269408166E+03  0.00000000000E+00 0.  1.
<mgrwt>
<rscale>  0 0.35246306E+04</rscale>
<asrwt>0</asrwt>
<pdfrwt beam="1">  1        2 0.72088479E+00 0.35246306E+04</pdfrwt>
<pdfrwt beam="2">  1       -2 0.10197052E+00 0.35246306E+04</pdfrwt>
<totfact> 0.51094371E-02</totfact>
</mgrwt>
</event>
<event>
 6    1  0.1028026E-006  0.1853520E+04  0.7818608E-02  0.8678345E-01
          2   -1    0    0  501    0  0.00000000000E+00  0.00000000000E+00  0.30718911744E+04  0.30718911744E+04  0.00000000000E+00 0. -1.
         -2   -1    0    0    0  501 -0.00000000000E+00 -0.00000000000E+00 -0.27959459770E+03  0.27959459770E+03  0.00000000000E+00 0.  1.
         23    2    1    2    0    0  0.13742042347E+03 -0.39739377403E+03  0.28882465456E+04  0.29201940135E+04  0.93588377137E+02 0.  0.
         11    1    3    3    0    0  0.14201832146E+03 -0.34497515548E+03  0.23561571946E+04  0.23855091254E+04  0.00000000000E+00 0. -1.
        -11    1    3    3    0    0 -0.45978979878E+01 -0.52418618556E+02  0.53208935093E+03  0.53468488815E+03  0.00000000000E+00 0.  1.
         22    1    1    2    0    0 -0.13742042347E+03  0.39739377403E+03 -0.95949968905E+02  0.43129175851E+03  0.00000000000E+00 0.  1.
<mgrwt>
<rscale>  0 0.18535201E+04</rscale>
<asrwt>0</asrwt>
<pdfrwt beam="1">  1        2 0.47259862E+00 0.18535201E+04</pdfrwt>
<pdfrwt beam="2">  1       -2 0.43014556E-01 0.18535201E+04</pdfrwt>
<totfact> 0.75837426E+00</totfact>
</mgrwt>
</event>
<event>
 6    1  0.1028026E-006  0.5886952E+03  0.7818608E-02  0.9929141E-01
          1   -1    0    0  501    0  0.00000000000E+00  0.00000000000E+00  0.34795791165E+03  0.34795791165E+03  0.00000000000E+00 0. -1.
         -1   -1    0    0    0  501 -0.00000000000E+00 -0.00000000000E+00 -0.24899712795E+03  0.24899712795E+03  0.00000000000E+00 0.  1.
         23    2    1    2    0    0  0.21225848969E+03  0.18025176849E+03  0.12221835535E+03  0.31751760272E+03  0.91300247342E+02 0.  0.
         13    1    3    3    0    0  0.24003693359E+02  0.34907873670E+02  0.56785871520E+02  0.70847527433E+02  0.00000000000E+00 0.  1.
        -13    1    3    3    0    0  0.18825479633E+03  0.14534389482E+03  0.65432483827E+02  0.24667007529E+03  0.00000000000E+00 0. -1.
         22    1    1    2    0    0 -0.21225848969E+03 -0.18025176849E+03 -0.23257571645E+02  0.27943743688E+03  0.00000000000E+00 0.  1.
<mgrwt>
<rscale>  0 0.58869524E+03</rscale>
<asrwt>0</asrwt>
<pdfrwt beam="1">  1        1 0.53531986E-01 0.58869524E+03</pdfrwt>
<pdfrwt beam="2">  1       -1 0.38307250E-01 0.58869524E+03</pdfrwt>
<totfact> 0.48113068E+02</totfact>
</mgrwt>
</event>
<event>
 6    1  0.1028026E-006  0.1036843E+04  0.7818608E-02  0.9269034E-01
          2   -1    0    0  501    0  0.00000000000E+00  0.00000000000E+00  0.24435742100E+04  0.24435742100E+04  0.00000000000E+00 0. -1.
         -2   -1    0    0    0  501 -0.00000000000E+00 -0.00000000000E+00 -0.10998687082E+03  0.10998687082E+03  0.00000000000E+00 0.  1.
         23    2    1    2    0    0  0.12492379019E+03  0.40147291320E+02  0.24007879542E+04  0.24061376057E+04  0.92182526305E+02 0.  0.
         11    1    3    3    0    0  0.18072665134E+02  0.12853954026E+02  0.12222233499E+04  0.12224245427E+04  0.00000000000E+00 0.  1.
        -11    1    3    3    0    0  0.10685112506E+03  0.27293337294E+02  0.11785646042E+04  0.11837130630E+04  0.00000000000E+00 0. -1.
         22    1    1    2    0    0 -0.12492379019E+03 -0.40147291320E+02 -0.67200615024E+02  0.14742347512E+03  0.00000000000E+00 0.  1.
<mgrwt>
<rscale>  0 0.10368434E+04</rscale>
<asrwt>0</asrwt>
<pdfrwt beam="1">  1        2 0.37593445E+00 0.10368434E+04</pdfrwt>
<pdfrwt beam="2">  1       -2 0.16921059E-01 0.10368434E+04</pdfrwt>
<totfact> 0.10794387E+02</totfact>
</mgrwt>
</event>
<event>
 6    1  0.1028026E-006  0.4503918E+04  0.7818608E-02  0.7909951E-01
         -2   -1    0    0    0  501 -0.00000000000E+00  0.00000000000E+00  0.25594249002E+04  0.25594249002E+04  0.00000000000E+00 0.  1.
          2   -1    0    0  501    0  0.00000000000E+00 -0.00000000000E+00 -0.19814294725E+04  0.19814294725E+04  0.00000000000E+00 0. -1.
         23    2    1    2    0    0  0.14933334749E+04 -0.89363970729E+03  0.17284481374E+04  0.24546668857E+04  0.96019594604E+02 0.  0.
         11    1    3    3    0    0  0.54126532464E+03 -0.33742081937E+03  0.69716256521E+03  0.94491089704E+03  0.00000000000E+00 0. -1.
        -11    1    3    3    0    0  0.95206815023E+03 -0.55621888792E+03  0.10312855722E+04  0.15097559887E+04  0.00000000000E+00 0.  1.
         22    1    1    2    0    0 -0.14933334749E+04  0.89363970729E+03 -0.11504527097E+04  0.20861874870E+04  0.00000000000E+00 0. -1.
<mgrwt>
<rscale>  0 0.45039183E+04</rscale>
<asrwt>0</asrwt>
<pdfrwt beam="1">  1        2 0.30483530E+00 0.45039183E+04</pdfrwt>
<pdfrwt beam="2">  1       -2 0.39375768E+00 0.45039183E+04</pdfrwt>
<totfact> 0.42256669E-02</totfact>
</mgrwt>
</event>
<event>
 6    1  0.1028026E-006  0.4619817E+03  0.7818608E-02  0.1024208E+00
          2   -1    0    0  501    0  0.00000000000E+00  0.00000000000E+00  0.60287211751E+03  0.60287211751E+03  0.00000000000E+00 0. -1.
         -2   -1    0    0    0  501 -0.00000000000E+00 -0.00000000000E+00 -0.88504281585E+02  0.88504281585E+02  0.00000000000E+00 0.  1.
         23    2    1    2    0    0  0.14061963617E+03 -0.14022779455E+03  0.11641455632E+03  0.24662418809E+03  0.88506636979E+02 0.  0.
         11    1    3    3    0    0  0.12578856956E+02 -0.70504880662E+02  0.37377825395E+02  0.80785318410E+02  0.00000000000E+00 0.  1.
        -11    1    3    3    0    0  0.12804077921E+03 -0.69722913888E+02  0.79036730923E+02  0.16583886968E+03  0.00000000000E+00 0. -1.
         22    1    1    2    0    0 -0.14061963617E+03  0.14022779455E+03  0.39795327961E+03  0.44475221100E+03  0.00000000000E+00 0. -1.
<mgrwt>
<rscale>  0 0.46198166E+03</rscale>
<asrwt>0</asrwt>
<pdfrwt beam="1">  1        2 0.92749554E-01 0.46198166E+03</pdfrwt>
<pdfrwt beam="2">  1       -2 0.13616044E-01 0.46198166E+03</pdfrwt>
<totfact> 0.20272348E+03</totfact>
</mgrwt>
</event>
<event>
 6    1  0.1028026E-006  0.1488816E+04  0.7818608E-02  0.8891924E-01
          2   -1    0    0  501    0  0.00000000000E+00  0.00000000000E+00  0.12069195257E+04  0.12069195257E+04  0.00000000000E+00 0. -1.
         -2   -1    0    0    0  501 -0.00000000000E+00 -0.00000000000E+00 -0.45913854557E+03  0.45913854557E+03  0.00000000000E+00 0.  1.
         23    2    1    2    0    0 -0.17498690306E+03 -0.14069455123E+03  0.11660324392E+04  0.11913479954E+04  0.96244604976E+02 0.  0.
         11    1    3    3    0    0 -0.89693902132E+02 -0.24723408482E+02  0.32382446454E+03  0.33692510569E+03  0.00000000000E+00 0.  1.
        -11    1    3    3    0    0 -0.85293000928E+02 -0.11597114275E+03  0.84220797466E+03  0.85442288976E+03  0.00000000000E+00 0. -1.
         22    1    1    2    0    0  0.17498690306E+03  0.14069455123E+03 -0.41825145912E+03  0.47471007578E+03  0.00000000000E+00 0. -1.
<mgrwt>
<rscale>  0 0.14888160E+04</rscale>
<asrwt>0</asrwt>
<pdfrwt beam="1">  1        2 0.18567993E+00 0.14888160E+04</pdfrwt>
<pdfrwt beam="2">  1       -2 0.70636700E-01 0.14888160E+04</pdfrwt>
<totfact> 0.33065769E+01</totfact>
</mgrwt>
</event>
<event>
 6    1  0.1028026E-006  0.1518312E+04  0.7818608E-02  0.8872366E-01
          1   -1    0    0  501    0  0.00000000000E+00  0.00000000000E+00  0.90618381529E+03  0.90618381529E+03  0.00000000000E+00 0. -1.
         -1   -1    0    0    0  501 -0.00000000000E+00 -0.00000000000E+00 -0.63598360188E+03  0.63598360188E+03  0.00000000000E+00 0.  1.
         23    2    1    2    0    0  0.40103429866E+03  0.45541970704E+03  0.59418406865E+03  0.85427123553E+03  0.92135867883E+02 0.  0.
         13    1    3    3    0    0  0.30813384845E+03  0.31400098433E+03  0.38009726537E+03  0.58139230977E+03  0.00000000000E+00 0. -1.
        -13    1    3    3    0    0  0.92900450208E+02  0.14141872271E+03  0.21408680329E+03  0.27287892576E+03  0.00000000000E+00 0.  1.
         22    1    1    2    0    0 -0.40103429866E+03 -0.45541970704E+03 -0.32398385524E+03  0.68789618165E+03  0.00000000000E+00 0.  1.
<mgrwt>
<rscale>  0 0.15183123E+04</rscale>
<asrwt>0</asrwt>
<pdfrwt beam="1">  1        1 0.13941289E+00 0.15183123E+04</pdfrwt>
<pdfrwt beam="2">  1       -1 0.97843631E-01 0.15183123E+04</pdfrwt>
<totfact> 0.17407360E+01</totfact>
</mgrwt>
</event>
<event>
 6    1  0.1028026E-006  0.3873998E+04  0.7818608E-02  0.8030459E-01
          1   -1    0    0  501    0  0.00000000000E+00  0.00000000000E+00  0.51417686055E+04  0.51417686055E+04  0.00000000000E+00 0. -1.
         -1   -1    0    0    0  501 -0.00000000000E+00 -0.00000000000E+00 -0.72970329807E+03  0.72970329807E+03  0.00000000000E+00 0.  1.
         23    2    1    2    0    0  0.55248796546E+03 -0.11128998520E+04 -0.42585711109E+02  0.12467876193E+04  0.94216729701E+02 0.  0.
         13    1    3    3    0    0  0.45092519804E+03 -0.92002898370E+03 -0.70583688665E+02  0.10270194361E+04  0.00000000000E+00 0.  1.
        -13    1    3    3    0    0  0.10156276742E+03 -0.19287086831E+03  0.27997977556E+02  0.21976818313E+03  0.00000000000E+00 0. -1.
         22    1    1    2    0    0 -0.55248796546E+03  0.11128998520E+04  0.44546510185E+04  0.46246842843E+04  0.00000000000E+00 0. -1.
<mgrwt>
<rscale>  0 0.38739982E+04</rscale>
<asrwt>0</asrwt>
<pdfrwt beam="1">  1        1 0.79104130E+00 0.38739982E+04</pdfrwt>
<pdfrwt beam="2">  1       -1 0.11226205E+00 0.38739982E+04</pdfrwt>
<totfact> 0.31825034E-03</totfact>
</mgrwt>
</event>
<event>
 6    1  0.1028026E-006  0.1628538E+04  0.7818608E-02  0.8803206E-01
          1   -1    0    0  501    0  0.00000000000E+00  0.00000000000E+00  0.15864371542E+04  0.15864371542E+04  0.00000000000E+00 0. -1.
         -1   -1    0    0    0  501 -0.00000000000E+00 -0.00000000000E+00 -0.41793879141E+03  0.41793879141E+03  0.00000000000E+00 0.  1.
         23    2    1    2    0    0  0.60935574996E+02 -0.76290263970E+03  0.25397361230E+03  0.81186217159E+03  0.94255015552E+02 0.  0.
         13    1    3    3    0    0 -0.22802378484E+02 -0.21273777181E+03  0.85635756273E+02  0.23045778523E+03  0.00000000000E+00 0. -1.
        -13    1    3    3    0    0  0.83737953480E+02 -0.55016486789E+03  0.16833785603E+03  0.58140438637E+03  0.00000000000E+00 0.  1.
         22    1    1    2    0    0 -0.60935574996E+02  0.76290263970E+03  0.91452475049E+03  0.11925137740E+04  0.00000000000E+00 0. -1.
<mgrwt>
<rscale>  0 0.16285375E+04</rscale>
<asrwt>0</asrwt>
<pdfrwt beam="1">  1        1 0.24406725E+00 0.16285375E+04</pdfrwt>
<pdfrwt beam="2">  1       -1 0.64298276E-01 0.16285375E+04</pdfrwt>
<totfact> 0.13386213E+01</totfact>
</mgrwt>
</event>
<event>
 6    1  0.1028026E-006  0.1520839E+04  0.7818608E-02  0.8870712E-01
          2   -1    0    0  501    0  0.00000000000E+00  0.00000000000E+00  0.16772530821E+04  0.16772530821E+04  0.00000000000E+00 0. -1.
         -2   -1    0    0    0  501 -0.00000000000E+00 -0.00000000000E+00 -0.34475305029E+03  0.34475305029E+03  0.00000000000E+00 0.  1.
         23    2    1    2    0    0  0.58841190789E+03  0.46780847543E+03  0.54228938103E+03  0.93136127010E+03  0.91009338173E+02 0.  0.
         13    1    3    3    0    0  0.31933501686E+03  0.23003493115E+03  0.23243701330E+03  0.45707536326E+03  0.00000000000E+00 0. -1.
        -13    1    3    3    0    0  0.26907689103E+03  0.23777354428E+03  0.30985236773E+03  0.47428590684E+03  0.00000000000E+00 0.  1.
         22    1    1    2    0    0 -0.58841190789E+03 -0.46780847543E+03  0.79021065079E+03  0.10906448623E+04  0.00000000000E+00 0. -1.
<mgrwt>
<rscale>  0 0.15208394E+04</rscale>
<asrwt>0</asrwt>
<pdfrwt beam="1">  1        2 0.25803893E+00 0.15208394E+04</pdfrwt>
<pdfrwt beam="2">  1       -2 0.53038932E-01 0.15208394E+04</pdfrwt>
<totfact> 0.32647481E+01</totfact>
</mgrwt>
</event>
<event>
 6    1  0.1028026E-006  0.8486699E+03  0.7818608E-02  0.9492124E-01
          2   -1    0    0  501    0  0.00000000000E+00  0.00000000000E+00  0.17770408744E+04  0.17770408744E+04  0.00000000000E+00 0. -1.
         -2   -1    0    0    0  501 -0.00000000000E+00 -0.00000000000E+00 -0.10132583878E+03  0.10132583878E+03  0.00000000000E+00 0.  1.
         23    2    1    2    0    0  0.31401817960E+03  0.98997025000E+02  0.14227941972E+04  0.14631838877E+04  0.90310207496E+02 0.  0.
         13    1    3    3    0    0  0.20219980250E+03  0.26408604628E+02  0.74499413504E+03  0.77239784812E+03  0.00000000000E+00 0.  1.
        -13    1    3    3    0    0  0.11181837710E+03  0.72588420372E+02  0.67780006213E+03  0.69078603956E+03  0.00000000000E+00 0. -1.
         22    1    1    2    0    0 -0.31401817960E+03 -0.98997025000E+02  0.25292083844E+03  0.41518282550E+03  0.00000000000E+00 0.  1.
<mgrwt>
<rscale>  0 0.84866992E+03</rscale>
<asrwt>0</asrwt>
<pdfrwt beam="1">  1        2 0.27339088E+00 0.84866992E+03</pdfrwt>
<pdfrwt beam="2">  1       -2 0.15588592E-01 0.84866992E+03</pdfrwt>
<totfact> 0.29496273E+02</totfact>
</mgrwt>
</event>
<event>
 6    1  0.1028026E-006  0.1263017E+04  0.7818608E-02  0.9059418E-01
         -2   -1    0    0    0  501 -0.00000000000E+00  0.00000000000E+00  0.98167549738E+03  0.98167549738E+03  0.00000000000E+00 0.  1.
          2   -1    0    0  501    0  0.00000000000E+00 -0.00000000000E+00 -0.40624752123E+03  0.40624752123E+03  0.00000000000E+00 0. -1.
         23    2    1    2    0    0  0.27719156206E+03 -0.50976296354E+03  0.55446141482E+03  0.80729143338E+03  0.87169701211E+02 0.  0.
         11    1    3    3    0    0  0.15765273987E+03 -0.22513216381E+03  0.30338809370E+03  0.40936928679E+03  0.00000000000E+00 0.  1.
        -11    1    3    3    0    0  0.11953882218E+03 -0.28463079973E+03  0.25107332112E+03  0.39792214659E+03  0.00000000000E+00 0. -1.
         22    1    1    2    0    0 -0.27719156206E+03  0.50976296354E+03  0.20966561333E+02  0.58063158523E+03  0.00000000000E+00 0. -1.
<mgrwt>
<rscale>  0 0.12630174E+04</rscale>
<asrwt>0</asrwt>
<pdfrwt beam="1">  1        2 0.62499619E-01 0.12630174E+04</pdfrwt>
<pdfrwt beam="2">  1       -2 0.15102700E+00 0.12630174E+04</pdfrwt>
<totfact> 0.22568077E+01</totfact>
</mgrwt>
</event>
<event>
 6    1  0.1028026E-006  0.1444068E+04  0.7818608E-02  0.8922523E-01
          1   -1    0    0  501    0  0.00000000000E+00  0.00000000000E+00  0.13089215034E+04  0.13089215034E+04  0.00000000000E+00 0. -1.
         -1   -1    0    0    0  501 -0.00000000000E+00 -0.00000000000E+00 -0.39829207527E+03  0.39829207527E+03  0.00000000000E+00 0.  1.
         23    2    1    2    0    0 -0.68089874102E+03 -0.21681587592E+03  0.36124226565E+03  0.80584879464E+03  0.90907017109E+02 0.  0.
         11    1    3    3    0    0 -0.14100156951E+03 -0.82460529897E+01  0.80478145651E+02  0.16256128666E+03  0.00000000000E+00 0.  1.
        -11    1    3    3    0    0 -0.53989717151E+03 -0.20856982293E+03  0.28076412000E+03  0.64328750798E+03  0.00000000000E+00 0. -1.
         22    1    1    2    0    0  0.68089874102E+03  0.21681587592E+03  0.54938716244E+03  0.90136478400E+03  0.00000000000E+00 0. -1.
<mgrwt>
<rscale>  0 0.14440680E+04</rscale>
<asrwt>0</asrwt>
<pdfrwt beam="1">  1        1 0.20137254E+00 0.14440680E+04</pdfrwt>
<pdfrwt beam="2">  1       -1 0.61275704E-01 0.14440680E+04</pdfrwt>
<totfact> 0.23394951E+01</totfact>
</mgrwt>
</event>
<event>
 6    1  0.1028026E-006  0.1308326E+04  0.7818608E-02  0.9022988E-01
          2   -1    0    0  501    0  0.00000000000E+00  0.00000000000E+00  0.80324679936E+03  0.80324679936E+03  0.00000000000E+00 0. -1.
         -2   -1    0    0    0  501 -0.00000000000E+00 -0.00000000000E+00 -0.53274956012E+03  0.53274956012E+03  0.00000000000E+00 0.  1.
         23    2    1    2    0    0 -0.53540234110E+03  0.20727649699E+03 -0.17730197160E+03  0.60788692657E+03  0.92039737614E+02 0.  0.
         11    1    3    3    0    0 -0.87144320108E+02  0.60565490297E+02 -0.67374228992E+01  0.10633768856E+03  0.00000000000E+00 0. -1.
        -11    1    3    3    0    0 -0.44825802099E+03  0.14671100670E+03 -0.17056454871E+03  0.50154923801E+03  0.00000000000E+00 0.  1.
         22    1    1    2    0    0  0.53540234110E+03 -0.20727649699E+03  0.44779921085E+03  0.72810943291E+03  0.00000000000E+00 0.  1.
<mgrwt>
<rscale>  0 0.13083262E+04</rscale>
<asrwt>0</asrwt>
<pdfrwt beam="1">  1        2 0.12357643E+00 0.13083262E+04</pdfrwt>
<pdfrwt beam="2">  1       -2 0.81961470E-01 0.13083262E+04</pdfrwt>
<totfact> 0.43942172E+01</totfact>
</mgrwt>
</event>
<event>
 6    1  0.1028026E-006  0.2563611E+04  0.7818608E-02  0.8380668E-01
          1   -1    0    0  501    0  0.00000000000E+00  0.00000000000E+00  0.22918754635E+04  0.22918754635E+04  0.00000000000E+00 0. -1.
         -1   -1    0    0    0  501 -0.00000000000E+00 -0.00000000000E+00 -0.71689097860E+03  0.71689097860E+03  0.00000000000E+00 0.  1.
         23    2    1    2    0    0  0.33546549141E+03  0.12238890292E+04  0.59088129574E+03  0.14028708855E+04  0.92003065967E+02 0.  0.
         13    1    3    3    0    0  0.21747728905E+03  0.85837301449E+03  0.45420768707E+03  0.99519105013E+03  0.00000000000E+00 0. -1.
        -13    1    3    3    0    0  0.11798820236E+03  0.36551601468E+03  0.13667360867E+03  0.40767983540E+03  0.00000000000E+00 0.  1.
         22    1    1    2    0    0 -0.33546549141E+03 -0.12238890292E+04  0.98410318914E+03  0.16058955565E+04  0.00000000000E+00 0. -1.
<mgrwt>
<rscale>  0 0.25636106E+04</rscale>
<asrwt>0</asrwt>
<pdfrwt beam="1">  1        1 0.35259622E+00 0.25636106E+04</pdfrwt>
<pdfrwt beam="2">  1       -1 0.11029092E+00 0.25636106E+04</pdfrwt>
<totfact> 0.12628173E+00</totfact>
</mgrwt>
</event>
<event>
 6    1  0.1028026E-006  0.1680118E+04  0.7818608E-02  0.8772786E-01
          1   -1    0    0  501    0  0.00000000000E+00  0.00000000000E+00  0.17078715320E+04  0.17078715320E+04  0.00000000000E+00 0. -1.
         -1   -1    0    0    0  501 -0.00000000000E+00 -0.00000000000E+00 -0.41320380994E+03  0.41320380994E+03  0.00000000000E+00 0.  1.
         23    2    1    2    0    0  0.72302630517E+03 -0.12404056659E+03  0.13863163806E+03  0.75192504791E+03  0.89551362253E+02 0.  0.
         11    1    3    3    0    0  0.35111624309E+03 -0.69635419957E+02  0.11220486925E+03  0.37512883195E+03  0.00000000000E+00 0. -1.
        -11    1    3    3    0    0  0.37191006208E+03 -0.54405146629E+02  0.26426768802E+02  0.37679621596E+03  0.00000000000E+00 0.  1.
         22    1    1    2    0    0 -0.72302630517E+03  0.12404056659E+03  0.11560360840E+04  0.13691502940E+04  0.00000000000E+00 0. -1.
<mgrwt>
<rscale>  0 0.16801179E+04</rscale>
<asrwt>0</asrwt>
<pdfrwt beam="1">  1        1 0.26274946E+00 0.16801179E+04</pdfrwt>
<pdfrwt beam="2">  1       -1 0.63569818E-01 0.16801179E+04</pdfrwt>
<totfact> 0.11260994E+01</totfact>
</mgrwt>
</event>
<event>
 6    1  0.1028026E-006  0.1753706E+04  0.7818608E-02  0.8731313E-01
          2   -1    0    0  501    0  0.00000000000E+00  0.00000000000E+00  0.74095032210E+03  0.74095032210E+03  0.00000000000E+00 0. -1.
         -2   -1    0    0    0  501 -0.00000000000E+00 -0.00000000000E+00 -0.10376820277E+04  0.10376820277E+04  0.00000000000E+00 0.  1.
         23    2    1    2    0    0  0.85682349132E+03  0.15251089057E+03 -0.61350006055E+02  0.87707225110E+03  0.89921317748E+02 0.  0.
         11    1    3    3    0    0  0.34480732371E+03  0.79238595069E+02 -0.65584877247E+02  0.35982248617E+03  0.00000000000E+00 0.  1.
        -11    1    3    3    0    0  0.51201616761E+03  0.73272295497E+02  0.42348711912E+01  0.51724976493E+03  0.00000000000E+00 0. -1.
         22    1    1    2    0    0 -0.85682349132E+03 -0.15251089057E+03 -0.23538169950E+03  0.90156009865E+03  0.00000000000E+00 0. -1.
<mgrwt>
<rscale>  0 0.17537056E+04</rscale>
<asrwt>0</asrwt>
<pdfrwt beam="1">  1        2 0.11399236E+00 0.17537056E+04</pdfrwt>
<pdfrwt beam="2">  1       -2 0.15964339E+00 0.17537056E+04</pdfrwt>
<totfact> 0.91427349E+00</totfact>
</mgrwt>
</event>
<event>
 6    1  0.1028026E-006  0.3731982E+04  0.7818608E-02  0.8060911E-01
         -2   -1    0    0    0  501 -0.00000000000E+00  0.00000000000E+00  0.16948895031E+04  0.16948895031E+04  0.00000000000E+00 0.  1.
          2   -1    0    0  501    0  0.00000000000E+00 -0.00000000000E+00 -0.20543653565E+04  0.20543653565E+04  0.00000000000E+00 0. -1.
         23    2    1    2    0    0 -0.18070248762E+04  0.22889110231E+03  0.22224745767E+03  0.18371533847E+04  0.89490708407E+02 0.  0.
         11    1    3    3    0    0 -0.14403644508E+04  0.18507645587E+03  0.14086007225E+03  0.14590217976E+04  0.00000000000E+00 0. -1.
        -11    1    3    3    0    0 -0.36666042531E+03  0.43814646440E+02  0.81387385412E+02  0.37813158719E+03  0.00000000000E+00 0.  1.
         22    1    1    2    0    0  0.18070248762E+04 -0.22889110231E+03 -0.58172331106E+03  0.19121014749E+04  0.00000000000E+00 0. -1.
<mgrwt>
<rscale>  0 0.37319819E+04</rscale>
<asrwt>0</asrwt>
<pdfrwt beam="1">  1        2 0.31605621E+00 0.37319819E+04</pdfrwt>
<pdfrwt beam="2">  1       -2 0.26075223E+00 0.37319819E+04</pdfrwt>
<totfact> 0.27736795E-01</totfact>
</mgrwt>
</event>
<event>
 6    1  0.1028026E-006  0.4247812E+03  0.7818608E-02  0.1035521E+00
          2   -1    0    0  501    0  0.00000000000E+00  0.00000000000E+00  0.34979761809E+03  0.34979761809E+03  0.00000000000E+00 0. -1.
         -2   -1    0    0    0  501 -0.00000000000E+00 -0.00000000000E+00 -0.12895962610E+03  0.12895962610E+03  0.00000000000E+00 0.  1.
         23    2    1    2    0    0  0.17514945000E+03  0.99060056987E+02  0.14025209628E+03  0.26199859658E+03  0.92099888000E+02 0.  0.
         13    1    3    3    0    0  0.22243330949E+02 -0.72118168068E+01 -0.72122375047E+01  0.24470235863E+02  0.00000000000E+00 0.  1.
        -13    1    3    3    0    0  0.15290611906E+03  0.10627187379E+03  0.14746433379E+03  0.23752836071E+03  0.00000000000E+00 0. -1.
         22    1    1    2    0    0 -0.17514945000E+03 -0.99060056987E+02  0.80585895713E+02  0.21675864761E+03  0.00000000000E+00 0. -1.
<mgrwt>
<rscale>  0 0.42478121E+03</rscale>
<asrwt>0</asrwt>
<pdfrwt beam="1">  1        2 0.53815018E-01 0.42478121E+03</pdfrwt>
<pdfrwt beam="2">  1       -2 0.19839943E-01 0.42478121E+03</pdfrwt>
<totfact> 0.19843140E+03</totfact>
</mgrwt>
</event>
<event>
 6    1  0.1028026E-006  0.1620705E+04  0.7818608E-02  0.8807928E-01
         -1   -1    0    0    0  501 -0.00000000000E+00  0.00000000000E+00  0.33618259278E+03  0.33618259278E+03  0.00000000000E+00 0.  1.
          1   -1    0    0  501    0  0.00000000000E+00 -0.00000000000E+00 -0.19533161029E+04  0.19533161029E+04  0.00000000000E+00 0. -1.
         23    2    1    2    0    0  0.26035587712E+03 -0.61641455479E+03 -0.17129502245E+03  0.69632544127E+03  0.88176240162E+02 0.  0.
         13    1    3    3    0    0  0.11016108480E+03 -0.16628120920E+03 -0.67530199302E+02  0.21058307851E+03  0.00000000000E+00 0. -1.
        -13    1    3    3    0    0  0.15019479233E+03 -0.45013334559E+03 -0.10376482314E+03  0.48574236276E+03  0.00000000000E+00 0.  1.
         22    1    1    2    0    0 -0.26035587712E+03  0.61641455479E+03 -0.14458384876E+04  0.15931732544E+04  0.00000000000E+00 0. -1.
<mgrwt>
<rscale>  0 0.16207046E+04</rscale>
<asrwt>0</asrwt>
<pdfrwt beam="1">  1        1 0.30051017E+00 0.16207046E+04</pdfrwt>
<pdfrwt beam="2">  1       -1 0.51720399E-01 0.16207046E+04</pdfrwt>
<totfact> 0.11556208E+01</totfact>
</mgrwt>
</event>
<event>
 6    1  0.1028026E-006  0.8058280E+03  0.7818608E-02  0.9551619E-01
         -2   -1    0    0    0  501 -0.00000000000E+00  0.00000000000E+00  0.62978613362E+03  0.62978613362E+03  0.00000000000E+00 0.  1.
          2   -1    0    0  501    0  0.00000000000E+00 -0.00000000000E+00 -0.25776958636E+03  0.25776958636E+03  0.00000000000E+00 0. -1.
         23    2    1    2    0    0  0.13377207947E+03  0.25821097044E+03  0.48706020419E+03  0.57482114002E+03  0.92864557354E+02 0.  0.
         11    1    3    3    0    0  0.19003768538E+02  0.78030098299E+02  0.71326479530E+02  0.10741185289E+03  0.00000000000E+00 0. -1.
        -11    1    3    3    0    0  0.11476831094E+03  0.18018087214E+03  0.41573372466E+03  0.46740928713E+03  0.00000000000E+00 0.  1.
         22    1    1    2    0    0 -0.13377207947E+03 -0.25821097044E+03 -0.11504365693E+03  0.31273457995E+03  0.00000000000E+00 0. -1.
<mgrwt>
<rscale>  0 0.80582805E+03</rscale>
<asrwt>0</asrwt>
<pdfrwt beam="1">  1        2 0.39656860E-01 0.80582805E+03</pdfrwt>
<pdfrwt beam="2">  1       -2 0.96890174E-01 0.80582805E+03</pdfrwt>
<totfact> 0.11655028E+02</totfact>
</mgrwt>
</event>
<event>
 6    1  0.1028026E-006  0.3834669E+04  0.7818608E-02  0.8038756E-01
         -2   -1    0    0    0  501 -0.00000000000E+00  0.00000000000E+00  0.19771512156E+04  0.19771512156E+04  0.00000000000E+00 0.  1.
          2   -1    0    0  501    0  0.00000000000E+00 -0.00000000000E+00 -0.18593274599E+04  0.18593274599E+04  0.00000000000E+00 0. -1.
         23    2    1    2    0    0 -0.15709493096E+04 -0.98854585601E+03  0.53548145715E+03  0.19339691227E+04  0.91605315551E+02 0.  0.
         13    1    3    3    0    0 -0.13157377196E+03 -0.54399013433E+02  0.37351785090E+02  0.14719397399E+03  0.00000000000E+00 0. -1.
        -13    1    3    3    0    0 -0.14393755377E+04 -0.93414684258E+03  0.49812967206E+03  0.17867751487E+04  0.00000000000E+00 0.  1.
         22    1    1    2    0    0  0.15709493096E+04  0.98854585601E+03 -0.41765770141E+03  0.19025095528E+04  0.00000000000E+00 0. -1.
<mgrwt>
<rscale>  0 0.38346690E+04</rscale>
<asrwt>0</asrwt>
<pdfrwt beam="1">  1        2 0.28605038E+00 0.38346690E+04</pdfrwt>
<pdfrwt beam="2">  1       -2 0.30417711E+00 0.38346690E+04</pdfrwt>
<totfact> 0.19162289E-01</totfact>
</mgrwt>
</event>
<event>
 6    1  0.1028026E-006  0.1458252E+04  0.7818608E-02  0.8912700E-01
         -2   -1    0    0    0  501 -0.00000000000E+00  0.00000000000E+00  0.34525944621E+03  0.34525944621E+03  0.00000000000E+00 0.  1.
          2   -1    0    0  501    0  0.00000000000E+00 -0.00000000000E+00 -0.15397831545E+04  0.15397831545E+04  0.00000000000E+00 0. -1.
         23    2    1    2    0    0  0.16844050494E+03 -0.27349001436E+03 -0.14416460567E+04  0.14797791718E+04  0.90741681389E+02 0.  0.
         11    1    3    3    0    0  0.12551289906E+03 -0.19611368280E+03 -0.84047761996E+03  0.87213341529E+03  0.00000000000E+00 0. -1.
        -11    1    3    3    0    0  0.42927605879E+02 -0.77376331558E+02 -0.60116843678E+03  0.60764575652E+03  0.00000000000E+00 0.  1.
         22    1    1    2    0    0 -0.16844050494E+03  0.27349001436E+03  0.24712234849E+03  0.40526342887E+03  0.00000000000E+00 0.  1.
<mgrwt>
<rscale>  0 0.14582519E+04</rscale>
<asrwt>0</asrwt>
<pdfrwt beam="1">  1        2 0.23688972E+00 0.14582519E+04</pdfrwt>
<pdfrwt beam="2">  1       -2 0.53116837E-01 0.14582519E+04</pdfrwt>
<totfact> 0.39038022E+01</totfact>
</mgrwt>
</event>
<event>
 6    1  0.1028026E-006  0.5155912E+04  0.7818608E-02  0.7804896E-01
         -2   -1    0    0    0  501 -0.00000000000E+00  0.00000000000E+00  0.19656855693E+04  0.19656855693E+04  0.00000000000E+00 0.  1.
          2   -1    0    0  501    0  0.00000000000E+00 -0.00000000000E+00 -0.33809359848E+04  0.33809359848E+04  0.00000000000E+00 0. -1.
         23    2    1    2    0    0  0.11581591384E+04 -0.21209607684E+04  0.22067051950E+03  0.24283952988E+04  0.92741997399E+02 0.  0.
         11    1    3    3    0    0  0.42703116599E+03 -0.77491303333E+03  0.36102342760E+02  0.88552199583E+03  0.00000000000E+00 0. -1.
        -11    1    3    3    0    0  0.73112797244E+03 -0.13460477351E+04  0.18456817674E+03  0.15428733030E+04  0.00000000000E+00 0.  1.
         22    1    1    2    0    0 -0.11581591384E+04  0.21209607684E+04 -0.16359209350E+04  0.29182262552E+04  0.00000000000E+00 0. -1.
<mgrwt>
<rscale>  0 0.51559120E+04</rscale>
<asrwt>0</asrwt>
<pdfrwt beam="1">  1        2 0.52014400E+00 0.51559120E+04</pdfrwt>
<pdfrwt beam="2">  1       -2 0.30241316E+00 0.51559120E+04</pdfrwt>
<totfact> 0.21667707E-02</totfact>
</mgrwt>
</event>
<event>
 6    1  0.1028026E-006  0.3682857E+04  0.7818608E-02  0.8071772E-01
         -2   -1    0    0    0  501 -0.00000000000E+00  0.00000000000E+00  0.91973872895E+03  0.91973872895E+03  0.00000000000E+00 0.  1.
          2   -1    0    0  501    0  0.00000000000E+00 -0.00000000000E+00 -0.36867636894E+04  0.36867636894E+04  0.00000000000E+00 0. -1.
         23    2    1    2    0    0  0.63862684960E+03 -0.86897275733E+03  0.48081452852E+03  0.11843073257E+04  0.91887566559E+02 0.  0.
         13    1    3    3    0    0  0.30230282882E+03 -0.40279380498E+03  0.17478636407E+03  0.53308547411E+03  0.00000000000E+00 0.  1.
        -13    1    3    3    0    0  0.33632402078E+03 -0.46617895235E+03  0.30602816444E+03  0.65122185160E+03  0.00000000000E+00 0. -1.
         22    1    1    2    0    0 -0.63862684960E+03  0.86897275733E+03 -0.32478394890E+04  0.34221950926E+04  0.00000000000E+00 0. -1.
<mgrwt>
<rscale>  0 0.36828572E+04</rscale>
<asrwt>0</asrwt>
<pdfrwt beam="1">  1        2 0.56719441E+00 0.36828572E+04</pdfrwt>
<pdfrwt beam="2">  1       -2 0.14149827E+00 0.36828572E+04</pdfrwt>
<totfact> 0.16845411E-01</totfact>
</mgrwt>
</event>
<event>
 6    1  0.1028026E-006  0.1460528E+04  0.7818608E-02  0.8911134E-01
         -2   -1    0    0    0  501 -0.00000000000E+00  0.00000000000E+00  0.33941022700E+03  0.33941022700E+03  0.00000000000E+00 0.  1.
          2   -1    0    0  501    0  0.00000000000E+00 -0.00000000000E+00 -0.15712113084E+04  0.15712113084E+04  0.00000000000E+00 0. -1.
         23    2    1    2    0    0 -0.62782197696E+03 -0.21536365165E+02 -0.13774201712E+03  0.64903939939E+03  0.87493022044E+02 0.  0.
         11    1    3    3    0    0 -0.26662260604E+02  0.17082770576E+02 -0.34460494534E+01  0.31852353883E+02  0.00000000000E+00 0.  1.
        -11    1    3    3    0    0 -0.60115971635E+03 -0.38619135741E+02 -0.13429596767E+03  0.61718704551E+03  0.00000000000E+00 0. -1.
         22    1    1    2    0    0  0.62782197696E+03  0.21536365165E+02 -0.10940590643E+04  0.12615821360E+04  0.00000000000E+00 0. -1.
<mgrwt>
<rscale>  0 0.14605276E+04</rscale>
<asrwt>0</asrwt>
<pdfrwt beam="1">  1        2 0.24172481E+00 0.14605276E+04</pdfrwt>
<pdfrwt beam="2">  1       -2 0.52216959E-01 0.14605276E+04</pdfrwt>
<totfact> 0.38820973E+01</totfact>
</mgrwt>
</event>
<event>
 6    1  0.1028026E-006  0.1139048E+04  0.7818608E-02  0.9167947E-01
         -2   -1    0    0    0  501 -0.00000000000E+00  0.00000000000E+00  0.32447562209E+03  0.32447562209E+03  0.00000000000E+00 0.  1.
          2   -1    0    0  501    0  0.00000000000E+00 -0.00000000000E+00 -0.99963638065E+03  0.99963638065E+03  0.00000000000E+00 0. -1.
         23    2    1    2    0    0  0.51499273590E+03 -0.10175855737E+03 -0.94343831096E+02  0.54121952913E+03  0.91899391815E+02 0.  0.
         13    1    3    3    0    0  0.19221064045E+03 -0.15849262795E+02 -0.74031059478E+02  0.20658346304E+03  0.00000000000E+00 0. -1.
        -13    1    3    3    0    0  0.32278209545E+03 -0.85909294572E+02 -0.20312771618E+02  0.33463606609E+03  0.00000000000E+00 0.  1.
         22    1    1    2    0    0 -0.51499273590E+03  0.10175855737E+03 -0.58081692746E+03  0.78289247362E+03  0.00000000000E+00 0. -1.
<mgrwt>
<rscale>  0 0.11390481E+04</rscale>
<asrwt>0</asrwt>
<pdfrwt beam="1">  1        2 0.15379021E+00 0.11390481E+04</pdfrwt>
<pdfrwt beam="2">  1       -2 0.49919327E-01 0.11390481E+04</pdfrwt>
<totfact> 0.94761894E+01</totfact>
</mgrwt>
</event>
<event>
 6    1  0.1028026E-006  0.4955193E+04  0.7818608E-02  0.7835457E-01
         -2   -1    0    0    0  501 -0.00000000000E+00  0.00000000000E+00  0.13070291770E+04  0.13070291770E+04  0.00000000000E+00 0.  1.
          2   -1    0    0  501    0  0.00000000000E+00 -0.00000000000E+00 -0.46965160627E+04  0.46965160627E+04  0.00000000000E+00 0. -1.
         23    2    1    2    0    0 -0.24659329331E+04  0.20996785886E+03 -0.15770202542E+04  0.29359815447E+04  0.89905597799E+02 0.  0.
         13    1    3    3    0    0 -0.90897144117E+03  0.84696693150E+02 -0.63267734198E+03  0.11107129376E+04  0.00000000000E+00 0.  1.
        -13    1    3    3    0    0 -0.15569614919E+04  0.12527116571E+03 -0.94434291227E+03  0.18252686071E+04  0.00000000000E+00 0. -1.
         22    1    1    2    0    0  0.24659329331E+04 -0.20996785886E+03 -0.18124666315E+04  0.30675636949E+04  0.00000000000E+00 0. -1.
<mgrwt>
<rscale>  0 0.49551926E+04</rscale>
<asrwt>0</asrwt>
<pdfrwt beam="1">  1        2 0.72254093E+00 0.49551926E+04</pdfrwt>
<pdfrwt beam="2">  1       -2 0.20108141E+00 0.49551926E+04</pdfrwt>
<totfact> 0.73091064E-03</totfact>
</mgrwt>
</event>
<event>
 6    1  0.1028026E-006  0.5039415E+04  0.7818608E-02  0.7822456E-01
         -1   -1    0    0    0  501 -0.00000000000E+00  0.00000000000E+00  0.23217211800E+04  0.23217211800E+04  0.00000000000E+00 0.  1.
          1   -1    0    0  501    0  0.00000000000E+00 -0.00000000000E+00 -0.27345775605E+04  0.27345775605E+04  0.00000000000E+00 0. -1.
         23    2    1    2    0    0 -0.24746324963E+04 -0.40731108344E+03  0.28895323215E+02  0.25097613113E+04  0.91425320363E+02 0.  0.
         13    1    3    3    0    0 -0.35886463402E+03 -0.27299928976E+02  0.10701712402E+02  0.36006060368E+03  0.00000000000E+00 0. -1.
        -13    1    3    3    0    0 -0.21157678623E+04 -0.38001115447E+03  0.18193610813E+02  0.21497007076E+04  0.00000000000E+00 0.  1.
         22    1    1    2    0    0  0.24746324963E+04  0.40731108344E+03 -0.44175170368E+03  0.25465374292E+04  0.00000000000E+00 0.  1.
<mgrwt>
<rscale>  0 0.50394153E+04</rscale>
<asrwt>0</asrwt>
<pdfrwt beam="1">  1        1 0.42070424E+00 0.50394153E+04</pdfrwt>
<pdfrwt beam="2">  1       -1 0.35718787E+00 0.50394153E+04</pdfrwt>
<totfact> 0.92942284E-03</totfact>
</mgrwt>
</event>
<event>
 6    1  0.1028026E-006  0.2749601E+04  0.7818608E-02  0.8319088E-01
          2   -1    0    0  501    0  0.00000000000E+00  0.00000000000E+00  0.15341713292E+04  0.15341713292E+04  0.00000000000E+00 0. -1.
         -2   -1    0    0    0  501 -0.00000000000E+00 -0.00000000000E+00 -0.12319850711E+04  0.12319850711E+04  0.00000000000E+00 0.  1.
         23    2    1    2    0    0 -0.10403478133E+04  0.89139674156E+03  0.80179023216E+02  0.13782807085E+04  0.12773923519E+03 0.  0.
         11    1    3    3    0    0 -0.50837947402E+03  0.35572660113E+03  0.55227894419E+02  0.62292955033E+03  0.00000000000E+00 0. -1.
        -11    1    3    3    0    0 -0.53196833930E+03  0.53567014043E+03  0.24951128796E+02  0.75535115820E+03  0.00000000000E+00 0.  1.
         22    1    1    2    0    0  0.10403478133E+04 -0.89139674156E+03  0.22200723486E+03  0.13878756918E+04  0.00000000000E+00 0. -1.
<mgrwt>
<rscale>  0 0.27496008E+04</rscale>
<asrwt>0</asrwt>
<pdfrwt beam="1">  1        2 0.23602636E+00 0.27496008E+04</pdfrwt>
<pdfrwt beam="2">  1       -2 0.18953617E+00 0.27496008E+04</pdfrwt>
<totfact> 0.16565609E+00</totfact>
</mgrwt>
</event>
<event>
 6    1  0.1028026E-006  0.1751213E+04  0.7818608E-02  0.8732683E-01
         -2   -1    0    0    0  501 -0.00000000000E+00  0.00000000000E+00  0.63875484988E+03  0.63875484988E+03  0.00000000000E+00 0.  1.
          2   -1    0    0  501    0  0.00000000000E+00 -0.00000000000E+00 -0.12002834567E+04  0.12002834567E+04  0.00000000000E+00 0. -1.
         23    2    1    2    0    0  0.72721097337E+03  0.39125034568E+03  0.16920251027E+02  0.83081426701E+03  0.89740841231E+02 0.  0.
         13    1    3    3    0    0  0.19469795993E+03  0.15115381618E+03  0.24031135523E+01  0.24649654501E+03  0.00000000000E+00 0.  1.
        -13    1    3    3    0    0  0.53251301344E+03  0.24009652950E+03  0.14517137475E+02  0.58431772200E+03  0.00000000000E+00 0. -1.
         22    1    1    2    0    0 -0.72721097337E+03 -0.39125034568E+03 -0.57844885780E+03  0.10082240395E+04  0.00000000000E+00 0. -1.
<mgrwt>
<rscale>  0 0.17512132E+04</rscale>
<asrwt>0</asrwt>
<pdfrwt beam="1">  1        2 0.18465899E+00 0.17512132E+04</pdfrwt>
<pdfrwt beam="2">  1       -2 0.98269978E-01 0.17512132E+04</pdfrwt>
<totfact> 0.15448604E+01</totfact>
</mgrwt>
</event>
<event>
 6    1  0.1028026E-006  0.2987167E+04  0.7818608E-02  0.8247405E-01
         -2   -1    0    0    0  501 -0.00000000000E+00  0.00000000000E+00  0.21052520024E+04  0.21052520024E+04  0.00000000000E+00 0.  1.
          2   -1    0    0  501    0  0.00000000000E+00 -0.00000000000E+00 -0.10596316989E+04  0.10596316989E+04  0.00000000000E+00 0. -1.
         23    2    1    2    0    0 -0.88244794972E+03  0.54200165025E+03 -0.61491032313E+03  0.12078854554E+04  0.91610015920E+02 0.  0.
         11    1    3    3    0    0 -0.12567444316E+03  0.10762456579E+03 -0.12332113827E+03  0.20636185686E+03  0.00000000000E+00 0. -1.
        -11    1    3    3    0    0 -0.75677350655E+03  0.43437708446E+03 -0.49158918486E+03  0.10015235985E+04  0.00000000000E+00 0.  1.
         22    1    1    2    0    0  0.88244794972E+03 -0.54200165025E+03  0.16605306265E+04  0.19569982459E+04  0.00000000000E+00 0.  1.
<mgrwt>
<rscale>  0 0.29871671E+04</rscale>
<asrwt>0</asrwt>
<pdfrwt beam="1">  1        2 0.16302026E+00 0.29871671E+04</pdfrwt>
<pdfrwt beam="2">  1       -2 0.32388492E+00 0.29871671E+04</pdfrwt>
<totfact> 0.44807927E-01</totfact>
</mgrwt>
</event>
<event>
 6    1  0.1028026E-006  0.3940460E+04  0.7818608E-02  0.8016666E-01
          2   -1    0    0  501    0  0.00000000000E+00  0.00000000000E+00  0.37191534728E+04  0.37191534728E+04  0.00000000000E+00 0. -1.
         -2   -1    0    0    0  501 -0.00000000000E+00 -0.00000000000E+00 -0.10437340712E+04  0.10437340712E+04  0.00000000000E+00 0.  1.
         23    2    1    2    0    0 -0.12546526777E+04 -0.74538452892E+03  0.29364407784E+04  0.32803614577E+04  0.91298468469E+02 0.  0.
         11    1    3    3    0    0 -0.58505936060E+02 -0.29077388738E+02  0.17757279392E+03  0.18921029631E+03  0.00000000000E+00 0.  1.
        -11    1    3    3    0    0 -0.11961467416E+04 -0.71630714019E+03  0.27588679845E+04  0.30911511613E+04  0.00000000000E+00 0. -1.
         22    1    1    2    0    0  0.12546526777E+04  0.74538452892E+03 -0.26102137675E+03  0.14825260864E+04  0.00000000000E+00 0.  1.
<mgrwt>
<rscale>  0 0.39404605E+04</rscale>
<asrwt>0</asrwt>
<pdfrwt beam="1">  1        2 0.57217745E+00 0.39404605E+04</pdfrwt>
<pdfrwt beam="2">  1       -2 0.16057447E+00 0.39404605E+04</pdfrwt>
<totfact> 0.11141995E-01</totfact>
</mgrwt>
</event>
<event>
 6    1  0.1028026E-006  0.1333445E+04  0.7818608E-02  0.9003456E-01
         -2   -1    0    0    0  501 -0.00000000000E+00  0.00000000000E+00  0.12537261324E+03  0.12537261324E+03  0.00000000000E+00 0.  1.
          2   -1    0    0  501    0  0.00000000000E+00 -0.00000000000E+00 -0.35455814190E+04  0.35455814190E+04  0.00000000000E+00 0. -1.
         23    2    1    2    0    0 -0.34628351604E+03 -0.37699493329E+03 -0.28806463869E+04  0.29272033636E+04  0.91424682154E+02 0.  0.
         11    1    3    3    0    0 -0.73421897887E+02 -0.37324136202E+02 -0.37268170948E+03  0.38167462952E+03  0.00000000000E+00 0. -1.
        -11    1    3    3    0    0 -0.27286161815E+03 -0.33967079709E+03 -0.25079646774E+04  0.25455287341E+04  0.00000000000E+00 0.  1.
         22    1    1    2    0    0  0.34628351604E+03  0.37699493329E+03 -0.53956241888E+03  0.74375066863E+03  0.00000000000E+00 0.  1.
<mgrwt>
<rscale>  0 0.13334449E+04</rscale>
<asrwt>0</asrwt>
<pdfrwt beam="1">  1        2 0.54547414E+00 0.13334449E+04</pdfrwt>
<pdfrwt beam="2">  1       -2 0.19288092E-01 0.13334449E+04</pdfrwt>
<totfact> 0.17167586E+01</totfact>
</mgrwt>
</event>
<event>
 6    1  0.1028026E-006  0.1864088E+04  0.7818608E-02  0.8672941E-01
          1   -1    0    0  501    0  0.00000000000E+00  0.00000000000E+00  0.17645298640E+04  0.17645298640E+04  0.00000000000E+00 0. -1.
         -1   -1    0    0    0  501 -0.00000000000E+00 -0.00000000000E+00 -0.49231591833E+03  0.49231591833E+03  0.00000000000E+00 0.  1.
         23    2    1    2    0    0  0.85530474973E+03 -0.17037863483E+03  0.10277215409E+04  0.13511131341E+04  0.93381161177E+02 0.  0.
         13    1    3    3    0    0  0.15550837499E+03 -0.12413678956E+02  0.13878922133E+03  0.20880469840E+03  0.00000000000E+00 0.  1.
        -13    1    3    3    0    0  0.69979637474E+03 -0.15796495587E+03  0.88893231958E+03  0.11423084357E+04  0.00000000000E+00 0. -1.
         22    1    1    2    0    0 -0.85530474973E+03  0.17037863483E+03  0.24449240472E+03  0.90573264824E+03  0.00000000000E+00 0.  1.
<mgrwt>
<rscale>  0 0.18640881E+04</rscale>
<asrwt>0</asrwt>
<pdfrwt beam="1">  1        1 0.27146613E+00 0.18640881E+04</pdfrwt>
<pdfrwt beam="2">  1       -1 0.75740911E-01 0.18640881E+04</pdfrwt>
<totfact> 0.70783745E+00</totfact>
</mgrwt>
</event>
<event>
 6    1  0.1028026E-006  0.4080444E+04  0.7818608E-02  0.7988512E-01
         -1   -1    0    0    0  501 -0.00000000000E+00  0.00000000000E+00  0.16428012918E+04  0.16428012918E+04  0.00000000000E+00 0.  1.
          1   -1    0    0  501    0  0.00000000000E+00 -0.00000000000E+00 -0.25337858053E+04  0.25337858053E+04  0.00000000000E+00 0. -1.
         23    2    1    2    0    0  0.13361057409E+04 -0.13362883852E+04  0.33846177909E+03  0.19221728970E+04  0.96680250459E+02 0.  0.
         11    1    3    3    0    0  0.37775879649E+03 -0.39800135261E+03  0.56269083412E+02  0.55160945855E+03  0.00000000000E+00 0.  1.
        -11    1    3    3    0    0  0.95834694438E+03 -0.93828703261E+03  0.28219269568E+03  0.13705634385E+04  0.00000000000E+00 0. -1.
         22    1    1    2    0    0 -0.13361057409E+04  0.13362883852E+04 -0.12294462925E+04  0.22544142001E+04  0.00000000000E+00 0. -1.
<mgrwt>
<rscale>  0 0.40804444E+04</rscale>
<asrwt>0</asrwt>
<pdfrwt beam="1">  1        1 0.38981320E+00 0.40804444E+04</pdfrwt>
<pdfrwt beam="2">  1       -1 0.25273866E+00 0.40804444E+04</pdfrwt>
<totfact> 0.66764938E-02</totfact>
</mgrwt>
</event>
<event>
 6    1  0.1028026E-006  0.4909077E+04  0.7818608E-02  0.7842688E-01
          2   -1    0    0  501    0  0.00000000000E+00  0.00000000000E+00  0.31179626285E+04  0.31179626285E+04  0.00000000000E+00 0. -1.
         -2   -1    0    0    0  501 -0.00000000000E+00 -0.00000000000E+00 -0.19322742593E+04  0.19322742593E+04  0.00000000000E+00 0.  1.
         23    2    1    2    0    0  0.32411561985E+02  0.13031077156E+04  0.27316038377E+04  0.30281105655E+04  0.93026031486E+02 0.  0.
         11    1    3    3    0    0  0.48429195417E+02  0.37147697995E+03  0.74828929337E+03  0.83682578843E+03  0.00000000000E+00 0.  1.
        -11    1    3    3    0    0 -0.16017633432E+02  0.93163073569E+03  0.19833145444E+04  0.21912847771E+04  0.00000000000E+00 0. -1.
         22    1    1    2    0    0 -0.32411561985E+02 -0.13031077156E+04 -0.15459154685E+04  0.20221263224E+04  0.00000000000E+00 0.  1.
<mgrwt>
<rscale>  0 0.49090769E+04</rscale>
<asrwt>0</asrwt>
<pdfrwt beam="1">  1        2 0.47968656E+00 0.49090769E+04</pdfrwt>
<pdfrwt beam="2">  1       -2 0.29727296E+00 0.49090769E+04</pdfrwt>
<totfact> 0.35467059E-02</totfact>
</mgrwt>
</event>
<event>
 6    1  0.1028026E-006  0.3376255E+04  0.7818608E-02  0.8143759E-01
          2   -1    0    0  501    0  0.00000000000E+00  0.00000000000E+00  0.28479921652E+04  0.28479921652E+04  0.00000000000E+00 0. -1.
         -2   -1    0    0    0  501 -0.00000000000E+00 -0.00000000000E+00 -0.10006256956E+04  0.10006256956E+04  0.00000000000E+00 0.  1.
         23    2    1    2    0    0  0.16567680469E+04 -0.26372298675E+03  0.72330887885E+03  0.18292279425E+04  0.92026932199E+02 0.  0.
         13    1    3    3    0    0  0.11836329093E+04 -0.18685793362E+03  0.47093095678E+03  0.12875087252E+04  0.00000000000E+00 0.  1.
        -13    1    3    3    0    0  0.47313513764E+03 -0.76865053132E+02  0.25237792207E+03  0.54171921731E+03  0.00000000000E+00 0. -1.
         22    1    1    2    0    0 -0.16567680469E+04  0.26372298675E+03  0.11240575907E+04  0.20193899184E+04  0.00000000000E+00 0. -1.
<mgrwt>
<rscale>  0 0.33762548E+04</rscale>
<asrwt>0</asrwt>
<pdfrwt beam="1">  1        2 0.43815264E+00 0.33762548E+04</pdfrwt>
<pdfrwt beam="2">  1       -2 0.15394242E+00 0.33762548E+04</pdfrwt>
<totfact> 0.50154026E-01</totfact>
</mgrwt>
</event>
<event>
 6    1  0.1028026E-006  0.1633354E+04  0.7818608E-02  0.8800315E-01
         -1   -1    0    0    0  501 -0.00000000000E+00  0.00000000000E+00  0.85762781881E+03  0.85762781881E+03  0.00000000000E+00 0.  1.
          1   -1    0    0  501    0  0.00000000000E+00 -0.00000000000E+00 -0.77768176685E+03  0.77768176685E+03  0.00000000000E+00 0. -1.
         23    2    1    2    0    0 -0.15127050472E+03  0.36996170845E+03  0.75027787872E+03  0.85486151609E+03  0.90093757086E+02 0.  0.
         11    1    3    3    0    0 -0.14341958287E+02  0.41113354941E+02  0.15635221526E+03  0.16230223331E+03  0.00000000000E+00 0.  1.
        -11    1    3    3    0    0 -0.13692854643E+03  0.32884835351E+03  0.59392566347E+03  0.69255928278E+03  0.00000000000E+00 0. -1.
         22    1    1    2    0    0  0.15127050472E+03 -0.36996170845E+03 -0.67033182677E+03  0.78044806957E+03  0.00000000000E+00 0. -1.
<mgrwt>
<rscale>  0 0.16333542E+04</rscale>
<asrwt>0</asrwt>
<pdfrwt beam="1">  1        1 0.11964335E+00 0.16333542E+04</pdfrwt>
<pdfrwt beam="2">  1       -1 0.13194274E+00 0.16333542E+04</pdfrwt>
<totfact> 0.10813567E+01</totfact>
</mgrwt>
</event>
<event>
 6    1  0.1028026E-006  0.1065048E+04  0.7818608E-02  0.9239945E-01
         -1   -1    0    0    0  501 -0.00000000000E+00  0.00000000000E+00  0.10439318806E+04  0.10439318806E+04  0.00000000000E+00 0.  1.
          1   -1    0    0  501    0  0.00000000000E+00 -0.00000000000E+00 -0.27164761837E+03  0.27164761837E+03  0.00000000000E+00 0. -1.
         23    2    1    2    0    0 -0.46436428932E+03  0.22555896043E+03  0.24828809723E+03  0.57999604431E+03  0.90760092384E+02 0.  0.
         13    1    3    3    0    0 -0.36914348573E+03  0.20289987304E+03  0.16836924444E+03  0.45363363412E+03  0.00000000000E+00 0.  1.
        -13    1    3    3    0    0 -0.95220803595E+02  0.22659087386E+02  0.79918852789E+02  0.12636241019E+03  0.00000000000E+00 0. -1.
         22    1    1    2    0    0  0.46436428932E+03 -0.22555896043E+03  0.52399616503E+03  0.73558345468E+03  0.00000000000E+00 0. -1.
<mgrwt>
<rscale>  0 0.10650476E+04</rscale>
<asrwt>0</asrwt>
<pdfrwt beam="1">  1        1 0.41791942E-01 0.10650476E+04</pdfrwt>
<pdfrwt beam="2">  1       -1 0.16060490E+00 0.10650476E+04</pdfrwt>
<totfact> 0.28828386E+01</totfact>
</mgrwt>
</event>
<event>
 6    1  0.1028026E-006  0.1709534E+04  0.7818608E-02  0.8755945E-01
         -2   -1    0    0    0  501 -0.00000000000E+00  0.00000000000E+00  0.41042191439E+03  0.41042191439E+03  0.00000000000E+00 0.  1.
          2   -1    0    0  501    0  0.00000000000E+00 -0.00000000000E+00 -0.17801847314E+04  0.17801847314E+04  0.00000000000E+00 0. -1.
         23    2    1    2    0    0  0.63295119377E+03 -0.11014463583E+03 -0.14044882388E+04  0.15472055971E+04  0.92189437400E+02 0.  0.
         11    1    3    3    0    0  0.15115286519E+03 -0.46913028763E+02 -0.26890075961E+03  0.31201865239E+03  0.00000000000E+00 0. -1.
        -11    1    3    3    0    0  0.48179832858E+03 -0.63231607072E+02 -0.11355874792E+04  0.12351869448E+04  0.00000000000E+00 0.  1.
         22    1    1    2    0    0 -0.63295119377E+03  0.11014463583E+03  0.34725421783E+02  0.64340104866E+03  0.00000000000E+00 0.  1.
<mgrwt>
<rscale>  0 0.17095342E+04</rscale>
<asrwt>0</asrwt>
<pdfrwt beam="1">  1        2 0.27387458E+00 0.17095342E+04</pdfrwt>
<pdfrwt beam="2">  1       -2 0.63141832E-01 0.17095342E+04</pdfrwt>
<totfact> 0.19549421E+01</totfact>
</mgrwt>
</event>
<event>
 6    1  0.1028026E-006  0.2296423E+04  0.7818608E-02  0.8479333E-01
          2   -1    0    0  501    0  0.00000000000E+00  0.00000000000E+00  0.92050933836E+03  0.92050933836E+03  0.00000000000E+00 0. -1.
         -2   -1    0    0    0  501 -0.00000000000E+00 -0.00000000000E+00 -0.14322397429E+04  0.14322397429E+04  0.00000000000E+00 0.  1.
         23    2    1    2    0    0 -0.10518178996E+04 -0.45579037286E+03 -0.26794918623E+03  0.11807870340E+04  0.91626935647E+02 0.  0.
         11    1    3    3    0    0 -0.37299429241E+03 -0.17248148245E+03 -0.52315165617E+02  0.41426016042E+03  0.00000000000E+00 0. -1.
        -11    1    3    3    0    0 -0.67882360716E+03 -0.28330889041E+03 -0.21563402061E+03  0.76652687354E+03  0.00000000000E+00 0.  1.
         22    1    1    2    0    0  0.10518178996E+04  0.45579037286E+03 -0.24378121827E+03  0.11719620473E+04  0.00000000000E+00 0. -1.
<mgrwt>
<rscale>  0 0.22964234E+04</rscale>
<asrwt>0</asrwt>
<pdfrwt beam="1">  1        2 0.14161682E+00 0.22964234E+04</pdfrwt>
<pdfrwt beam="2">  1       -2 0.22034458E+00 0.22964234E+04</pdfrwt>
<totfact> 0.25323500E+00</totfact>
</mgrwt>
</event>
<event>
 6    1  0.1028026E-006  0.2761371E+04  0.7818608E-02  0.8315363E-01
         -1   -1    0    0    0  501 -0.00000000000E+00  0.00000000000E+00  0.15624852196E+04  0.15624852196E+04  0.00000000000E+00 0.  1.
          1   -1    0    0  501    0  0.00000000000E+00 -0.00000000000E+00 -0.12200384918E+04  0.12200384918E+04  0.00000000000E+00 0. -1.
         23    2    1    2    0    0 -0.10066980121E+04 -0.87483237507E+03  0.52501669871E+03  0.14363794523E+04  0.93652682864E+02 0.  0.
         13    1    3    3    0    0 -0.24841318772E+03 -0.24043036579E+03  0.17586516990E+03  0.38787166771E+03  0.00000000000E+00 0.  1.
        -13    1    3    3    0    0 -0.75828482439E+03 -0.63440200927E+03  0.34915152882E+03  0.10485077846E+04  0.00000000000E+00 0. -1.
         22    1    1    2    0    0  0.10066980121E+04  0.87483237507E+03 -0.18256997092E+03  0.13461442591E+04  0.00000000000E+00 0. -1.
<mgrwt>
<rscale>  0 0.27613708E+04</rscale>
<asrwt>0</asrwt>
<pdfrwt beam="1">  1        1 0.18769823E+00 0.27613708E+04</pdfrwt>
<pdfrwt beam="2">  1       -1 0.24038234E+00 0.27613708E+04</pdfrwt>
<totfact> 0.72332995E-01</totfact>
</mgrwt>
</event>
<event>
 6    1  0.1028026E-006  0.2126251E+04  0.7818608E-02  0.8549767E-01
         -2   -1    0    0    0  501 -0.00000000000E+00  0.00000000000E+00  0.52049150367E+03  0.52049150367E+03  0.00000000000E+00 0.  1.
          2   -1    0    0  501    0  0.00000000000E+00 -0.00000000000E+00 -0.21714784397E+04  0.21714784397E+04  0.00000000000E+00 0. -1.
         23    2    1    2    0    0  0.40825709338E+02  0.96093882170E+03 -0.25967713773E+03  0.10005761062E+04  0.93006294495E+02 0.  0.
         13    1    3    3    0    0  0.19061012131E+02  0.44490569149E+03 -0.16834090867E+03  0.47607043390E+03  0.00000000000E+00 0. -1.
        -13    1    3    3    0    0  0.21764697207E+02  0.51603313021E+03 -0.91336229064E+02  0.52450567229E+03  0.00000000000E+00 0.  1.
         22    1    1    2    0    0 -0.40825709338E+02 -0.96093882170E+03 -0.13913097983E+04  0.16913938371E+04  0.00000000000E+00 0. -1.
<mgrwt>
<rscale>  0 0.21262512E+04</rscale>
<asrwt>0</asrwt>
<pdfrwt beam="1">  1        2 0.33407360E+00 0.21262512E+04</pdfrwt>
<pdfrwt beam="2">  1       -2 0.80075617E-01 0.21262512E+04</pdfrwt>
<totfact> 0.67957920E+00</totfact>
</mgrwt>
</event>
<event>
 6    1  0.1028026E-006  0.1838245E+04  0.7818608E-02  0.8686222E-01
          1   -1    0    0  501    0  0.00000000000E+00  0.00000000000E+00  0.20874815081E+04  0.20874815081E+04  0.00000000000E+00 0. -1.
         -1   -1    0    0    0  501 -0.00000000000E+00 -0.00000000000E+00 -0.40469138953E+03  0.40469138953E+03  0.00000000000E+00 0.  1.
         23    2    1    2    0    0 -0.64332058732E+03  0.61443538086E+03  0.54244959829E+03  0.10458780738E+04  0.90648569615E+02 0.  0.
         13    1    3    3    0    0 -0.38087309614E+03  0.30728254065E+03  0.27469807039E+03  0.56120041432E+03  0.00000000000E+00 0.  1.
        -13    1    3    3    0    0 -0.26244749117E+03  0.30715284021E+03  0.26775152790E+03  0.48467765945E+03  0.00000000000E+00 0. -1.
         22    1    1    2    0    0  0.64332058732E+03 -0.61443538086E+03  0.11403405202E+04  0.14462948238E+04  0.00000000000E+00 0. -1.
<mgrwt>
<rscale>  0 0.18382446E+04</rscale>
<asrwt>0</asrwt>
<pdfrwt beam="1">  1        1 0.32115099E+00 0.18382446E+04</pdfrwt>
<pdfrwt beam="2">  1       -1 0.62260215E-01 0.18382446E+04</pdfrwt>
<totfact> 0.63968891E+00</totfact>
</mgrwt>
</event>
<event>
 6    1  0.1028026E-006  0.2658615E+04  0.7818608E-02  0.8348559E-01
          2   -1    0    0  501    0  0.00000000000E+00  0.00000000000E+00  0.15924737478E+04  0.15924737478E+04  0.00000000000E+00 0. -1.
         -2   -1    0    0    0  501 -0.00000000000E+00 -0.00000000000E+00 -0.11096308727E+04  0.11096308727E+04  0.00000000000E+00 0.  1.
         23    2    1    2    0    0  0.21250546016E+03 -0.51919276988E+03 -0.98136601433E+03  0.11341035444E+04  0.91607273140E+02 0.  0.
         11    1    3    3    0    0  0.17854892762E+03 -0.36074921975E+03 -0.75671547403E+03  0.85711027747E+03  0.00000000000E+00 0. -1.
        -11    1    3    3    0    0  0.33956532531E+02 -0.15844355013E+03 -0.22465054030E+03  0.27699326695E+03  0.00000000000E+00 0.  1.
         22    1    1    2    0    0 -0.21250546016E+03  0.51919276988E+03  0.14642088894E+04  0.15680010761E+04  0.00000000000E+00 0. -1.
<mgrwt>
<rscale>  0 0.26586147E+04</rscale>
<asrwt>0</asrwt>
<pdfrwt beam="1">  1        2 0.24499596E+00 0.26586147E+04</pdfrwt>
<pdfrwt beam="2">  1       -2 0.17071244E+00 0.26586147E+04</pdfrwt>
<totfact> 0.20885542E+00</totfact>
</mgrwt>
</event>
<event>
 6    1  0.1028026E-006  0.4196140E+03  0.7818608E-02  0.1037192E+00
         -1   -1    0    0    0  501 -0.00000000000E+00  0.00000000000E+00  0.13128074439E+03  0.13128074439E+03  0.00000000000E+00 0.  1.
          1   -1    0    0  501    0  0.00000000000E+00 -0.00000000000E+00 -0.33530419649E+03  0.33530419649E+03  0.00000000000E+00 0. -1.
         23    2    1    2    0    0 -0.13427546776E+03  0.64086646124E+01 -0.27168716791E+03  0.31608792874E+03  0.89591792364E+02 0.  0.
         11    1    3    3    0    0 -0.76041987377E+02 -0.34670737777E+02 -0.19070881607E+03  0.20821694559E+03  0.00000000000E+00 0.  1.
        -11    1    3    3    0    0 -0.58233480385E+02  0.41079402389E+02 -0.80978351839E+02  0.10787098315E+03  0.00000000000E+00 0. -1.
         22    1    1    2    0    0  0.13427546776E+03 -0.64086646124E+01  0.67663715816E+02  0.15049701214E+03  0.00000000000E+00 0.  1.
<mgrwt>
<rscale>  0 0.41961403E+03</rscale>
<asrwt>0</asrwt>
<pdfrwt beam="1">  1        1 0.51585260E-01 0.41961403E+03</pdfrwt>
<pdfrwt beam="2">  1       -1 0.20197038E-01 0.41961403E+03</pdfrwt>
<totfact> 0.15159396E+03</totfact>
</mgrwt>
</event>
<event>
 6    1  0.1028026E-006  0.2654945E+04  0.7818608E-02  0.8349774E-01
          1   -1    0    0  501    0  0.00000000000E+00  0.00000000000E+00  0.36294796167E+03  0.36294796167E+03  0.00000000000E+00 0. -1.
         -1   -1    0    0    0  501 -0.00000000000E+00 -0.00000000000E+00 -0.48551934964E+04  0.48551934964E+04  0.00000000000E+00 0.  1.
         23    2    1    2    0    0  0.64355114090E+03  0.24999277329E+03 -0.44737006021E+04  0.45274907705E+04  0.86724518657E+02 0.  0.
         11    1    3    3    0    0  0.44028594483E+03  0.12995028320E+03 -0.28569140501E+04  0.28935612451E+04  0.00000000000E+00 0. -1.
        -11    1    3    3    0    0  0.20326519608E+03  0.12004249009E+03 -0.16167865520E+04  0.16339295255E+04  0.00000000000E+00 0.  1.
         22    1    1    2    0    0 -0.64355114090E+03 -0.24999277329E+03 -0.18544932598E+02  0.69065068753E+03  0.00000000000E+00 0. -1.
<mgrwt>
<rscale>  0 0.26549445E+04</rscale>
<asrwt>0</asrwt>
<pdfrwt beam="1">  1        1 0.55838147E-01 0.26549445E+04</pdfrwt>
<pdfrwt beam="2">  1       -1 0.74695285E+00 0.26549445E+04</pdfrwt>
<totfact> 0.78377096E-03</totfact>
</mgrwt>
</event>
<event>
 6    1  0.1028026E-006  0.4389220E+04  0.7818608E-02  0.7930323E-01
         -2   -1    0    0    0  501 -0.00000000000E+00  0.00000000000E+00  0.16793943010E+04  0.16793943010E+04  0.00000000000E+00 0.  1.
          2   -1    0    0  501    0  0.00000000000E+00 -0.00000000000E+00 -0.28678872433E+04  0.28678872433E+04  0.00000000000E+00 0. -1.
         23    2    1    2    0    0 -0.18163511013E+04 -0.11656798461E+04 -0.18761485786E+03  0.21682696136E+04  0.90845778406E+02 0.  0.
         13    1    3    3    0    0 -0.98000685383E+03 -0.58538812077E+03 -0.12597699349E+03  0.11484610957E+04  0.00000000000E+00 0. -1.
        -13    1    3    3    0    0 -0.83634424747E+03 -0.58029172531E+03 -0.61637864372E+02  0.10198085178E+04  0.00000000000E+00 0.  1.
         22    1    1    2    0    0  0.18163511013E+04  0.11656798461E+04 -0.10008780844E+04  0.23790119307E+04  0.00000000000E+00 0. -1.
<mgrwt>
<rscale>  0 0.43892202E+04</rscale>
<asrwt>0</asrwt>
<pdfrwt beam="1">  1        2 0.44121342E+00 0.43892202E+04</pdfrwt>
<pdfrwt beam="2">  1       -2 0.25836835E+00 0.43892202E+04</pdfrwt>
<totfact> 0.91734405E-02</totfact>
</mgrwt>
</event>
<event>
 6    1  0.1028026E-006  0.7895612E+03  0.7818608E-02  0.9575251E-01
          1   -1    0    0  501    0  0.00000000000E+00  0.00000000000E+00  0.89559416708E+03  0.89559416708E+03  0.00000000000E+00 0. -1.
         -1   -1    0    0    0  501 -0.00000000000E+00 -0.00000000000E+00 -0.17402049347E+03  0.17402049347E+03  0.00000000000E+00 0.  1.
         23    2    1    2    0    0 -0.38502475923E+03  0.56747697794E+02  0.35170307296E+03  0.53270812525E+03  0.92836031553E+02 0.  0.
         11    1    3    3    0    0 -0.71344413808E+02 -0.25543479619E+02  0.64101285781E+02  0.99254569524E+02  0.00000000000E+00 0. -1.
        -11    1    3    3    0    0 -0.31368034542E+03  0.82291177413E+02  0.28760178718E+03  0.43345355573E+03  0.00000000000E+00 0.  1.
         22    1    1    2    0    0  0.38502475923E+03 -0.56747697794E+02  0.36987060064E+03  0.53690653530E+03  0.00000000000E+00 0.  1.
<mgrwt>
<rscale>  0 0.78956124E+03</rscale>
<asrwt>0</asrwt>
<pdfrwt beam="1">  1        1 0.13778372E+00 0.78956124E+03</pdfrwt>
<pdfrwt beam="2">  1       -1 0.26772384E-01 0.78956124E+03</pdfrwt>
<totfact> 0.23062785E+02</totfact>
</mgrwt>
</event>
<event>
 6    1  0.1139362E-006  0.4330631E+04  0.7818608E-02  0.7940978E-01
         -2   -1    0    0    0  501 -0.00000000000E+00  0.00000000000E+00  0.15680023116E+04  0.15680023116E+04  0.00000000000E+00 0.  1.
          2   -1    0    0  501    0  0.00000000000E+00 -0.00000000000E+00 -0.29901690921E+04  0.29901690921E+04  0.00000000000E+00 0. -1.
         23    2    1    2    0    0  0.17216525837E+04  0.10846132701E+04 -0.14877223100E+04  0.25223003145E+04  0.90596028579E+02 0.  0.
         13    1    3    3    0    0  0.81447541262E+03  0.52518481551E+03 -0.65400185610E+03  0.11691482866E+04  0.00000000000E+00 0. -1.
        -13    1    3    3    0    0  0.90717717105E+03  0.55942845455E+03 -0.83372045392E+03  0.13531520279E+04  0.00000000000E+00 0.  1.
         22    1    1    2    0    0 -0.17216525837E+04 -0.10846132701E+04  0.65555529580E+02  0.20358710892E+04  0.00000000000E+00 0. -1.
<mgrwt>
<rscale>  0 0.43306314E+04</rscale>
<asrwt>0</asrwt>
<pdfrwt beam="1">  1        2 0.46002601E+00 0.43306314E+04</pdfrwt>
<pdfrwt beam="2">  1       -2 0.24123113E+00 0.43306314E+04</pdfrwt>
<totfact> 0.98685395E-02</totfact>
</mgrwt>
</event>
<event>
 6    1  0.1028026E-006  0.5547737E+04  0.7818608E-02  0.7749154E-01
         -2   -1    0    0    0  501 -0.00000000000E+00  0.00000000000E+00  0.22279470058E+04  0.22279470058E+04  0.00000000000E+00 0.  1.
          2   -1    0    0  501    0  0.00000000000E+00 -0.00000000000E+00 -0.34535595958E+04  0.34535595958E+04  0.00000000000E+00 0. -1.
         23    2    1    2    0    0 -0.11538448353E+04 -0.77381566233E+03 -0.30707241468E+04  0.33718344949E+04  0.98855913589E+02 0.  0.
         13    1    3    3    0    0 -0.82068677916E+03 -0.57275465811E+03 -0.21105909803E+04  0.23358443814E+04  0.00000000000E+00 0.  1.
        -13    1    3    3    0    0 -0.33315805613E+03 -0.20106100422E+03 -0.96013316651E+03  0.10359901135E+04  0.00000000000E+00 0. -1.
         22    1    1    2    0    0  0.11538448353E+04  0.77381566233E+03  0.18451115569E+04  0.23096721067E+04  0.00000000000E+00 0.  1.
<mgrwt>
<rscale>  0 0.55477375E+04</rscale>
<asrwt>0</asrwt>
<pdfrwt beam="1">  1        2 0.53131686E+00 0.55477375E+04</pdfrwt>
<pdfrwt beam="2">  1       -2 0.34276108E+00 0.55477375E+04</pdfrwt>
<totfact> 0.10531583E-02</totfact>
</mgrwt>
</event>
<event>
 6    1  0.1028026E-006  0.1957021E+04  0.7818608E-02  0.8626983E-01
         -2   -1    0    0    0  501 -0.00000000000E+00  0.00000000000E+00  0.13737013900E+04  0.13737013900E+04  0.00000000000E+00 0.  1.
          2   -1    0    0  501    0  0.00000000000E+00 -0.00000000000E+00 -0.69700944612E+03  0.69700944612E+03  0.00000000000E+00 0. -1.
         23    2    1    2    0    0  0.70154602045E+02  0.14885849237E+03  0.13573443946E+04  0.13704478301E+04  0.93074865305E+02 0.  0.
         11    1    3    3    0    0  0.90112634173E+02  0.10124117448E+03  0.89019123656E+03  0.90045016514E+03  0.00000000000E+00 0.  1.
        -11    1    3    3    0    0 -0.19958032127E+02  0.47617317889E+02  0.46715315800E+03  0.46999766493E+03  0.00000000000E+00 0. -1.
         22    1    1    2    0    0 -0.70154602045E+02 -0.14885849237E+03 -0.68065245072E+03  0.70026300603E+03  0.00000000000E+00 0. -1.
<mgrwt>
<rscale>  0 0.19570210E+04</rscale>
<asrwt>0</asrwt>
<pdfrwt beam="1">  1        2 0.10723222E+00 0.19570210E+04</pdfrwt>
<pdfrwt beam="2">  1       -2 0.21133868E+00 0.19570210E+04</pdfrwt>
<totfact> 0.43088314E+00</totfact>
</mgrwt>
</event>
<event>
 6    1  0.1028026E-006  0.1322420E+04  0.7818608E-02  0.9011973E-01
         -2   -1    0    0    0  501 -0.00000000000E+00  0.00000000000E+00  0.70773756441E+03  0.70773756441E+03  0.00000000000E+00 0.  1.
          2   -1    0    0  501    0  0.00000000000E+00 -0.00000000000E+00 -0.61774082657E+03  0.61774082657E+03  0.00000000000E+00 0. -1.
         23    2    1    2    0    0  0.45133937564E+03 -0.33148468419E+03 -0.30090734916E+03  0.64254696464E+03  0.93445391138E+02 0.  0.
         13    1    3    3    0    0  0.24203344546E+03 -0.15962400476E+03 -0.20564857556E+03  0.35545934824E+03  0.00000000000E+00 0. -1.
        -13    1    3    3    0    0  0.20930593018E+03 -0.17186067943E+03 -0.95258773602E+02  0.28708761640E+03  0.00000000000E+00 0.  1.
         22    1    1    2    0    0 -0.45133937564E+03  0.33148468419E+03  0.39090408700E+03  0.68293142635E+03  0.00000000000E+00 0.  1.
<mgrwt>
<rscale>  0 0.13224196E+04</rscale>
<asrwt>0</asrwt>
<pdfrwt beam="1">  1        2 0.95037050E-01 0.13224196E+04</pdfrwt>
<pdfrwt beam="2">  1       -2 0.10888270E+00 0.13224196E+04</pdfrwt>
<totfact> 0.31551698E+01</totfact>
</mgrwt>
</event>
<event>
 6    1  0.1028026E-006  0.1645000E+04  0.7818608E-02  0.8793370E-01
          1   -1    0    0  501    0  0.00000000000E+00  0.00000000000E+00  0.71457071278E+03  0.71457071278E+03  0.00000000000E+00 0. -1.
         -1   -1    0    0    0  501 -0.00000000000E+00 -0.00000000000E+00 -0.94673147054E+03  0.94673147054E+03  0.00000000000E+00 0.  1.
         23    2    1    2    0    0 -0.26798680942E+03 -0.19561768602E+03 -0.87379957078E+03  0.93895629977E+03  0.89610456196E+02 0.  0.
         13    1    3    3    0    0 -0.66270674817E+02 -0.53381340327E+02 -0.13090775631E+03  0.15613523144E+03  0.00000000000E+00 0. -1.
        -13    1    3    3    0    0 -0.20171613460E+03 -0.14223634570E+03 -0.74289181448E+03  0.78282106833E+03  0.00000000000E+00 0.  1.
         22    1    1    2    0    0  0.26798680942E+03  0.19561768602E+03  0.64163881302E+03  0.72234588355E+03  0.00000000000E+00 0. -1.
<mgrwt>
<rscale>  0 0.16450004E+04</rscale>
<asrwt>0</asrwt>
<pdfrwt beam="1">  1        1 0.10993396E+00 0.16450004E+04</pdfrwt>
<pdfrwt beam="2">  1       -1 0.14565100E+00 0.16450004E+04</pdfrwt>
<totfact> 0.95293317E+00</totfact>
</mgrwt>
</event>
<event>
 6    1  0.1028026E-006  0.3116931E+04  0.7818608E-02  0.8211107E-01
          2   -1    0    0  501    0  0.00000000000E+00  0.00000000000E+00  0.11493519755E+04  0.11493519755E+04  0.00000000000E+00 0. -1.
         -2   -1    0    0    0  501 -0.00000000000E+00 -0.00000000000E+00 -0.21132036873E+04  0.21132036873E+04  0.00000000000E+00 0.  1.
         23    2    1    2    0    0 -0.10294826325E+04  0.51031969521E+03 -0.15823472541E+04  0.19576428620E+04  0.91005828084E+02 0.  0.
         13    1    3    3    0    0 -0.18780687519E+03  0.10613047602E+03 -0.35681855922E+03  0.41695873238E+03  0.00000000000E+00 0. -1.
        -13    1    3    3    0    0 -0.84167575728E+03  0.40418921919E+03 -0.12255286949E+04  0.15406841296E+04  0.00000000000E+00 0.  1.
         22    1    1    2    0    0  0.10294826325E+04 -0.51031969521E+03  0.61849554223E+03  0.13049128008E+04  0.00000000000E+00 0. -1.
<mgrwt>
<rscale>  0 0.31169311E+04</rscale>
<asrwt>0</asrwt>
<pdfrwt beam="1">  1        2 0.17682338E+00 0.31169311E+04</pdfrwt>
<pdfrwt beam="2">  1       -2 0.32510826E+00 0.31169311E+04</pdfrwt>
<totfact> 0.38347804E-01</totfact>
</mgrwt>
</event>
<event>
 6    1  0.1028026E-006  0.3955438E+04  0.7818608E-02  0.8013597E-01
         -1   -1    0    0    0  501 -0.00000000000E+00  0.00000000000E+00  0.21481973262E+04  0.21481973262E+04  0.00000000000E+00 0.  1.
          1   -1    0    0  501    0  0.00000000000E+00 -0.00000000000E+00 -0.18207693445E+04  0.18207693445E+04  0.00000000000E+00 0. -1.
         23    2    1    2    0    0 -0.17621154862E+04 -0.16869231528E+03 -0.71876317116E+03  0.19127507258E+04  0.92123605988E+02 0.  0.
         13    1    3    3    0    0 -0.10514105639E+04 -0.83564581585E+02 -0.47322251594E+03  0.11560219560E+04  0.00000000000E+00 0.  1.
        -13    1    3    3    0    0 -0.71070492227E+03 -0.85127733699E+02 -0.24554065522E+03  0.75672876974E+03  0.00000000000E+00 0. -1.
         22    1    1    2    0    0  0.17621154862E+04  0.16869231528E+03  0.10461911529E+04  0.20562159450E+04  0.00000000000E+00 0.  1.
<mgrwt>
<rscale>  0 0.39554377E+04</rscale>
<asrwt>0</asrwt>
<pdfrwt beam="1">  1        1 0.28011836E+00 0.39554377E+04</pdfrwt>
<pdfrwt beam="2">  1       -1 0.33049189E+00 0.39554377E+04</pdfrwt>
<totfact> 0.64715208E-02</totfact>
</mgrwt>
</event>
<event>
 6    1  0.1028026E-006  0.1663413E+04  0.7818608E-02  0.8782511E-01
         -1   -1    0    0    0  501 -0.00000000000E+00  0.00000000000E+00  0.40974996764E+03  0.40974996764E+03  0.00000000000E+00 0.  1.
          1   -1    0    0  501    0  0.00000000000E+00 -0.00000000000E+00 -0.16881901414E+04  0.16881901414E+04  0.00000000000E+00 0. -1.
         23    2    1    2    0    0  0.51856738221E+03  0.46592375918E+03 -0.74594237060E+02  0.70681030971E+03  0.89551295103E+02 0.  0.
         11    1    3    3    0    0  0.32082460069E+03  0.23733311223E+03 -0.19238289973E+02  0.39953165378E+03  0.00000000000E+00 0.  1.
        -11    1    3    3    0    0  0.19774278152E+03  0.22859064695E+03 -0.55355947087E+02  0.30727865593E+03  0.00000000000E+00 0. -1.
         22    1    1    2    0    0 -0.51856738221E+03 -0.46592375918E+03 -0.12038459367E+04  0.13911297993E+04  0.00000000000E+00 0. -1.
<mgrwt>
<rscale>  0 0.16634132E+04</rscale>
<asrwt>0</asrwt>
<pdfrwt beam="1">  1        1 0.25972156E+00 0.16634132E+04</pdfrwt>
<pdfrwt beam="2">  1       -1 0.63038458E-01 0.16634132E+04</pdfrwt>
<totfact> 0.11828705E+01</totfact>
</mgrwt>
</event>
<event>
 6    1  0.1028026E-006  0.1502595E+04  0.7818608E-02  0.8882729E-01
         -1   -1    0    0    0  501 -0.00000000000E+00  0.00000000000E+00  0.10164210843E+04  0.10164210843E+04  0.00000000000E+00 0.  1.
          1   -1    0    0  501    0  0.00000000000E+00 -0.00000000000E+00 -0.55532856263E+03  0.55532856263E+03  0.00000000000E+00 0. -1.
         23    2    1    2    0    0  0.60797329720E+03  0.27740812249E+03 -0.12237546258E+03  0.68460722029E+03  0.84406727817E+02 0.  0.
         11    1    3    3    0    0  0.76678756500E+02  0.22662930736E+02  0.10373013451E+02  0.80627783896E+02  0.00000000000E+00 0. -1.
        -11    1    3    3    0    0  0.53129454070E+03  0.25474519175E+03 -0.13274847603E+03  0.60397943639E+03  0.00000000000E+00 0.  1.
         22    1    1    2    0    0 -0.60797329720E+03 -0.27740812249E+03  0.58346798429E+03  0.88714242668E+03  0.00000000000E+00 0.  1.
<mgrwt>
<rscale>  0 0.15025946E+04</rscale>
<asrwt>0</asrwt>
<pdfrwt beam="1">  1        1 0.85435164E-01 0.15025946E+04</pdfrwt>
<pdfrwt beam="2">  1       -1 0.15637247E+00 0.15025946E+04</pdfrwt>
<totfact> 0.11526742E+01</totfact>
</mgrwt>
</event>
<event>
 6    1  0.1028026E-006  0.1966368E+04  0.7818608E-02  0.8622508E-01
          2   -1    0    0  501    0  0.00000000000E+00  0.00000000000E+00  0.20655223906E+04  0.20655223906E+04  0.00000000000E+00 0. -1.
         -2   -1    0    0    0  501 -0.00000000000E+00 -0.00000000000E+00 -0.46799321313E+03  0.46799321313E+03  0.00000000000E+00 0.  1.
         23    2    1    2    0    0  0.50691039132E+03  0.63159623657E+03  0.15139912778E+04  0.17193592725E+04  0.90303754151E+02 0.  0.
         11    1    3    3    0    0  0.28474448220E+03  0.29827880693E+03  0.82713610636E+03  0.92423146736E+03  0.00000000000E+00 0. -1.
        -11    1    3    3    0    0  0.22216590912E+03  0.33331742964E+03  0.68685517141E+03  0.79512780518E+03  0.00000000000E+00 0.  1.
         22    1    1    2    0    0 -0.50691039132E+03 -0.63159623657E+03  0.83537899649E+02  0.81415633115E+03  0.00000000000E+00 0.  1.
<mgrwt>
<rscale>  0 0.19663677E+04</rscale>
<asrwt>0</asrwt>
<pdfrwt beam="1">  1        2 0.31777267E+00 0.19663677E+04</pdfrwt>
<pdfrwt beam="2">  1       -2 0.71998957E-01 0.19663677E+04</pdfrwt>
<totfact> 0.99994689E+00</totfact>
</mgrwt>
</event>
<event>
 6    1  0.1028026E-006  0.2994972E+04  0.7818608E-02  0.8245168E-01
         -2   -1    0    0    0  501 -0.00000000000E+00  0.00000000000E+00  0.18071871037E+04  0.18071871037E+04  0.00000000000E+00 0.  1.
          2   -1    0    0  501    0  0.00000000000E+00 -0.00000000000E+00 -0.12408586878E+04  0.12408586878E+04  0.00000000000E+00 0. -1.
         23    2    1    2    0    0  0.62865067691E+03 -0.13360177355E+04  0.37758387717E+02  0.14797564885E+04  0.90047244514E+02 0.  0.
         11    1    3    3    0    0  0.26236185494E+03 -0.66275733751E+03  0.13836618469E+02  0.71293231331E+03  0.00000000000E+00 0. -1.
        -11    1    3    3    0    0  0.36628882197E+03 -0.67326039800E+03  0.23921769248E+02  0.76682417519E+03  0.00000000000E+00 0.  1.
         22    1    1    2    0    0 -0.62865067691E+03  0.13360177355E+04  0.52857002823E+03  0.15682893030E+04  0.00000000000E+00 0.  1.
<mgrwt>
<rscale>  0 0.29949717E+04</rscale>
<asrwt>0</asrwt>
<pdfrwt beam="1">  1        2 0.19090134E+00 0.29949717E+04</pdfrwt>
<pdfrwt beam="2">  1       -2 0.27802879E+00 0.29949717E+04</pdfrwt>
<totfact> 0.66398888E-01</totfact>
</mgrwt>
</event>
<event>
 6    1  0.1028026E-006  0.3794834E+04  0.7818608E-02  0.8047264E-01
         -2   -1    0    0    0  501 -0.00000000000E+00  0.00000000000E+00  0.88167314554E+03  0.88167314554E+03  0.00000000000E+00 0.  1.
          2   -1    0    0  501    0  0.00000000000E+00 -0.00000000000E+00 -0.40833617921E+04  0.40833617921E+04  0.00000000000E+00 0. -1.
         23    2    1    2    0    0 -0.63725117905E+03  0.27229997941E+03  0.70770461184E+03  0.99469591020E+03  0.91311511743E+02 0.  0.
         11    1    3    3    0    0 -0.39739321346E+03  0.19107683860E+03  0.39217901115E+03  0.59011532868E+03  0.00000000000E+00 0. -1.
        -11    1    3    3    0    0 -0.23985796558E+03  0.81223140810E+02  0.31552560069E+03  0.40458058153E+03  0.00000000000E+00 0.  1.
         22    1    1    2    0    0  0.63725117905E+03 -0.27229997941E+03 -0.39093932584E+04  0.39703390274E+04  0.00000000000E+00 0. -1.
<mgrwt>
<rscale>  0 0.37948336E+04</rscale>
<asrwt>0</asrwt>
<pdfrwt beam="1">  1        2 0.62820949E+00 0.37948336E+04</pdfrwt>
<pdfrwt beam="2">  1       -2 0.13564203E+00 0.37948336E+04</pdfrwt>
<totfact> 0.91015884E-02</totfact>
</mgrwt>
</event>
<event>
 6    1  0.1028026E-006  0.3801896E+04  0.7818608E-02  0.8045748E-01
         -3   -1    0    0    0  501 -0.00000000000E+00  0.00000000000E+00  0.30701100166E+04  0.30701100166E+04  0.00000000000E+00 0.  1.
          3   -1    0    0  501    0  0.00000000000E+00 -0.00000000000E+00 -0.11770270570E+04  0.11770270570E+04  0.00000000000E+00 0. -1.
         23    2    1    2    0    0  0.82744011031E+03 -0.11091181294E+04  0.24013356108E+04  0.27729861592E+04  0.90770930303E+02 0.  0.
         11    1    3    3    0    0  0.91539250134E+02 -0.17569003113E+03  0.34174990280E+03  0.39501824947E+03  0.00000000000E+00 0. -1.
        -11    1    3    3    0    0  0.73590086018E+03 -0.93342809829E+03  0.20595857080E+04  0.23779679097E+04  0.00000000000E+00 0.  1.
         22    1    1    2    0    0 -0.82744011031E+03  0.11091181294E+04 -0.50825265118E+03  0.14741509145E+04  0.00000000000E+00 0. -1.
<mgrwt>
<rscale>  0 0.38018956E+04</rscale>
<asrwt>0</asrwt>
<pdfrwt beam="1">  1        3 0.18108109E+00 0.38018956E+04</pdfrwt>
<pdfrwt beam="2">  1       -3 0.47232462E+00 0.38018956E+04</pdfrwt>
<totfact> 0.17229249E-03</totfact>
</mgrwt>
</event>
<event>
 6    1  0.1028026E-006  0.1459993E+04  0.7818608E-02  0.8911501E-01
         -2   -1    0    0    0  501 -0.00000000000E+00  0.00000000000E+00  0.91953318839E+03  0.91953318839E+03  0.00000000000E+00 0.  1.
          2   -1    0    0  501    0  0.00000000000E+00 -0.00000000000E+00 -0.57952798210E+03  0.57952798210E+03  0.00000000000E+00 0. -1.
         23    2    1    2    0    0  0.25377185193E+03  0.12926519568E+03 -0.51620746004E+03  0.59672543827E+03  0.92203379714E+02 0.  0.
         13    1    3    3    0    0  0.16972823496E+03  0.62904305665E+02 -0.39798558017E+03  0.43721521867E+03  0.00000000000E+00 0. -1.
        -13    1    3    3    0    0  0.84043616969E+02  0.66360890012E+02 -0.11822187988E+03  0.15951021960E+03  0.00000000000E+00 0.  1.
         22    1    1    2    0    0 -0.25377185193E+03 -0.12926519568E+03  0.85621266634E+03  0.90233573222E+03  0.00000000000E+00 0.  1.
<mgrwt>
<rscale>  0 0.14599934E+04</rscale>
<asrwt>0</asrwt>
<pdfrwt beam="1">  1        2 0.89158151E-01 0.14599934E+04</pdfrwt>
<pdfrwt beam="2">  1       -2 0.14146664E+00 0.14599934E+04</pdfrwt>
<totfact> 0.17507241E+01</totfact>
</mgrwt>
</event>
<event>
 6    1  0.1028026E-006  0.4815181E+04  0.7818608E-02  0.7857667E-01
          2   -1    0    0  501    0  0.00000000000E+00  0.00000000000E+00  0.48780844413E+04  0.48780844413E+04  0.00000000000E+00 0. -1.
         -2   -1    0    0    0  501 -0.00000000000E+00 -0.00000000000E+00 -0.11882722777E+04  0.11882722777E+04  0.00000000000E+00 0.  1.
         23    2    1    2    0    0  0.19144774770E+04 -0.62294326646E+03  0.35069840780E+04  0.40447958289E+04  0.90297570656E+02 0.  0.
         11    1    3    3    0    0  0.12010877424E+04 -0.38496444680E+03  0.21091751109E+04  0.24575249823E+04  0.00000000000E+00 0. -1.
        -11    1    3    3    0    0  0.71338973460E+03 -0.23797881966E+03  0.13978089671E+04  0.15872708466E+04  0.00000000000E+00 0.  1.
         22    1    1    2    0    0 -0.19144774770E+04  0.62294326646E+03  0.18282808559E+03  0.20215608900E+04  0.00000000000E+00 0. -1.
<mgrwt>
<rscale>  0 0.48151812E+04</rscale>
<asrwt>0</asrwt>
<pdfrwt beam="1">  1        2 0.75047452E+00 0.48151812E+04</pdfrwt>
<pdfrwt beam="2">  1       -2 0.18281112E+00 0.48151812E+04</pdfrwt>
<totfact> 0.61068260E-03</totfact>
</mgrwt>
</event>
<event>
 6    1  0.1028026E-006  0.6171170E+04  0.7818608E-02  0.7669534E-01
         -2   -1    0    0    0  501 -0.00000000000E+00  0.00000000000E+00  0.24642990048E+04  0.24642990048E+04  0.00000000000E+00 0.  1.
          2   -1    0    0  501    0  0.00000000000E+00 -0.00000000000E+00 -0.38635062838E+04  0.38635062838E+04  0.00000000000E+00 0. -1.
         23    2    1    2    0    0  0.34578473300E+03  0.20348315040E+04  0.16511930094E+04  0.26447293661E+04  0.89714739837E+02 0.  0.
         13    1    3    3    0    0  0.20198798449E+03  0.98326815316E+03  0.83941954097E+03  0.13085261070E+04  0.00000000000E+00 0. -1.
        -13    1    3    3    0    0  0.14379674851E+03  0.10515633508E+04  0.81177346841E+03  0.13362032591E+04  0.00000000000E+00 0.  1.
         22    1    1    2    0    0 -0.34578473300E+03 -0.20348315040E+04 -0.30504002884E+04  0.36830759224E+04  0.00000000000E+00 0. -1.
<mgrwt>
<rscale>  0 0.61711700E+04</rscale>
<asrwt>0</asrwt>
<pdfrwt beam="1">  1        2 0.59438558E+00 0.61711700E+04</pdfrwt>
<pdfrwt beam="2">  1       -2 0.37912292E+00 0.61711700E+04</pdfrwt>
<totfact> 0.29465722E-03</totfact>
</mgrwt>
</event>
<event>
 6    1  0.1028026E-006  0.2496136E+04  0.7818608E-02  0.8404363E-01
          1   -1    0    0  501    0  0.00000000000E+00  0.00000000000E+00  0.17967315035E+04  0.17967315035E+04  0.00000000000E+00 0. -1.
         -1   -1    0    0    0  501 -0.00000000000E+00 -0.00000000000E+00 -0.86694859705E+03  0.86694859705E+03  0.00000000000E+00 0.  1.
         23    2    1    2    0    0 -0.54302249915E+03  0.31596983452E+03  0.16142345296E+04  0.17346029264E+04  0.91563228123E+02 0.  0.
         13    1    3    3    0    0 -0.25678743029E+03  0.19818285314E+03  0.77722474330E+03  0.84219625340E+03  0.00000000000E+00 0. -1.
        -13    1    3    3    0    0 -0.28623506885E+03  0.11778698138E+03  0.83700978634E+03  0.89240667302E+03  0.00000000000E+00 0.  1.
         22    1    1    2    0    0  0.54302249915E+03 -0.31596983452E+03 -0.68445162323E+03  0.92907717410E+03  0.00000000000E+00 0.  1.
<mgrwt>
<rscale>  0 0.24961361E+04</rscale>
<asrwt>0</asrwt>
<pdfrwt beam="1">  1        1 0.27642023E+00 0.24961361E+04</pdfrwt>
<pdfrwt beam="2">  1       -1 0.13337671E+00 0.24961361E+04</pdfrwt>
<totfact> 0.17289825E+00</totfact>
</mgrwt>
</event>
<event>
 6    1  0.1028026E-006  0.1630820E+04  0.7818608E-02  0.8801835E-01
         -1   -1    0    0    0  501 -0.00000000000E+00  0.00000000000E+00  0.11373148899E+04  0.11373148899E+04  0.00000000000E+00 0.  1.
          1   -1    0    0  501    0  0.00000000000E+00 -0.00000000000E+00 -0.58461704056E+03  0.58461704056E+03  0.00000000000E+00 0. -1.
         23    2    1    2    0    0 -0.78147525304E+03 -0.22172643632E+03  0.30348478308E+03  0.87224178922E+03  0.94002880986E+02 0.  0.
         11    1    3    3    0    0 -0.52183587139E+03 -0.10410659201E+03  0.21327556780E+03  0.57326898310E+03  0.00000000000E+00 0. -1.
        -11    1    3    3    0    0 -0.25963938165E+03 -0.11761984431E+03  0.90209215282E+02  0.29897280612E+03  0.00000000000E+00 0.  1.
         22    1    1    2    0    0  0.78147525304E+03  0.22172643632E+03  0.24921306623E+03  0.84969014120E+03  0.00000000000E+00 0.  1.
<mgrwt>
<rscale>  0 0.16308202E+04</rscale>
<asrwt>0</asrwt>
<pdfrwt beam="1">  1        1 0.89941083E-01 0.16308202E+04</pdfrwt>
<pdfrwt beam="2">  1       -1 0.17497152E+00 0.16308202E+04</pdfrwt>
<totfact> 0.77002794E+00</totfact>
</mgrwt>
</event>
<event>
 6    1  0.1028026E-006  0.1213436E+04  0.7818608E-02  0.9101176E-01
          2   -1    0    0  501    0  0.00000000000E+00  0.00000000000E+00  0.95184989358E+03  0.95184989358E+03  0.00000000000E+00 0. -1.
         -2   -1    0    0    0  501 -0.00000000000E+00 -0.00000000000E+00 -0.38672787673E+03  0.38672787673E+03  0.00000000000E+00 0.  1.
         23    2    1    2    0    0 -0.30763900615E+03 -0.24034896077E+03  0.79057901321E+03  0.88775603364E+03  0.10337416541E+03 0.  0.
         11    1    3    3    0    0 -0.13185924776E+03 -0.15605075590E+03  0.33753481906E+03  0.39454841745E+03  0.00000000000E+00 0. -1.
        -11    1    3    3    0    0 -0.17577975839E+03 -0.84298204866E+02  0.45304419415E+03  0.49320761618E+03  0.00000000000E+00 0.  1.
         22    1    1    2    0    0  0.30763900615E+03  0.24034896077E+03 -0.22545699637E+03  0.45082173667E+03  0.00000000000E+00 0.  1.
<mgrwt>
<rscale>  0 0.12134363E+04</rscale>
<asrwt>0</asrwt>
<pdfrwt beam="1">  1        2 0.14643844E+00 0.12134363E+04</pdfrwt>
<pdfrwt beam="2">  1       -2 0.59496597E-01 0.12134363E+04</pdfrwt>
<totfact> 0.70383541E+01</totfact>
</mgrwt>
</event>
<event>
 6    1  0.1028026E-006  0.9750578E+03  0.7818608E-02  0.9336332E-01
         -2   -1    0    0    0  501 -0.00000000000E+00  0.00000000000E+00  0.13114598781E+03  0.13114598781E+03  0.00000000000E+00 0.  1.
          2   -1    0    0  501    0  0.00000000000E+00 -0.00000000000E+00 -0.18123651423E+04  0.18123651423E+04  0.00000000000E+00 0. -1.
         23    2    1    2    0    0 -0.15344999062E+03  0.45358231627E+03 -0.97669215737E+03  0.10916648371E+04  0.92307795104E+02 0.  0.
         11    1    3    3    0    0 -0.93669848459E+02  0.37437135923E+03 -0.81863494206E+03  0.90503653157E+03  0.00000000000E+00 0. -1.
        -11    1    3    3    0    0 -0.59780142158E+02  0.79210957041E+02 -0.15805721532E+03  0.18662830553E+03  0.00000000000E+00 0.  1.
         22    1    1    2    0    0  0.15344999062E+03 -0.45358231627E+03 -0.70452699707E+03  0.85184629297E+03  0.00000000000E+00 0.  1.
<mgrwt>
<rscale>  0 0.97505778E+03</rscale>
<asrwt>0</asrwt>
<pdfrwt beam="1">  1        2 0.27882538E+00 0.97505778E+03</pdfrwt>
<pdfrwt beam="2">  1       -2 0.20176307E-01 0.97505778E+03</pdfrwt>
<totfact> 0.17902652E+02</totfact>
</mgrwt>
</event>
<event>
 6    1  0.1028026E-006  0.1462844E+04  0.7818608E-02  0.8909545E-01
         -1   -1    0    0    0  501 -0.00000000000E+00  0.00000000000E+00  0.46791929973E+03  0.46791929973E+03  0.00000000000E+00 0.  1.
          1   -1    0    0  501    0  0.00000000000E+00 -0.00000000000E+00 -0.11433121162E+04  0.11433121162E+04  0.00000000000E+00 0. -1.
         23    2    1    2    0    0  0.31829132048E+03 -0.65535069994E+03 -0.33374407600E+03  0.80654652951E+03  0.91314245293E+02 0.  0.
         11    1    3    3    0    0  0.28382926368E+03 -0.54312441217E+03 -0.24765561421E+03  0.66096632385E+03  0.00000000000E+00 0. -1.
        -11    1    3    3    0    0  0.34462056801E+02 -0.11222628776E+03 -0.86088461796E+02  0.14558020566E+03  0.00000000000E+00 0.  1.
         22    1    1    2    0    0 -0.31829132048E+03  0.65535069994E+03 -0.34164874051E+03  0.80468488646E+03  0.00000000000E+00 0.  1.
<mgrwt>
<rscale>  0 0.14628435E+04</rscale>
<asrwt>0</asrwt>
<pdfrwt beam="1">  1        1 0.17589417E+00 0.14628435E+04</pdfrwt>
<pdfrwt beam="2">  1       -1 0.71987585E-01 0.14628435E+04</pdfrwt>
<totfact> 0.22232975E+01</totfact>
</mgrwt>
</event>
<event>
 6    1  0.1028026E-006  0.1502651E+04  0.7818608E-02  0.8882692E-01
         -2   -1    0    0    0  501 -0.00000000000E+00  0.00000000000E+00  0.42003003513E+03  0.42003003513E+03  0.00000000000E+00 0.  1.
          2   -1    0    0  501    0  0.00000000000E+00 -0.00000000000E+00 -0.13439271329E+04  0.13439271329E+04  0.00000000000E+00 0. -1.
         23    2    1    2    0    0  0.45719870917E+03 -0.56674160845E+01 -0.11593719620E+04  0.12496506535E+04  0.91763991468E+02 0.  0.
         13    1    3    3    0    0  0.12244698121E+03  0.30975444576E+02 -0.38611652363E+03  0.40624956762E+03  0.00000000000E+00 0. -1.
        -13    1    3    3    0    0  0.33475172796E+03 -0.36642860661E+02 -0.77325543840E+03  0.84340108586E+03  0.00000000000E+00 0.  1.
         22    1    1    2    0    0 -0.45719870917E+03  0.56674160845E+01  0.23547486423E+03  0.51430651459E+03  0.00000000000E+00 0.  1.
<mgrwt>
<rscale>  0 0.15026507E+04</rscale>
<asrwt>0</asrwt>
<pdfrwt beam="1">  1        2 0.20675802E+00 0.15026507E+04</pdfrwt>
<pdfrwt beam="2">  1       -2 0.64620005E-01 0.15026507E+04</pdfrwt>
<totfact> 0.33288703E+01</totfact>
</mgrwt>
</event>
<event>
 6    1  0.1028026E-006  0.2459021E+04  0.7818608E-02  0.8417732E-01
         -2   -1    0    0    0  501 -0.00000000000E+00  0.00000000000E+00  0.77877914792E+03  0.77877914792E+03  0.00000000000E+00 0.  1.
          2   -1    0    0  501    0  0.00000000000E+00 -0.00000000000E+00 -0.19411097429E+04  0.19411097429E+04  0.00000000000E+00 0. -1.
         23    2    1    2    0    0  0.73813228447E+03 -0.12579738701E+03  0.49442127470E+03  0.90178795587E+03  0.90027043204E+02 0.  0.
         13    1    3    3    0    0  0.13210408004E+03 -0.50517581243E+02  0.67814048296E+02  0.15685107307E+03  0.00000000000E+00 0. -1.
        -13    1    3    3    0    0  0.60602820444E+03 -0.75279805772E+02  0.42660722641E+03  0.74493688280E+03  0.00000000000E+00 0.  1.
         22    1    1    2    0    0 -0.73813228447E+03  0.12579738701E+03 -0.16567518697E+04  0.18181009349E+04  0.00000000000E+00 0. -1.
<mgrwt>
<rscale>  0 0.24590208E+04</rscale>
<asrwt>0</asrwt>
<pdfrwt beam="1">  1        2 0.29863227E+00 0.24590208E+04</pdfrwt>
<pdfrwt beam="2">  1       -2 0.11981218E+00 0.24590208E+04</pdfrwt>
<totfact> 0.34369557E+00</totfact>
</mgrwt>
</event>
<event>
 6    1  0.1028026E-006  0.2024885E+04  0.7818608E-02  0.8595074E-01
         -1   -1    0    0    0  501 -0.00000000000E+00  0.00000000000E+00  0.55200634907E+03  0.55200634907E+03  0.00000000000E+00 0.  1.
          1   -1    0    0  501    0  0.00000000000E+00 -0.00000000000E+00 -0.18569341796E+04  0.18569341796E+04  0.00000000000E+00 0. -1.
         23    2    1    2    0    0 -0.46461220791E+03 -0.60681312954E+03  0.13268506455E+03  0.78080739100E+03  0.89264649032E+02 0.  0.
         13    1    3    3    0    0 -0.90402226313E+02 -0.69459918484E+02  0.85038922132E+01  0.11432217187E+03  0.00000000000E+00 0. -1.
        -13    1    3    3    0    0 -0.37420998160E+03 -0.53735321105E+03  0.12418117233E+03  0.66648521913E+03  0.00000000000E+00 0.  1.
         22    1    1    2    0    0  0.46461220791E+03  0.60681312954E+03 -0.14376128951E+04  0.16281331377E+04  0.00000000000E+00 0. -1.
<mgrwt>
<rscale>  0 0.20248846E+04</rscale>
<asrwt>0</asrwt>
<pdfrwt beam="1">  1        1 0.28568218E+00 0.20248846E+04</pdfrwt>
<pdfrwt beam="2">  1       -1 0.84924054E-01 0.20248846E+04</pdfrwt>
<totfact> 0.47316293E+00</totfact>
</mgrwt>
</event>
<event>
 6    1  0.1028026E-006  0.2385096E+04  0.7818608E-02  0.8445104E-01
          1   -1    0    0  501    0  0.00000000000E+00  0.00000000000E+00  0.31356896109E+04  0.31356896109E+04  0.00000000000E+00 0. -1.
         -1   -1    0    0    0  501 -0.00000000000E+00 -0.00000000000E+00 -0.45354335245E+03  0.45354335245E+03  0.00000000000E+00 0.  1.
         23    2    1    2    0    0 -0.30149948231E+03 -0.84323156009E+03  0.16246218945E+03  0.91514448138E+03  0.95676836438E+02 0.  0.
         11    1    3    3    0    0 -0.15430649483E+03 -0.29880692892E+03  0.48554362084E+02  0.33978463943E+03  0.00000000000E+00 0. -1.
        -11    1    3    3    0    0 -0.14719298748E+03 -0.54442463118E+03  0.11390782736E+03  0.57535984195E+03  0.00000000000E+00 0.  1.
         22    1    1    2    0    0  0.30149948231E+03  0.84323156009E+03  0.25196840690E+04  0.26740884820E+04  0.00000000000E+00 0. -1.
<mgrwt>
<rscale>  0 0.23850964E+04</rscale>
<asrwt>0</asrwt>
<pdfrwt beam="1">  1        1 0.48241377E+00 0.23850964E+04</pdfrwt>
<pdfrwt beam="2">  1       -1 0.69775902E-01 0.23850964E+04</pdfrwt>
<totfact> 0.88531918E-01</totfact>
</mgrwt>
</event>
<event>
 6    1  0.1028026E-006  0.1802343E+03  0.7818608E-02  0.1167576E+00
          1   -1    0    0  501    0  0.00000000000E+00  0.00000000000E+00  0.89483933255E+02  0.89483933255E+02  0.00000000000E+00 0. -1.
         -1   -1    0    0    0  501 -0.00000000000E+00 -0.00000000000E+00 -0.90754859610E+02  0.90754859610E+02  0.00000000000E+00 0.  1.
         23    2    1    2    0    0 -0.43995690818E+02 -0.26983571057E+02 -0.41854340416E+02  0.11458251050E+03  0.93346837025E+02 0.  0.
         13    1    3    3    0    0 -0.99105966123E+00 -0.52549002857E+02 -0.37087136089E+02  0.64326010010E+02  0.00000000000E+00 0. -1.
        -13    1    3    3    0    0 -0.43004631157E+02  0.25565431800E+02 -0.47672043267E+01  0.50256500487E+02  0.00000000000E+00 0.  1.
         22    1    1    2    0    0  0.43995690818E+02  0.26983571057E+02  0.40583414061E+02  0.65656282368E+02  0.00000000000E+00 0. -1.
<mgrwt>
<rscale>  0 0.18023431E+03</rscale>
<asrwt>0</asrwt>
<pdfrwt beam="1">  1        1 0.13766759E-01 0.18023431E+03</pdfrwt>
<pdfrwt beam="2">  1       -1 0.13962286E-01 0.18023431E+03</pdfrwt>
<totfact> 0.14385002E+04</totfact>
</mgrwt>
</event>
<event>
 6    1  0.1028026E-006  0.1268059E+04  0.7818608E-02  0.9055285E-01
          2   -1    0    0  501    0  0.00000000000E+00  0.00000000000E+00  0.98085164635E+03  0.98085164635E+03  0.00000000000E+00 0. -1.
         -2   -1    0    0    0  501 -0.00000000000E+00 -0.00000000000E+00 -0.40984138234E+03  0.40984138234E+03  0.00000000000E+00 0.  1.
         23    2    1    2    0    0 -0.26043876876E+03  0.15099276940E+03  0.89486287335E+03  0.94853052321E+03  0.91123118189E+02 0.  0.
         11    1    3    3    0    0 -0.67949599443E+02 -0.14915033779E+01  0.16442389816E+03  0.17791737108E+03  0.00000000000E+00 0. -1.
        -11    1    3    3    0    0 -0.19248916932E+03  0.15248427277E+03  0.73043897519E+03  0.77061315213E+03  0.00000000000E+00 0.  1.
         22    1    1    2    0    0  0.26043876876E+03 -0.15099276940E+03 -0.32385260933E+03  0.44216250549E+03  0.00000000000E+00 0.  1.
<mgrwt>
<rscale>  0 0.12680593E+04</rscale>
<asrwt>0</asrwt>
<pdfrwt beam="1">  1        2 0.15090025E+00 0.12680593E+04</pdfrwt>
<pdfrwt beam="2">  1       -2 0.63052521E-01 0.12680593E+04</pdfrwt>
<totfact> 0.59338899E+01</totfact>
</mgrwt>
</event>
<event>
 6    1  0.1028026E-006  0.1621510E+04  0.7818608E-02  0.8807442E-01
          1   -1    0    0  501    0  0.00000000000E+00  0.00000000000E+00  0.17078917922E+04  0.17078917922E+04  0.00000000000E+00 0. -1.
         -1   -1    0    0    0  501 -0.00000000000E+00 -0.00000000000E+00 -0.38487428651E+03  0.38487428651E+03  0.00000000000E+00 0.  1.
         23    2    1    2    0    0  0.66565083523E+03 -0.30460162970E+03  0.22175316587E+03  0.77039837894E+03  0.92010914769E+02 0.  0.
         13    1    3    3    0    0  0.23383513324E+03 -0.81834098197E+02  0.36622390219E+02  0.25043340158E+03  0.00000000000E+00 0.  1.
        -13    1    3    3    0    0  0.43181570199E+03 -0.22276753151E+03  0.18513077566E+03  0.51996497736E+03  0.00000000000E+00 0. -1.
         22    1    1    2    0    0 -0.66565083523E+03  0.30460162970E+03  0.11012643398E+04  0.13223676998E+04  0.00000000000E+00 0. -1.
<mgrwt>
<rscale>  0 0.16215100E+04</rscale>
<asrwt>0</asrwt>
<pdfrwt beam="1">  1        1 0.26275258E+00 0.16215100E+04</pdfrwt>
<pdfrwt beam="2">  1       -1 0.59211430E-01 0.16215100E+04</pdfrwt>
<totfact> 0.13036255E+01</totfact>
</mgrwt>
</event>
<event>
 6    1  0.1037720E-006  0.4568409E+04  0.7818608E-02  0.7898769E-01
          1   -1    0    0  501    0  0.00000000000E+00  0.00000000000E+00  0.26554414559E+04  0.26554414559E+04  0.00000000000E+00 0. -1.
         -1   -1    0    0    0  501 -0.00000000000E+00 -0.00000000000E+00 -0.19648673167E+04  0.19648673167E+04  0.00000000000E+00 0.  1.
         23    2    1    2    0    0  0.36757131862E+03 -0.29648778525E+03  0.26047331708E+04  0.26487564706E+04  0.90897020090E+02 0.  0.
         13    1    3    3    0    0  0.23760927720E+03 -0.20125146445E+03  0.14679947560E+04  0.15006561646E+04  0.00000000000E+00 0. -1.
        -13    1    3    3    0    0  0.12996204142E+03 -0.95236320793E+02  0.11367384148E+04  0.11481003061E+04  0.00000000000E+00 0.  1.
         22    1    1    2    0    0 -0.36757131862E+03  0.29648778525E+03 -0.19141590316E+04  0.19715523019E+04  0.00000000000E+00 0.  1.
<mgrwt>
<rscale>  0 0.45684090E+04</rscale>
<asrwt>0</asrwt>
<pdfrwt beam="1">  1        1 0.40852945E+00 0.45684090E+04</pdfrwt>
<pdfrwt beam="2">  1       -1 0.30228728E+00 0.45684090E+04</pdfrwt>
<totfact> 0.25162598E-02</totfact>
</mgrwt>
</event>
<event>
 6    1  0.1028026E-006  0.1395801E+04  0.7818608E-02  0.8956864E-01
          2   -1    0    0  501    0  0.00000000000E+00  0.00000000000E+00  0.23115918158E+04  0.23115918158E+04  0.00000000000E+00 0. -1.
         -2   -1    0    0    0  501 -0.00000000000E+00 -0.00000000000E+00 -0.21070540182E+03  0.21070540182E+03  0.00000000000E+00 0.  1.
         23    2    1    2    0    0  0.23450042261E+02  0.22818919543E+03  0.22403354577E+04  0.22538456407E+04  0.89983306273E+02 0.  0.
         11    1    3    3    0    0  0.25341745985E+02  0.22018503936E+03  0.18222597318E+04  0.18356890221E+04  0.00000000000E+00 0.  1.
        -11    1    3    3    0    0 -0.18917037240E+01  0.80041560667E+01  0.41807572590E+03  0.41815661855E+03  0.00000000000E+00 0. -1.
         22    1    1    2    0    0 -0.23450042261E+02 -0.22818919543E+03 -0.13944904372E+03  0.26845157699E+03  0.00000000000E+00 0.  1.
<mgrwt>
<rscale>  0 0.13958007E+04</rscale>
<asrwt>0</asrwt>
<pdfrwt beam="1">  1        2 0.35562949E+00 0.13958007E+04</pdfrwt>
<pdfrwt beam="2">  1       -2 0.32416217E-01 0.13958007E+04</pdfrwt>
<totfact> 0.38627492E+01</totfact>
</mgrwt>
</event>
<event>
 6    1  0.1028026E-006  0.1090881E+04  0.7818608E-02  0.9214126E-01
          4   -1    0    0  501    0  0.00000000000E+00  0.00000000000E+00  0.51561318933E+03  0.51561318933E+03  0.00000000000E+00 0. -1.
         -4   -1    0    0    0  501 -0.00000000000E+00 -0.00000000000E+00 -0.57699308442E+03  0.57699308442E+03  0.00000000000E+00 0.  1.
         23    2    1    2    0    0  0.27792462560E+03  0.29746822445E+03  0.32603017388E+03  0.53063118213E+03  0.97695112969E+02 0.  0.
         13    1    3    3    0    0  0.14998771440E+03  0.10511075109E+03  0.10608907870E+03  0.21165886961E+03  0.00000000000E+00 0.  1.
        -13    1    3    3    0    0  0.12793691120E+03  0.19235747336E+03  0.21994109518E+03  0.31897231252E+03  0.00000000000E+00 0. -1.
         22    1    1    2    0    0 -0.27792462560E+03 -0.29746822445E+03 -0.38741006897E+03  0.56197509162E+03  0.00000000000E+00 0.  1.
<mgrwt>
<rscale>  0 0.10908808E+04</rscale>
<asrwt>0</asrwt>
<pdfrwt beam="1">  1        4 0.79325106E-01 0.10908808E+04</pdfrwt>
<pdfrwt beam="2">  1       -4 0.88768167E-01 0.10908808E+04</pdfrwt>
<totfact> 0.30569908E+00</totfact>
</mgrwt>
</event>
<event>
 6    1  0.1028026E-006  0.3771950E+04  0.7818608E-02  0.8052201E-01
         -2   -1    0    0    0  501 -0.00000000000E+00  0.00000000000E+00  0.12353594630E+04  0.12353594630E+04  0.00000000000E+00 0.  1.
          2   -1    0    0  501    0  0.00000000000E+00 -0.00000000000E+00 -0.28792438832E+04  0.28792438832E+04  0.00000000000E+00 0. -1.
         23    2    1    2    0    0 -0.15812886133E+04 -0.95567915151E+03 -0.41583636193E+03  0.18960681645E+04  0.91423657070E+02 0.  0.
         13    1    3    3    0    0 -0.30613592318E+03 -0.22616386787E+03 -0.74156826715E+02  0.38777381750E+03  0.00000000000E+00 0. -1.
        -13    1    3    3    0    0 -0.12751526902E+04 -0.72951528364E+03 -0.34167953521E+03  0.15082943470E+04  0.00000000000E+00 0.  1.
         22    1    1    2    0    0  0.15812886133E+04  0.95567915151E+03 -0.12280480582E+04  0.22185351817E+04  0.00000000000E+00 0. -1.
<mgrwt>
<rscale>  0 0.37719497E+04</rscale>
<asrwt>0</asrwt>
<pdfrwt beam="1">  1        2 0.44296059E+00 0.37719497E+04</pdfrwt>
<pdfrwt beam="2">  1       -2 0.19005531E+00 0.37719497E+04</pdfrwt>
<totfact> 0.25738982E-01</totfact>
</mgrwt>
</event>
<event>
 6    1  0.1028026E-006  0.1797682E+04  0.7818608E-02  0.8707533E-01
          2   -1    0    0  501    0  0.00000000000E+00  0.00000000000E+00  0.10549564376E+04  0.10549564376E+04  0.00000000000E+00 0. -1.
         -2   -1    0    0    0  501 -0.00000000000E+00 -0.00000000000E+00 -0.76582763650E+03  0.76582763650E+03  0.00000000000E+00 0.  1.
         23    2    1    2    0    0 -0.53727406403E+03 -0.71507780967E+03  0.73839819515E+02  0.90081177050E+03  0.77523113802E+02 0.  0.
         11    1    3    3    0    0 -0.22337588246E+03 -0.24551038900E+03  0.48233268834E+02  0.33540808606E+03  0.00000000000E+00 0. -1.
        -11    1    3    3    0    0 -0.31389818158E+03 -0.46956742067E+03  0.25606550682E+02  0.56540368445E+03  0.00000000000E+00 0.  1.
         22    1    1    2    0    0  0.53727406403E+03  0.71507780967E+03  0.21528898156E+03  0.91997230357E+03  0.00000000000E+00 0.  1.
<mgrwt>
<rscale>  0 0.17976816E+04</rscale>
<asrwt>0</asrwt>
<pdfrwt beam="1">  1        2 0.16230099E+00 0.17976816E+04</pdfrwt>
<pdfrwt beam="2">  1       -2 0.11781964E+00 0.17976816E+04</pdfrwt>
<totfact> 0.12195645E+01</totfact>
</mgrwt>
</event>
<event>
 6    1  0.1352466E-006  0.3122864E+04  0.7818608E-02  0.8209491E-01
          1   -1    0    0  501    0  0.00000000000E+00  0.00000000000E+00  0.16708992180E+04  0.16708992180E+04  0.00000000000E+00 0. -1.
         -1   -1    0    0    0  501 -0.00000000000E+00 -0.00000000000E+00 -0.14591364298E+04  0.14591364298E+04  0.00000000000E+00 0.  1.
         23    2    1    2    0    0  0.83239843060E+03 -0.88774677636E+03 -0.87252288671E+03  0.15001102167E+04  0.89738443232E+02 0.  0.
         11    1    3    3    0    0  0.41664408128E+03 -0.38127447525E+03 -0.38932438678E+03  0.68595626251E+03  0.00000000000E+00 0.  1.
        -11    1    3    3    0    0  0.41575434932E+03 -0.50647230111E+03 -0.48319849993E+03  0.81415395418E+03  0.00000000000E+00 0. -1.
         22    1    1    2    0    0 -0.83239843060E+03  0.88774677636E+03  0.10842856749E+04  0.16299254311E+04  0.00000000000E+00 0. -1.
<mgrwt>
<rscale>  0 0.31228640E+04</rscale>
<asrwt>0</asrwt>
<pdfrwt beam="1">  1        1 0.25706142E+00 0.31228640E+04</pdfrwt>
<pdfrwt beam="2">  1       -1 0.22448253E+00 0.31228640E+04</pdfrwt>
<totfact> 0.43160781E-01</totfact>
</mgrwt>
</event>
<event>
 6    1  0.1028026E-006  0.2846874E+04  0.7818608E-02  0.8288862E-01
         -1   -1    0    0    0  501 -0.00000000000E+00  0.00000000000E+00  0.81419534187E+03  0.81419534187E+03  0.00000000000E+00 0.  1.
          1   -1    0    0  501    0  0.00000000000E+00 -0.00000000000E+00 -0.24885579663E+04  0.24885579663E+04  0.00000000000E+00 0. -1.
         23    2    1    2    0    0 -0.97337392462E+02 -0.12186209925E+03 -0.24778222867E+04  0.24842959983E+04  0.88308456161E+02 0.  0.
         11    1    3    3    0    0 -0.37574364894E+02 -0.73811785583E+02 -0.18427987388E+04  0.18446591024E+04  0.00000000000E+00 0.  1.
        -11    1    3    3    0    0 -0.59763027568E+02 -0.48050313665E+02 -0.63502354796E+03  0.63963689588E+03  0.00000000000E+00 0. -1.
         22    1    1    2    0    0  0.97337392462E+02  0.12186209925E+03  0.80345966227E+03  0.81845730988E+03  0.00000000000E+00 0.  1.
<mgrwt>
<rscale>  0 0.28468736E+04</rscale>
<asrwt>0</asrwt>
<pdfrwt beam="1">  1        1 0.38285507E+00 0.28468736E+04</pdfrwt>
<pdfrwt beam="2">  1       -1 0.12526082E+00 0.28468736E+04</pdfrwt>
<totfact> 0.66205978E-01</totfact>
</mgrwt>
</event>
<event>
 6    1  0.1028026E-006  0.2197437E+04  0.7818608E-02  0.8519496E-01
         -2   -1    0    0    0  501 -0.00000000000E+00  0.00000000000E+00  0.22858860068E+04  0.22858860068E+04  0.00000000000E+00 0.  1.
          2   -1    0    0  501    0  0.00000000000E+00 -0.00000000000E+00 -0.52810241270E+03  0.52810241270E+03  0.00000000000E+00 0. -1.
         23    2    1    2    0    0  0.52280472502E+03 -0.16754590514E+03  0.20963594072E+04  0.21689845498E+04  0.91513944451E+02 0.  0.
         13    1    3    3    0    0  0.48818321138E+03 -0.12945402453E+03  0.19099336385E+04  0.19755828750E+04  0.00000000000E+00 0.  1.
        -13    1    3    3    0    0  0.34621513639E+02 -0.38091880606E+02  0.18642576870E+03  0.19340167479E+03  0.00000000000E+00 0. -1.
         22    1    1    2    0    0 -0.52280472502E+03  0.16754590514E+03 -0.33857581308E+03  0.64500386978E+03  0.00000000000E+00 0. -1.
<mgrwt>
<rscale>  0 0.21974366E+04</rscale>
<asrwt>0</asrwt>
<pdfrwt beam="1">  1        2 0.81246526E-01 0.21974366E+04</pdfrwt>
<pdfrwt beam="2">  1       -2 0.35167476E+00 0.21974366E+04</pdfrwt>
<totfact> 0.80297690E-01</totfact>
</mgrwt>
</event>
<event>
 6    1  0.1028026E-006  0.9983736E+03  0.7818608E-02  0.9310330E-01
          1   -1    0    0  501    0  0.00000000000E+00  0.00000000000E+00  0.23295549683E+04  0.23295549683E+04  0.00000000000E+00 0. -1.
         -1   -1    0    0    0  501 -0.00000000000E+00 -0.00000000000E+00 -0.10696784092E+03  0.10696784092E+03  0.00000000000E+00 0.  1.
         23    2    1    2    0    0  0.18098745092E+03 -0.20484605058E+03  0.21277336327E+04  0.21471864180E+04  0.91873500516E+02 0.  0.
         11    1    3    3    0    0  0.89863742325E+02 -0.14063265831E+03  0.15363305971E+04  0.15453688039E+04  0.00000000000E+00 0. -1.
        -11    1    3    3    0    0  0.91123708595E+02 -0.64213392277E+02  0.59140303568E+03  0.60181761409E+03  0.00000000000E+00 0.  1.
         22    1    1    2    0    0 -0.18098745092E+03  0.20484605058E+03  0.94853494676E+02  0.28933639122E+03  0.00000000000E+00 0.  1.
<mgrwt>
<rscale>  0 0.99837361E+03</rscale>
<asrwt>0</asrwt>
<pdfrwt beam="1">  1        1 0.35839303E+00 0.99837361E+03</pdfrwt>
<pdfrwt beam="2">  1       -1 0.16456593E-01 0.99837361E+03</pdfrwt>
<totfact> 0.50847868E+01</totfact>
</mgrwt>
</event>
<event>
 6    1  0.1060094E-006  0.2339089E+04  0.7818608E-02  0.8462666E-01
         -2   -1    0    0    0  501 -0.00000000000E+00  0.00000000000E+00  0.10659227055E+04  0.10659227055E+04  0.00000000000E+00 0.  1.
          2   -1    0    0  501    0  0.00000000000E+00 -0.00000000000E+00 -0.12832397752E+04  0.12832397752E+04  0.00000000000E+00 0. -1.
         23    2    1    2    0    0  0.36828263541E+03  0.36746983929E+03 -0.11587679717E+04  0.12735250031E+04  0.91959442666E+02 0.  0.
         13    1    3    3    0    0  0.25285891524E+03  0.19182099259E+03 -0.66341010202E+03  0.73542225128E+03  0.00000000000E+00 0. -1.
        -13    1    3    3    0    0  0.11542372017E+03  0.17564884669E+03 -0.49535786964E+03  0.53810275184E+03  0.00000000000E+00 0.  1.
         22    1    1    2    0    0 -0.36828263541E+03 -0.36746983929E+03  0.94145090198E+03  0.10756374776E+04  0.00000000000E+00 0.  1.
<mgrwt>
<rscale>  0 0.23390891E+04</rscale>
<asrwt>0</asrwt>
<pdfrwt beam="1">  1        2 0.19742150E+00 0.23390891E+04</pdfrwt>
<pdfrwt beam="2">  1       -2 0.16398811E+00 0.23390891E+04</pdfrwt>
<totfact> 0.35985741E+00</totfact>
</mgrwt>
</event>
<event>
 6    1  0.1028026E-006  0.4709439E+04  0.7818608E-02  0.7874962E-01
         -2   -1    0    0    0  501 -0.00000000000E+00  0.00000000000E+00  0.26379457155E+04  0.26379457155E+04  0.00000000000E+00 0.  1.
          2   -1    0    0  501    0  0.00000000000E+00 -0.00000000000E+00 -0.21019017640E+04  0.21019017640E+04  0.00000000000E+00 0. -1.
         23    2    1    2    0    0  0.20225431457E+04 -0.15988208761E+03  0.14693186375E+04  0.25066334956E+04  0.89839662143E+02 0.  0.
         13    1    3    3    0    0  0.56580278709E+03 -0.85207424060E+02  0.41148910218E+03  0.70478108673E+03  0.00000000000E+00 0.  1.
        -13    1    3    3    0    0  0.14567403586E+04 -0.74674663552E+02  0.10578295353E+04  0.18018524089E+04  0.00000000000E+00 0. -1.
         22    1    1    2    0    0 -0.20225431457E+04  0.15988208761E+03 -0.93327468603E+03  0.22332139839E+04  0.00000000000E+00 0. -1.
<mgrwt>
<rscale>  0 0.47094385E+04</rscale>
<asrwt>0</asrwt>
<pdfrwt beam="1">  1        2 0.32336950E+00 0.47094385E+04</pdfrwt>
<pdfrwt beam="2">  1       -2 0.40583780E+00 0.47094385E+04</pdfrwt>
<totfact> 0.29693865E-02</totfact>
</mgrwt>
</event>
<event>
 6    1  0.1028026E-006  0.6450831E+03  0.7818608E-02  0.9816049E-01
          1   -1    0    0  501    0  0.00000000000E+00  0.00000000000E+00  0.27309301832E+03  0.27309301832E+03  0.00000000000E+00 0. -1.
         -1   -1    0    0    0  501 -0.00000000000E+00 -0.00000000000E+00 -0.38094365929E+03  0.38094365929E+03  0.00000000000E+00 0.  1.
         23    2    1    2    0    0  0.19300676296E+03 -0.21429074470E+03 -0.18538651128E+03  0.35539986641E+03  0.93641725041E+02 0.  0.
         11    1    3    3    0    0  0.86219909680E+02 -0.91960157128E+02 -0.13653279278E+03  0.18582719615E+03  0.00000000000E+00 0.  1.
        -11    1    3    3    0    0  0.10678685328E+03 -0.12233058757E+03 -0.48853718501E+02  0.16957267027E+03  0.00000000000E+00 0. -1.
         22    1    1    2    0    0 -0.19300676296E+03  0.21429074470E+03  0.77535870307E+02  0.29863681119E+03  0.00000000000E+00 0. -1.
<mgrwt>
<rscale>  0 0.64508311E+03</rscale>
<asrwt>0</asrwt>
<pdfrwt beam="1">  1        1 0.42014310E-01 0.64508311E+03</pdfrwt>
<pdfrwt beam="2">  1       -1 0.58606717E-01 0.64508311E+03</pdfrwt>
<totfact> 0.29661461E+02</totfact>
</mgrwt>
</event>
<event>
 6    1  0.1028026E-006  0.1921623E+04  0.7818608E-02  0.8644168E-01
         -2   -1    0    0    0  501 -0.00000000000E+00  0.00000000000E+00  0.56073037270E+03  0.56073037270E+03  0.00000000000E+00 0.  1.
          2   -1    0    0  501    0  0.00000000000E+00 -0.00000000000E+00 -0.16463502297E+04  0.16463502297E+04  0.00000000000E+00 0. -1.
         23    2    1    2    0    0  0.13234282959E+03 -0.80338499328E+03  0.37817492787E+02  0.81961761159E+03  0.86027870450E+02 0.  0.
         11    1    3    3    0    0  0.10295437209E+03 -0.52515926540E+03  0.62323984082E+02  0.53877280532E+03  0.00000000000E+00 0. -1.
        -11    1    3    3    0    0  0.29388457500E+02 -0.27822572788E+03 -0.24506491295E+02  0.28084480626E+03  0.00000000000E+00 0.  1.
         22    1    1    2    0    0 -0.13234282959E+03  0.80338499328E+03 -0.11234373498E+04  0.13874629908E+04  0.00000000000E+00 0. -1.
<mgrwt>
<rscale>  0 0.19216228E+04</rscale>
<asrwt>0</asrwt>
<pdfrwt beam="1">  1        2 0.25328465E+00 0.19216228E+04</pdfrwt>
<pdfrwt beam="2">  1       -2 0.86266212E-01 0.19216228E+04</pdfrwt>
<totfact> 0.11442126E+01</totfact>
</mgrwt>
</event>
<event>
 6    1  0.1028026E-006  0.1609099E+04  0.7818608E-02  0.8814978E-01
         -2   -1    0    0    0  501 -0.00000000000E+00  0.00000000000E+00  0.37000571162E+03  0.37000571162E+03  0.00000000000E+00 0.  1.
          2   -1    0    0  501    0  0.00000000000E+00 -0.00000000000E+00 -0.17494320821E+04  0.17494320821E+04  0.00000000000E+00 0. -1.
         23    2    1    2    0    0  0.45774758597E+03  0.51948313166E+03 -0.12247675953E+04  0.14099908871E+04  0.92860447855E+02 0.  0.
         11    1    3    3    0    0  0.32977561766E+03  0.33604922526E+03 -0.75652845367E+03  0.89107594570E+03  0.00000000000E+00 0.  1.
        -11    1    3    3    0    0  0.12797196831E+03  0.18343390639E+03 -0.46823914159E+03  0.51891494140E+03  0.00000000000E+00 0. -1.
         22    1    1    2    0    0 -0.45774758597E+03 -0.51948313166E+03 -0.15465877519E+03  0.70944690659E+03  0.00000000000E+00 0.  1.
<mgrwt>
<rscale>  0 0.16090990E+04</rscale>
<asrwt>0</asrwt>
<pdfrwt beam="1">  1        2 0.26914339E+00 0.16090990E+04</pdfrwt>
<pdfrwt beam="2">  1       -2 0.56923956E-01 0.16090990E+04</pdfrwt>
<totfact> 0.25521651E+01</totfact>
</mgrwt>
</event>
<event>
 6    1  0.1028026E-006  0.4115908E+04  0.7818608E-02  0.7981564E-01
          1   -1    0    0  501    0  0.00000000000E+00  0.00000000000E+00  0.21799627209E+04  0.21799627209E+04  0.00000000000E+00 0. -1.
         -1   -1    0    0    0  501 -0.00000000000E+00 -0.00000000000E+00 -0.19427740148E+04  0.19427740148E+04  0.00000000000E+00 0.  1.
         23    2    1    2    0    0 -0.17721727246E+04  0.92117894424E+02 -0.92352917777E+03  0.20022773803E+04  0.84419743621E+02 0.  0.
         13    1    3    3    0    0 -0.11976026875E+04  0.97163894358E+02 -0.64557705047E+03  0.13639878106E+04  0.00000000000E+00 0. -1.
        -13    1    3    3    0    0 -0.57457003710E+03 -0.50459999337E+01 -0.27795212731E+03  0.63828956965E+03  0.00000000000E+00 0.  1.
         22    1    1    2    0    0  0.17721727246E+04 -0.92117894424E+02  0.11607178838E+04  0.21204593555E+04  0.00000000000E+00 0. -1.
<mgrwt>
<rscale>  0 0.41159081E+04</rscale>
<asrwt>0</asrwt>
<pdfrwt beam="1">  1        1 0.33537888E+00 0.41159081E+04</pdfrwt>
<pdfrwt beam="2">  1       -1 0.29888831E+00 0.41159081E+04</pdfrwt>
<totfact> 0.58526199E-02</totfact>
</mgrwt>
</event>
<event>
 6    1  0.1028026E-006  0.1318436E+04  0.7818608E-02  0.9015072E-01
         -1   -1    0    0    0  501 -0.00000000000E+00  0.00000000000E+00  0.27193970734E+03  0.27193970734E+03  0.00000000000E+00 0.  1.
          1   -1    0    0  501    0  0.00000000000E+00 -0.00000000000E+00 -0.15980319477E+04  0.15980319477E+04  0.00000000000E+00 0. -1.
         23    2    1    2    0    0  0.42536173078E+03 -0.48291722929E+03 -0.48613036220E+03  0.81182345694E+03  0.92698132817E+02 0.  0.
         11    1    3    3    0    0  0.21821447058E+03 -0.17865294947E+03 -0.21707356716E+03  0.35588673069E+03  0.00000000000E+00 0. -1.
        -11    1    3    3    0    0  0.20714726020E+03 -0.30426427982E+03 -0.26905679504E+03  0.45593672625E+03  0.00000000000E+00 0.  1.
         22    1    1    2    0    0 -0.42536173078E+03  0.48291722929E+03 -0.83996187812E+03  0.10581481981E+04  0.00000000000E+00 0. -1.
<mgrwt>
<rscale>  0 0.13184360E+04</rscale>
<asrwt>0</asrwt>
<pdfrwt beam="1">  1        1 0.24585106E+00 0.13184360E+04</pdfrwt>
<pdfrwt beam="2">  1       -1 0.41836879E-01 0.13184360E+04</pdfrwt>
<totfact> 0.30798865E+01</totfact>
</mgrwt>
</event>
<event>
 6    1  0.1028026E-006  0.1429546E+04  0.7818608E-02  0.8932705E-01
          1   -1    0    0  501    0  0.00000000000E+00  0.00000000000E+00  0.16369597243E+04  0.16369597243E+04  0.00000000000E+00 0. -1.
         -1   -1    0    0    0  501 -0.00000000000E+00 -0.00000000000E+00 -0.31210345660E+03  0.31210345660E+03  0.00000000000E+00 0.  1.
         23    2    1    2    0    0 -0.44655065592E+02 -0.30808180688E+03 -0.20759043715E+03  0.38531723676E+03  0.92016893773E+02 0.  0.
         11    1    3    3    0    0 -0.41294082377E+02 -0.25803334498E+03 -0.20978780952E+03  0.33510794289E+03  0.00000000000E+00 0.  1.
        -11    1    3    3    0    0 -0.33609832150E+01 -0.50048461892E+02  0.21973723738E+01  0.50209293873E+02  0.00000000000E+00 0. -1.
         22    1    1    2    0    0  0.44655065592E+02  0.30808180688E+03  0.15324467049E+04  0.15637459442E+04  0.00000000000E+00 0. -1.
<mgrwt>
<rscale>  0 0.14295465E+04</rscale>
<asrwt>0</asrwt>
<pdfrwt beam="1">  1        1 0.25183995E+00 0.14295465E+04</pdfrwt>
<pdfrwt beam="2">  1       -1 0.48015917E-01 0.14295465E+04</pdfrwt>
<totfact> 0.22196547E+01</totfact>
</mgrwt>
</event>
<event>
 6    1  0.1028026E-006  0.3620530E+04  0.7818608E-02  0.8085805E-01
         -2   -1    0    0    0  501 -0.00000000000E+00  0.00000000000E+00  0.16422786863E+04  0.16422786863E+04  0.00000000000E+00 0.  1.
          2   -1    0    0  501    0  0.00000000000E+00 -0.00000000000E+00 -0.19954340018E+04  0.19954340018E+04  0.00000000000E+00 0. -1.
         23    2    1    2    0    0  0.36173145011E+03 -0.49841316281E+03 -0.18860135029E+04  0.19857685167E+04  0.83452656216E+02 0.  0.
         11    1    3    3    0    0  0.14808224299E+03 -0.22713244711E+03 -0.70630134157E+03  0.75655738997E+03  0.00000000000E+00 0. -1.
        -11    1    3    3    0    0  0.21364920711E+03 -0.27128071570E+03 -0.11797121614E+04  0.12292111267E+04  0.00000000000E+00 0.  1.
         22    1    1    2    0    0 -0.36173145011E+03  0.49841316281E+03  0.15328581874E+04  0.16519441714E+04  0.00000000000E+00 0.  1.
<mgrwt>
<rscale>  0 0.36205296E+04</rscale>
<asrwt>0</asrwt>
<pdfrwt beam="1">  1        2 0.30698985E+00 0.36205296E+04</pdfrwt>
<pdfrwt beam="2">  1       -2 0.25265826E+00 0.36205296E+04</pdfrwt>
<totfact> 0.33843463E-01</totfact>
</mgrwt>
</event>
<event>
 6    1  0.1028026E-006  0.1734861E+04  0.7818608E-02  0.8741728E-01
         -1   -1    0    0    0  501 -0.00000000000E+00  0.00000000000E+00  0.34265923150E+03  0.34265923150E+03  0.00000000000E+00 0.  1.
          1   -1    0    0  501    0  0.00000000000E+00 -0.00000000000E+00 -0.21958709362E+04  0.21958709362E+04  0.00000000000E+00 0. -1.
         23    2    1    2    0    0  0.33519110676E+02  0.51046489410E+03  0.91615167293E+02  0.52754794477E+03  0.90639705807E+02 0.  0.
         11    1    3    3    0    0 -0.29931805984E+02  0.22829521329E+03  0.44824628250E+02  0.23457166223E+03  0.00000000000E+00 0. -1.
        -11    1    3    3    0    0  0.63450916660E+02  0.28216968081E+03  0.46790539044E+02  0.29297628255E+03  0.00000000000E+00 0.  1.
         22    1    1    2    0    0 -0.33519110676E+02 -0.51046489410E+03 -0.19448268720E+04  0.20109822230E+04  0.00000000000E+00 0. -1.
<mgrwt>
<rscale>  0 0.17348607E+04</rscale>
<asrwt>0</asrwt>
<pdfrwt beam="1">  1        1 0.33782630E+00 0.17348607E+04</pdfrwt>
<pdfrwt beam="2">  1       -1 0.52716804E-01 0.17348607E+04</pdfrwt>
<totfact> 0.75496732E+00</totfact>
</mgrwt>
</event>
<event>
 6    1  0.1028026E-006  0.2097687E+04  0.7818608E-02  0.8562263E-01
          1   -1    0    0  501    0  0.00000000000E+00  0.00000000000E+00  0.16106692044E+04  0.16106692044E+04  0.00000000000E+00 0. -1.
         -1   -1    0    0    0  501 -0.00000000000E+00 -0.00000000000E+00 -0.68299116597E+03  0.68299116597E+03  0.00000000000E+00 0.  1.
         23    2    1    2    0    0 -0.12637627859E+03  0.83601864072E+03 -0.21002975884E+03  0.87617063023E+03  0.93082448740E+02 0.  0.
         11    1    3    3    0    0 -0.14044087775E+02  0.36558651184E+03 -0.68325656902E+02  0.37218158126E+03  0.00000000000E+00 0. -1.
        -11    1    3    3    0    0 -0.11233219081E+03  0.47043212889E+03 -0.14170410193E+03  0.50398904897E+03  0.00000000000E+00 0.  1.
         22    1    1    2    0    0  0.12637627859E+03 -0.83601864072E+03  0.11377077972E+04  0.14174897401E+04  0.00000000000E+00 0. -1.
<mgrwt>
<rscale>  0 0.20976871E+04</rscale>
<asrwt>0</asrwt>
<pdfrwt beam="1">  1        1 0.24779526E+00 0.20976871E+04</pdfrwt>
<pdfrwt beam="2">  1       -1 0.10507556E+00 0.20976871E+04</pdfrwt>
<totfact> 0.42893427E+00</totfact>
</mgrwt>
</event>
<event>
 6    1  0.1028026E-006  0.1493671E+04  0.7818608E-02  0.8888673E-01
         -2   -1    0    0    0  501 -0.00000000000E+00  0.00000000000E+00  0.33191106512E+03  0.33191106512E+03  0.00000000000E+00 0.  1.
          2   -1    0    0  501    0  0.00000000000E+00 -0.00000000000E+00 -0.16804600760E+04  0.16804600760E+04  0.00000000000E+00 0. -1.
         23    2    1    2    0    0  0.38193484539E+03 -0.27170583764E+03 -0.14552543039E+04  0.15316588489E+04  0.92279206692E+02 0.  0.
         13    1    3    3    0    0  0.32212255264E+03 -0.23189807728E+03 -0.11053024076E+04  0.11744075397E+04  0.00000000000E+00 0.  1.
        -13    1    3    3    0    0  0.59812292744E+02 -0.39807760358E+02 -0.34995189635E+03  0.35725130918E+03  0.00000000000E+00 0. -1.
         22    1    1    2    0    0 -0.38193484539E+03  0.27170583764E+03  0.10670529305E+03  0.48071229222E+03  0.00000000000E+00 0.  1.
<mgrwt>
<rscale>  0 0.14936710E+04</rscale>
<asrwt>0</asrwt>
<pdfrwt beam="1">  1        2 0.25853232E+00 0.14936710E+04</pdfrwt>
<pdfrwt beam="2">  1       -2 0.51063241E-01 0.14936710E+04</pdfrwt>
<totfact> 0.35228577E+01</totfact>
</mgrwt>
</event>
<event>
 6    1  0.1028026E-006  0.7459283E+04  0.7818608E-02  0.7531839E-01
          1   -1    0    0  501    0  0.00000000000E+00  0.00000000000E+00  0.31111814759E+04  0.31111814759E+04  0.00000000000E+00 0. -1.
         -1   -1    0    0    0  501 -0.00000000000E+00 -0.00000000000E+00 -0.44710431937E+04  0.44710431937E+04  0.00000000000E+00 0.  1.
         23    2    1    2    0    0 -0.34061168246E+04  0.10282646649E+04 -0.18151379974E+04  0.39952710130E+04  0.92219702313E+02 0.  0.
         13    1    3    3    0    0 -0.25966297734E+04  0.74501108235E+03 -0.13923391484E+04  0.30391011824E+04  0.00000000000E+00 0.  1.
        -13    1    3    3    0    0 -0.80948705121E+03  0.28325358253E+03 -0.42279884905E+03  0.95616983055E+03  0.00000000000E+00 0. -1.
         22    1    1    2    0    0  0.34061168246E+04 -0.10282646649E+04  0.45527627967E+03  0.35869536566E+04  0.00000000000E+00 0. -1.
<mgrwt>
<rscale>  0 0.74592833E+04</rscale>
<asrwt>0</asrwt>
<pdfrwt beam="1">  1        1 0.47864331E+00 0.74592833E+04</pdfrwt>
<pdfrwt beam="2">  1       -1 0.68785279E+00 0.74592833E+04</pdfrwt>
<totfact> 0.67348875E-05</totfact>
</mgrwt>
</event>
<event>
 6    1  0.1028026E-006  0.1049390E+04  0.7818608E-02  0.9255974E-01
         -1   -1    0    0    0  501 -0.00000000000E+00  0.00000000000E+00  0.15840328093E+03  0.15840328093E+03  0.00000000000E+00 0.  1.
          1   -1    0    0  501    0  0.00000000000E+00 -0.00000000000E+00 -0.17380007906E+04  0.17380007906E+04  0.00000000000E+00 0. -1.
         23    2    1    2    0    0 -0.37543964585E+03  0.20762511358E+03 -0.13277437488E+04  0.13989169538E+04  0.10001032768E+03 0.  0.
         13    1    3    3    0    0 -0.17861619641E+03  0.14836324725E+03 -0.62546247932E+03  0.66717217553E+03  0.00000000000E+00 0.  1.
        -13    1    3    3    0    0 -0.19682344944E+03  0.59261866328E+02 -0.70228126945E+03  0.73174477824E+03  0.00000000000E+00 0. -1.
         22    1    1    2    0    0  0.37543964585E+03 -0.20762511358E+03 -0.25185376088E+03  0.49748711776E+03  0.00000000000E+00 0.  1.
<mgrwt>
<rscale>  0 0.10493904E+04</rscale>
<asrwt>0</asrwt>
<pdfrwt beam="1">  1        1 0.26738475E+00 0.10493904E+04</pdfrwt>
<pdfrwt beam="2">  1       -1 0.24369734E-01 0.10493904E+04</pdfrwt>
<totfact> 0.65767070E+01</totfact>
</mgrwt>
</event>
<event>
 6    1  0.1028026E-006  0.1973656E+04  0.7818608E-02  0.8619037E-01
          2   -1    0    0  501    0  0.00000000000E+00  0.00000000000E+00  0.19606683705E+04  0.19606683705E+04  0.00000000000E+00 0. -1.
         -2   -1    0    0    0  501 -0.00000000000E+00 -0.00000000000E+00 -0.49668235163E+03  0.49668235163E+03  0.00000000000E+00 0.  1.
         23    2    1    2    0    0 -0.48401927302E+03 -0.45999046523E+01  0.18012920721E+04  0.18673751385E+04  0.90227286080E+02 0.  0.
         13    1    3    3    0    0 -0.23731575383E+03  0.26520599389E+02  0.10145104352E+04  0.10422348739E+04  0.00000000000E+00 0.  1.
        -13    1    3    3    0    0 -0.24670351919E+03 -0.31120504041E+02  0.78678163689E+03  0.82514026463E+03  0.00000000000E+00 0. -1.
         22    1    1    2    0    0  0.48401927302E+03  0.45999046523E+01 -0.33730605320E+03  0.58997558365E+03  0.00000000000E+00 0.  1.
<mgrwt>
<rscale>  0 0.19736559E+04</rscale>
<asrwt>0</asrwt>
<pdfrwt beam="1">  1        2 0.30164128E+00 0.19736559E+04</pdfrwt>
<pdfrwt beam="2">  1       -2 0.76412670E-01 0.19736559E+04</pdfrwt>
<totfact> 0.10020591E+01</totfact>
</mgrwt>
</event>
<event>
 6    1  0.1028026E-006  0.4894621E+04  0.7818608E-02  0.7844972E-01
          1   -1    0    0  501    0  0.00000000000E+00  0.00000000000E+00  0.25708982062E+04  0.25708982062E+04  0.00000000000E+00 0. -1.
         -1   -1    0    0    0  501 -0.00000000000E+00 -0.00000000000E+00 -0.23296635642E+04  0.23296635642E+04  0.00000000000E+00 0.  1.
         23    2    1    2    0    0  0.27432449795E+03  0.33745824066E+03 -0.22898019465E+04  0.23324343968E+04  0.89023970007E+02 0.  0.
         11    1    3    3    0    0  0.26578546655E+03  0.28094738025E+03 -0.20006458401E+04  0.20376842548E+04  0.00000000000E+00 0.  1.
        -11    1    3    3    0    0  0.85390314036E+01  0.56510860406E+02 -0.28915610639E+03  0.29475014209E+03  0.00000000000E+00 0. -1.
         22    1    1    2    0    0 -0.27432449795E+03 -0.33745824066E+03  0.25310365884E+04  0.25681273735E+04  0.00000000000E+00 0. -1.
<mgrwt>
<rscale>  0 0.48946207E+04</rscale>
<asrwt>0</asrwt>
<pdfrwt beam="1">  1        1 0.39552280E+00 0.48946207E+04</pdfrwt>
<pdfrwt beam="2">  1       -1 0.35840978E+00 0.48946207E+04</pdfrwt>
<totfact> 0.12026778E-02</totfact>
</mgrwt>
</event>
<event>
 6    1  0.1028026E-006  0.8397500E+03  0.7818608E-02  0.9504198E-01
         -1   -1    0    0    0  501 -0.00000000000E+00  0.00000000000E+00  0.15046038679E+03  0.15046038679E+03  0.00000000000E+00 0.  1.
          1   -1    0    0  501    0  0.00000000000E+00 -0.00000000000E+00 -0.11717038464E+04  0.11717038464E+04  0.00000000000E+00 0. -1.
         23    2    1    2    0    0 -0.22689098929E+03 -0.34281994616E+03 -0.42805820846E+03  0.60044837588E+03  0.91100964632E+02 0.  0.
         11    1    3    3    0    0 -0.19519141563E+03 -0.22060606554E+03 -0.28994216673E+03  0.41331971274E+03  0.00000000000E+00 0. -1.
        -11    1    3    3    0    0 -0.31699573668E+02 -0.12221388062E+03 -0.13811604173E+03  0.18712866314E+03  0.00000000000E+00 0.  1.
         22    1    1    2    0    0  0.22689098929E+03  0.34281994616E+03 -0.59318525117E+03  0.72171585732E+03  0.00000000000E+00 0. -1.
<mgrwt>
<rscale>  0 0.83975000E+03</rscale>
<asrwt>0</asrwt>
<pdfrwt beam="1">  1        1 0.18026213E+00 0.83975000E+03</pdfrwt>
<pdfrwt beam="2">  1       -1 0.23147752E-01 0.83975000E+03</pdfrwt>
<totfact> 0.18076009E+02</totfact>
</mgrwt>
</event>
<event>
 6    1  0.1028026E-006  0.9607446E+03  0.7818608E-02  0.9352679E-01
         -2   -1    0    0    0  501 -0.00000000000E+00  0.00000000000E+00  0.27493059462E+03  0.27493059462E+03  0.00000000000E+00 0.  1.
          2   -1    0    0  501    0  0.00000000000E+00 -0.00000000000E+00 -0.83933022786E+03  0.83933022786E+03  0.00000000000E+00 0. -1.
         23    2    1    2    0    0  0.43621332544E+03 -0.13521620596E+03 -0.44043317781E+03  0.64104504747E+03  0.91607211106E+02 0.  0.
         13    1    3    3    0    0  0.60499411328E+02 -0.50634118226E+02 -0.97070897631E+02  0.12508697721E+03  0.00000000000E+00 0. -1.
        -13    1    3    3    0    0  0.37571391412E+03 -0.84582087735E+02 -0.34336228018E+03  0.51595807027E+03  0.00000000000E+00 0.  1.
         22    1    1    2    0    0 -0.43621332544E+03  0.13521620596E+03 -0.12396645544E+03  0.47321577501E+03  0.00000000000E+00 0.  1.
<mgrwt>
<rscale>  0 0.96074463E+03</rscale>
<asrwt>0</asrwt>
<pdfrwt beam="1">  1        2 0.12912773E+00 0.96074463E+03</pdfrwt>
<pdfrwt beam="2">  1       -2 0.42297015E-01 0.96074463E+03</pdfrwt>
<totfact> 0.17103207E+02</totfact>
</mgrwt>
</event>
<event>
 6    1  0.1028026E-006  0.2433259E+04  0.7818608E-02  0.8427156E-01
          1   -1    0    0  501    0  0.00000000000E+00  0.00000000000E+00  0.23903400440E+04  0.23903400440E+04  0.00000000000E+00 0. -1.
         -1   -1    0    0    0  501 -0.00000000000E+00 -0.00000000000E+00 -0.61923697408E+03  0.61923697408E+03  0.00000000000E+00 0.  1.
         23    2    1    2    0    0  0.10313862537E+04  0.63496836835E+03  0.10045544255E+04  0.15762106109E+04  0.91476023690E+02 0.  0.
         13    1    3    3    0    0  0.53076763396E+03  0.35156264759E+03  0.58016160302E+03  0.86133504635E+03  0.00000000000E+00 0.  1.
        -13    1    3    3    0    0  0.50061861973E+03  0.28340572076E+03  0.42439282248E+03  0.71487556453E+03  0.00000000000E+00 0. -1.
         22    1    1    2    0    0 -0.10313862537E+04 -0.63496836835E+03  0.76654864445E+03  0.14333664072E+04  0.00000000000E+00 0.  1.
<mgrwt>
<rscale>  0 0.24332587E+04</rscale>
<asrwt>0</asrwt>
<pdfrwt beam="1">  1        1 0.36774462E+00 0.24332587E+04</pdfrwt>
<pdfrwt beam="2">  1       -1 0.95267228E-01 0.24332587E+04</pdfrwt>
<totfact> 0.15333657E+00</totfact>
</mgrwt>
</event>
<event>
 6    1  0.1028026E-006  0.2880049E+04  0.7818608E-02  0.8278838E-01
         -1   -1    0    0    0  501 -0.00000000000E+00  0.00000000000E+00  0.14910078504E+04  0.14910078504E+04  0.00000000000E+00 0.  1.
          1   -1    0    0  501    0  0.00000000000E+00 -0.00000000000E+00 -0.13907842289E+04  0.13907842289E+04  0.00000000000E+00 0. -1.
         23    2    1    2    0    0  0.69792061340E+03 -0.97802619542E+03  0.84179577413E+03  0.14698580585E+04  0.90742300892E+02 0.  0.
         13    1    3    3    0    0  0.26078443095E+03 -0.42419749653E+03  0.31326171626E+03  0.58828984214E+03  0.00000000000E+00 0. -1.
        -13    1    3    3    0    0  0.43713618244E+03 -0.55382869889E+03  0.52853405787E+03  0.88156821633E+03  0.00000000000E+00 0.  1.
         22    1    1    2    0    0 -0.69792061340E+03  0.97802619542E+03 -0.74157215263E+03  0.14119340208E+04  0.00000000000E+00 0. -1.
<mgrwt>
<rscale>  0 0.28800488E+04</rscale>
<asrwt>0</asrwt>
<pdfrwt beam="1">  1        1 0.21396680E+00 0.28800488E+04</pdfrwt>
<pdfrwt beam="2">  1       -1 0.22938582E+00 0.28800488E+04</pdfrwt>
<totfact> 0.63890845E-01</totfact>
</mgrwt>
</event>
<event>
 6    1  0.1028026E-006  0.2073068E+04  0.7818608E-02  0.8573201E-01
         -2   -1    0    0    0  501 -0.00000000000E+00  0.00000000000E+00  0.90495099386E+03  0.90495099386E+03  0.00000000000E+00 0.  1.
          2   -1    0    0  501    0  0.00000000000E+00 -0.00000000000E+00 -0.11872499410E+04  0.11872499410E+04  0.00000000000E+00 0. -1.
         23    2    1    2    0    0  0.28128259746E+03 -0.23644013536E+03  0.83468670207E+03  0.91632646121E+03  0.89041875850E+02 0.  0.
         13    1    3    3    0    0  0.25456506695E+03 -0.17097250427E+03  0.65504800588E+03  0.72327232806E+03  0.00000000000E+00 0.  1.
        -13    1    3    3    0    0  0.26717530508E+02 -0.65467631093E+02  0.17963869619E+03  0.19305413315E+03  0.00000000000E+00 0. -1.
         22    1    1    2    0    0 -0.28128259746E+03  0.23644013536E+03 -0.11169856492E+04  0.11758744737E+04  0.00000000000E+00 0. -1.
<mgrwt>
<rscale>  0 0.20730683E+04</rscale>
<asrwt>0</asrwt>
<pdfrwt beam="1">  1        2 0.18265384E+00 0.20730683E+04</pdfrwt>
<pdfrwt beam="2">  1       -2 0.13922323E+00 0.20730683E+04</pdfrwt>
<totfact> 0.64882853E+00</totfact>
</mgrwt>
</event>
<event>
 6    1  0.1153978E-006  0.1820053E+04  0.7818608E-02  0.8695708E-01
         -2   -1    0    0    0  501 -0.00000000000E+00  0.00000000000E+00  0.45327056612E+03  0.45327056612E+03  0.00000000000E+00 0.  1.
          2   -1    0    0  501    0  0.00000000000E+00 -0.00000000000E+00 -0.18270504027E+04  0.18270504027E+04  0.00000000000E+00 0. -1.
         23    2    1    2    0    0  0.51252361489E+03  0.55164188235E+03 -0.52812521069E+02  0.75981320139E+03  0.86820023262E+02 0.  0.
         13    1    3    3    0    0  0.27786975115E+03  0.28024197517E+03  0.13874523249E+02  0.39489196706E+03  0.00000000000E+00 0.  1.
        -13    1    3    3    0    0  0.23465386374E+03  0.27139990718E+03 -0.66687044317E+02  0.36492123433E+03  0.00000000000E+00 0. -1.
         22    1    1    2    0    0 -0.51252361489E+03 -0.55164188235E+03 -0.13209673155E+04  0.15205077674E+04  0.00000000000E+00 0. -1.
<mgrwt>
<rscale>  0 0.18200529E+04</rscale>
<asrwt>0</asrwt>
<pdfrwt beam="1">  1        2 0.28108467E+00 0.18200529E+04</pdfrwt>
<pdfrwt beam="2">  1       -2 0.69733934E-01 0.18200529E+04</pdfrwt>
<totfact> 0.14725551E+01</totfact>
</mgrwt>
</event>
<event>
 6    1  0.1028026E-006  0.1124935E+04  0.7818608E-02  0.9181224E-01
          1   -1    0    0  501    0  0.00000000000E+00  0.00000000000E+00  0.25120159861E+04  0.25120159861E+04  0.00000000000E+00 0. -1.
         -1   -1    0    0    0  501 -0.00000000000E+00 -0.00000000000E+00 -0.12594249430E+03  0.12594249430E+03  0.00000000000E+00 0.  1.
         23    2    1    2    0    0  0.11273208180E+02 -0.41681568722E+03  0.20736890674E+04  0.21169532684E+04  0.86269286736E+02 0.  0.
         13    1    3    3    0    0  0.43822153169E+02 -0.23588559858E+03  0.10701075986E+04  0.10966734561E+04  0.00000000000E+00 0. -1.
        -13    1    3    3    0    0 -0.32548944990E+02 -0.18093008864E+03  0.10035814688E+04  0.10202798123E+04  0.00000000000E+00 0.  1.
         22    1    1    2    0    0 -0.11273208180E+02  0.41681568722E+03  0.31238442433E+03  0.52100521197E+03  0.00000000000E+00 0.  1.
<mgrwt>
<rscale>  0 0.11249348E+04</rscale>
<asrwt>0</asrwt>
<pdfrwt beam="1">  1        1 0.38646396E+00 0.11249348E+04</pdfrwt>
<pdfrwt beam="2">  1       -1 0.19375770E-01 0.11249348E+04</pdfrwt>
<totfact> 0.28755657E+01</totfact>
</mgrwt>
</event>
<event>
 6    1  0.1028026E-006  0.1232271E+04  0.7818608E-02  0.9085070E-01
          2   -1    0    0  501    0  0.00000000000E+00  0.00000000000E+00  0.22576779064E+04  0.22576779064E+04  0.00000000000E+00 0. -1.
         -2   -1    0    0    0  501 -0.00000000000E+00 -0.00000000000E+00 -0.16814740070E+03  0.16814740070E+03  0.00000000000E+00 0.  1.
         23    2    1    2    0    0  0.14506001801E+03 -0.52214114885E+03  0.48700511823E+03  0.73415116423E+03  0.90167392201E+02 0.  0.
         11    1    3    3    0    0  0.44808788149E+02 -0.24290835314E+03  0.16929451699E+03  0.29945438552E+03  0.00000000000E+00 0.  1.
        -11    1    3    3    0    0  0.10025122986E+03 -0.27923279570E+03  0.31771060124E+03  0.43469677871E+03  0.00000000000E+00 0. -1.
         22    1    1    2    0    0 -0.14506001801E+03  0.52214114885E+03  0.16025253875E+04  0.16916741429E+04  0.00000000000E+00 0. -1.
<mgrwt>
<rscale>  0 0.12322705E+04</rscale>
<asrwt>0</asrwt>
<pdfrwt beam="1">  1        2 0.34733504E+00 0.12322705E+04</pdfrwt>
<pdfrwt beam="2">  1       -2 0.25868832E-01 0.12322705E+04</pdfrwt>
<totfact> 0.63799543E+01</totfact>
</mgrwt>
</event>
<event>
 6    1  0.1028026E-006  0.4258871E+04  0.7818608E-02  0.7954267E-01
          2   -1    0    0  501    0  0.00000000000E+00  0.00000000000E+00  0.31605241370E+04  0.31605241370E+04  0.00000000000E+00 0. -1.
         -2   -1    0    0    0  501 -0.00000000000E+00 -0.00000000000E+00 -0.14347292321E+04  0.14347292321E+04  0.00000000000E+00 0.  1.
         23    2    1    2    0    0 -0.50399096258E+03 -0.16739877946E+04 -0.44679111942E+03  0.18066386486E+04  0.89882564083E+02 0.  0.
         13    1    3    3    0    0 -0.15530530689E+02 -0.96194364790E+02 -0.41866508427E+02  0.10605356066E+03  0.00000000000E+00 0.  1.
        -13    1    3    3    0    0 -0.48846043190E+03 -0.15777934298E+04 -0.40492461099E+03  0.17005850879E+04  0.00000000000E+00 0. -1.
         22    1    1    2    0    0  0.50399096258E+03  0.16739877946E+04  0.21725860243E+04  0.27886147206E+04  0.00000000000E+00 0. -1.
<mgrwt>
<rscale>  0 0.42588714E+04</rscale>
<asrwt>0</asrwt>
<pdfrwt beam="1">  1        2 0.48623448E+00 0.42588714E+04</pdfrwt>
<pdfrwt beam="2">  1       -2 0.22072758E+00 0.42588714E+04</pdfrwt>
<totfact> 0.10384777E-01</totfact>
</mgrwt>
</event>
<event>
 6    1  0.1028026E-006  0.3601743E+04  0.7818608E-02  0.8090093E-01
          2   -1    0    0  501    0  0.00000000000E+00  0.00000000000E+00  0.20498137290E+04  0.20498137290E+04  0.00000000000E+00 0. -1.
         -2   -1    0    0    0  501 -0.00000000000E+00 -0.00000000000E+00 -0.15821623162E+04  0.15821623162E+04  0.00000000000E+00 0.  1.
         23    2    1    2    0    0 -0.66365752316E+03  0.69706790625E+03  0.17676477757E+04  0.20144669981E+04  0.84579274996E+02 0.  0.
         11    1    3    3    0    0 -0.42446161481E+03  0.38895874048E+03  0.10818827921E+04  0.12255312889E+04  0.00000000000E+00 0.  1.
        -11    1    3    3    0    0 -0.23919590835E+03  0.30810916577E+03  0.68576498360E+03  0.78893570926E+03  0.00000000000E+00 0. -1.
         22    1    1    2    0    0  0.66365752316E+03 -0.69706790625E+03 -0.12999963628E+04  0.16175090471E+04  0.00000000000E+00 0.  1.
<mgrwt>
<rscale>  0 0.36017429E+04</rscale>
<asrwt>0</asrwt>
<pdfrwt beam="1">  1        2 0.31535596E+00 0.36017429E+04</pdfrwt>
<pdfrwt beam="2">  1       -2 0.24340959E+00 0.36017429E+04</pdfrwt>
<totfact> 0.36043340E-01</totfact>
</mgrwt>
</event>
<event>
 6    1  0.1028026E-006  0.1320659E+04  0.7818608E-02  0.9013341E-01
         -1   -1    0    0    0  501 -0.00000000000E+00  0.00000000000E+00  0.32478648477E+03  0.32478648477E+03  0.00000000000E+00 0.  1.
          1   -1    0    0  501    0  0.00000000000E+00 -0.00000000000E+00 -0.13425286158E+04  0.13425286158E+04  0.00000000000E+00 0. -1.
         23    2    1    2    0    0 -0.26487451352E+03  0.57082255772E+03 -0.75070552819E+03  0.98371766966E+03  0.90248341952E+02 0.  0.
         13    1    3    3    0    0 -0.20924445081E+03  0.36571723508E+03 -0.53380287855E+03  0.68005723978E+03  0.00000000000E+00 0.  1.
        -13    1    3    3    0    0 -0.55630062716E+02  0.20510532264E+03 -0.21690264964E+03  0.30366042987E+03  0.00000000000E+00 0. -1.
         22    1    1    2    0    0  0.26487451352E+03 -0.57082255772E+03 -0.26703660285E+03  0.68359743093E+03  0.00000000000E+00 0.  1.
<mgrwt>
<rscale>  0 0.13206592E+04</rscale>
<asrwt>0</asrwt>
<pdfrwt beam="1">  1        1 0.20654287E+00 0.13206592E+04</pdfrwt>
<pdfrwt beam="2">  1       -1 0.49967151E-01 0.13206592E+04</pdfrwt>
<totfact> 0.33252629E+01</totfact>
</mgrwt>
</event>
<event>
 6    1  0.1028026E-006  0.2543254E+04  0.7818608E-02  0.8387736E-01
          2   -1    0    0  501    0  0.00000000000E+00  0.00000000000E+00  0.18391626471E+04  0.18391626471E+04  0.00000000000E+00 0. -1.
         -2   -1    0    0    0  501 -0.00000000000E+00 -0.00000000000E+00 -0.87922346768E+03  0.87922346768E+03  0.00000000000E+00 0.  1.
         23    2    1    2    0    0 -0.91058237074E+03  0.19419539829E+03  0.14037637514E+04  0.16869539274E+04  0.91590265156E+02 0.  0.
         13    1    3    3    0    0 -0.71010744485E+03  0.12271770470E+03  0.10347362174E+04  0.12609485548E+04  0.00000000000E+00 0. -1.
        -13    1    3    3    0    0 -0.20047492589E+03  0.71477693593E+02  0.36902753399E+03  0.42600537254E+03  0.00000000000E+00 0.  1.
         22    1    1    2    0    0  0.91058237074E+03 -0.19419539829E+03 -0.44382457195E+03  0.10314321874E+04  0.00000000000E+00 0.  1.
<mgrwt>
<rscale>  0 0.25432538E+04</rscale>
<asrwt>0</asrwt>
<pdfrwt beam="1">  1        2 0.28294810E+00 0.25432538E+04</pdfrwt>
<pdfrwt beam="2">  1       -2 0.13526515E+00 0.25432538E+04</pdfrwt>
<totfact> 0.28635064E+00</totfact>
</mgrwt>
</event>
<event>
 6    1  0.1028026E-006  0.3847879E+04  0.7818608E-02  0.8035957E-01
          1   -1    0    0  501    0  0.00000000000E+00  0.00000000000E+00  0.44872458486E+04  0.44872458486E+04  0.00000000000E+00 0. -1.
         -1   -1    0    0    0  501 -0.00000000000E+00 -0.00000000000E+00 -0.82490325352E+03  0.82490325352E+03  0.00000000000E+00 0.  1.
         23    2    1    2    0    0  0.16135073833E+04  0.38867201687E+03  0.31728463384E+04  0.35818085004E+04  0.89029400486E+02 0.  0.
         11    1    3    3    0    0  0.74119926911E+03  0.17050708915E+03  0.15483993791E+04  0.17251056956E+04  0.00000000000E+00 0.  1.
        -11    1    3    3    0    0  0.87230811417E+03  0.21816492771E+03  0.16244469593E+04  0.18567028048E+04  0.00000000000E+00 0. -1.
         22    1    1    2    0    0 -0.16135073833E+04 -0.38867201687E+03  0.48949625671E+03  0.17303406017E+04  0.00000000000E+00 0.  1.
<mgrwt>
<rscale>  0 0.38478793E+04</rscale>
<asrwt>0</asrwt>
<pdfrwt beam="1">  1        1 0.69034550E+00 0.38478793E+04</pdfrwt>
<pdfrwt beam="2">  1       -1 0.12690820E+00 0.38478793E+04</pdfrwt>
<totfact> 0.14100682E-02</totfact>
</mgrwt>
</event>
<event>
 6    1  0.1028026E-006  0.2371170E+04  0.7818608E-02  0.8450377E-01
          2   -1    0    0  501    0  0.00000000000E+00  0.00000000000E+00  0.57392506252E+03  0.57392506252E+03  0.00000000000E+00 0. -1.
         -2   -1    0    0    0  501 -0.00000000000E+00 -0.00000000000E+00 -0.24491212291E+04  0.24491212291E+04  0.00000000000E+00 0.  1.
         23    2    1    2    0    0  0.51957003315E+03  0.22088048024E+03 -0.22656042627E+04  0.23366355637E+04  0.90343105158E+02 0.  0.
         11    1    3    3    0    0  0.17373178183E+03  0.12093643502E+03 -0.85838903535E+03  0.88410411680E+03  0.00000000000E+00 0. -1.
        -11    1    3    3    0    0  0.34583825132E+03  0.99944045219E+02 -0.14072152273E+04  0.14525314469E+04  0.00000000000E+00 0.  1.
         22    1    1    2    0    0 -0.51957003315E+03 -0.22088048024E+03  0.39040809610E+03  0.68641072792E+03  0.00000000000E+00 0. -1.
<mgrwt>
<rscale>  0 0.23711702E+04</rscale>
<asrwt>0</asrwt>
<pdfrwt beam="1">  1        2 0.88296164E-01 0.23711702E+04</pdfrwt>
<pdfrwt beam="2">  1       -2 0.37678788E+00 0.23711702E+04</pdfrwt>
<totfact> 0.49573783E-01</totfact>
</mgrwt>
</event>
<event>
 6    1  0.1028026E-006  0.7588851E+03  0.7818608E-02  0.9621513E-01
          1   -1    0    0  501    0  0.00000000000E+00  0.00000000000E+00  0.88560752189E+02  0.88560752189E+02  0.00000000000E+00 0. -1.
         -1   -1    0    0    0  501 -0.00000000000E+00 -0.00000000000E+00 -0.16257386564E+04  0.16257386564E+04  0.00000000000E+00 0.  1.
         23    2    1    2    0    0  0.12453708279E+03  0.19445379308E+03 -0.14440483801E+04  0.14653117163E+04  0.92417201987E+02 0.  0.
         11    1    3    3    0    0  0.52160656101E+02  0.85355747706E+02 -0.90859282086E+03  0.91408273795E+03  0.00000000000E+00 0. -1.
        -11    1    3    3    0    0  0.72376426688E+02  0.10909804538E+03 -0.53545555925E+03  0.55122897836E+03  0.00000000000E+00 0.  1.
         22    1    1    2    0    0 -0.12453708279E+03 -0.19445379308E+03 -0.93129524058E+02  0.24898769224E+03  0.00000000000E+00 0. -1.
<mgrwt>
<rscale>  0 0.75888507E+03</rscale>
<asrwt>0</asrwt>
<pdfrwt beam="1">  1        1 0.13624731E-01 0.75888507E+03</pdfrwt>
<pdfrwt beam="2">  1       -1 0.25011365E+00 0.75888507E+03</pdfrwt>
<totfact> 0.31509603E+01</totfact>
</mgrwt>
</event>
<event>
 6    1  0.1028026E-006  0.3099589E+04  0.7818608E-02  0.8215851E-01
         -2   -1    0    0    0  501 -0.00000000000E+00  0.00000000000E+00  0.25370480173E+04  0.25370480173E+04  0.00000000000E+00 0.  1.
          2   -1    0    0  501    0  0.00000000000E+00 -0.00000000000E+00 -0.94671578854E+03  0.94671578854E+03  0.00000000000E+00 0. -1.
         23    2    1    2    0    0  0.65030628263E+03  0.33935276257E+02  0.23748167505E+04  0.24642218356E+04  0.92654155440E+02 0.  0.
         11    1    3    3    0    0  0.25535770939E+03 -0.34507728300E+01  0.77701235638E+03  0.81790443791E+03  0.00000000000E+00 0.  1.
        -11    1    3    3    0    0  0.39494857324E+03  0.37386049087E+02  0.15978043941E+04  0.16463173977E+04  0.00000000000E+00 0. -1.
         22    1    1    2    0    0 -0.65030628263E+03 -0.33935276257E+02 -0.78448452173E+03  0.10195419702E+04  0.00000000000E+00 0. -1.
<mgrwt>
<rscale>  0 0.30995893E+04</rscale>
<asrwt>0</asrwt>
<pdfrwt beam="1">  1        2 0.14564858E+00 0.30995893E+04</pdfrwt>
<pdfrwt beam="2">  1       -2 0.39031508E+00 0.30995893E+04</pdfrwt>
<totfact> 0.19873402E-01</totfact>
</mgrwt>
</event>
<event>
 6    1  0.1028026E-006  0.9284707E+03  0.7818608E-02  0.9390675E-01
          2   -1    0    0  501    0  0.00000000000E+00  0.00000000000E+00  0.47519192900E+03  0.47519192900E+03  0.00000000000E+00 0. -1.
         -2   -1    0    0    0  501 -0.00000000000E+00 -0.00000000000E+00 -0.45353140068E+03  0.45353140068E+03  0.00000000000E+00 0.  1.
         23    2    1    2    0    0 -0.23289857361E+03 -0.29135709584E+03  0.27937752179E+03  0.47534848300E+03  0.93667911926E+02 0.  0.
         13    1    3    3    0    0 -0.94343152474E+02 -0.81401782103E+02  0.47890073641E+02  0.13349284513E+03  0.00000000000E+00 0.  1.
        -13    1    3    3    0    0 -0.13855542114E+03 -0.20995531374E+03  0.23148744814E+03  0.34185563787E+03  0.00000000000E+00 0. -1.
         22    1    1    2    0    0  0.23289857361E+03  0.29135709584E+03 -0.25771699346E+03  0.45337484668E+03  0.00000000000E+00 0.  1.
<mgrwt>
<rscale>  0 0.92847070E+03</rscale>
<asrwt>0</asrwt>
<pdfrwt beam="1">  1        2 0.73106451E-01 0.92847070E+03</pdfrwt>
<pdfrwt beam="2">  1       -2 0.69774061E-01 0.92847070E+03</pdfrwt>
<totfact> 0.12263041E+02</totfact>
</mgrwt>
</event>
<event>
 6    1  0.1028026E-006  0.1643820E+04  0.7818608E-02  0.8794071E-01
          2   -1    0    0  501    0  0.00000000000E+00  0.00000000000E+00  0.33933714805E+03  0.33933714805E+03  0.00000000000E+00 0. -1.
         -2   -1    0    0    0  501 -0.00000000000E+00 -0.00000000000E+00 -0.19907512683E+04  0.19907512683E+04  0.00000000000E+00 0.  1.
         23    2    1    2    0    0  0.17793421671E+03  0.70827786158E+03 -0.30155166065E+03  0.79534193092E+03  0.91199059028E+02 0.  0.
         11    1    3    3    0    0  0.33259108068E+02  0.28413488927E+03 -0.90952310742E+02  0.30018515353E+03  0.00000000000E+00 0. -1.
        -11    1    3    3    0    0  0.14467510864E+03  0.42414297231E+03 -0.21059934990E+03  0.49515677740E+03  0.00000000000E+00 0.  1.
         22    1    1    2    0    0 -0.17793421671E+03 -0.70827786158E+03 -0.13498624596E+04  0.15347464854E+04  0.00000000000E+00 0.  1.
<mgrwt>
<rscale>  0 0.16438198E+04</rscale>
<asrwt>0</asrwt>
<pdfrwt beam="1">  1        2 0.52205716E-01 0.16438198E+04</pdfrwt>
<pdfrwt beam="2">  1       -2 0.30626942E+00 0.16438198E+04</pdfrwt>
<totfact> 0.26676507E+00</totfact>
</mgrwt>
</event>
<event>
 6    1  0.1028026E-006  0.2000582E+04  0.7818608E-02  0.8606349E-01
         -2   -1    0    0    0  501 -0.00000000000E+00  0.00000000000E+00  0.27394055848E+03  0.27394055848E+03  0.00000000000E+00 0.  1.
          2   -1    0    0  501    0  0.00000000000E+00 -0.00000000000E+00 -0.36525513397E+04  0.36525513397E+04  0.00000000000E+00 0. -1.
         23    2    1    2    0    0  0.59822484916E+03  0.35848007331E+02 -0.12576372129E+03  0.61889880878E+03  0.89784030511E+02 0.  0.
         13    1    3    3    0    0  0.42056155831E+03  0.46397261174E+02 -0.12401797059E+03  0.44091403607E+03  0.00000000000E+00 0. -1.
        -13    1    3    3    0    0  0.17766329085E+03 -0.10549253843E+02 -0.17457507043E+01  0.17798477271E+03  0.00000000000E+00 0.  1.
         22    1    1    2    0    0 -0.59822484916E+03 -0.35848007331E+02 -0.32528470599E+04  0.33075930894E+04  0.00000000000E+00 0. -1.
<mgrwt>
<rscale>  0 0.20005819E+04</rscale>
<asrwt>0</asrwt>
<pdfrwt beam="1">  1        2 0.56193095E+00 0.20005819E+04</pdfrwt>
<pdfrwt beam="2">  1       -2 0.42144703E-01 0.20005819E+04</pdfrwt>
<totfact> 0.31571540E+00</totfact>
</mgrwt>
</event>
<event>
 6    1  0.1028026E-006  0.2688338E+04  0.7818608E-02  0.8338799E-01
         -1   -1    0    0    0  501 -0.00000000000E+00  0.00000000000E+00  0.16042753869E+04  0.16042753869E+04  0.00000000000E+00 0.  1.
          1   -1    0    0  501    0  0.00000000000E+00 -0.00000000000E+00 -0.11262345049E+04  0.11262345049E+04  0.00000000000E+00 0. -1.
         23    2    1    2    0    0 -0.43231978090E+02 -0.13417357127E+04  0.25344720745E+03  0.13694198707E+04  0.94612730393E+02 0.  0.
         11    1    3    3    0    0  0.27265710882E+02 -0.41595070038E+03  0.94998879948E+02  0.42753150917E+03  0.00000000000E+00 0.  1.
        -11    1    3    3    0    0 -0.70497688972E+02 -0.92578501231E+03  0.15844832750E+03  0.94188836157E+03  0.00000000000E+00 0. -1.
         22    1    1    2    0    0  0.43231978090E+02  0.13417357127E+04  0.22459367457E+03  0.13610900210E+04  0.00000000000E+00 0.  1.
<mgrwt>
<rscale>  0 0.26883380E+04</rscale>
<asrwt>0</asrwt>
<pdfrwt beam="1">  1        1 0.17326685E+00 0.26883380E+04</pdfrwt>
<pdfrwt beam="2">  1       -1 0.24681160E+00 0.26883380E+04</pdfrwt>
<totfact> 0.77463354E-01</totfact>
</mgrwt>
</event>
<event>
 6    1  0.1028026E-006  0.1051070E+04  0.7818608E-02  0.9254240E-01
          2   -1    0    0  501    0  0.00000000000E+00  0.00000000000E+00  0.90564793633E+03  0.90564793633E+03  0.00000000000E+00 0. -1.
         -2   -1    0    0    0  501 -0.00000000000E+00 -0.00000000000E+00 -0.30496081419E+03  0.30496081419E+03  0.00000000000E+00 0.  1.
         23    2    1    2    0    0 -0.32763234777E+03  0.18680640396E+03 -0.11255983018E+03  0.40378733108E+03  0.90193710992E+02 0.  0.
         11    1    3    3    0    0 -0.92111767324E+02  0.83546458979E+02 -0.71268185763E+02  0.14333088568E+03  0.00000000000E+00 0. -1.
        -11    1    3    3    0    0 -0.23552058045E+03  0.10325994498E+03 -0.41291644418E+02  0.26045644540E+03  0.00000000000E+00 0.  1.
         22    1    1    2    0    0  0.32763234777E+03 -0.18680640396E+03  0.71324695232E+03  0.80682141943E+03  0.00000000000E+00 0. -1.
<mgrwt>
<rscale>  0 0.10510702E+04</rscale>
<asrwt>0</asrwt>
<pdfrwt beam="1">  1        2 0.13933045E+00 0.10510702E+04</pdfrwt>
<pdfrwt beam="2">  1       -2 0.46917049E-01 0.10510702E+04</pdfrwt>
<totfact> 0.12458204E+02</totfact>
</mgrwt>
</event>
<event>
 6    1  0.1043566E-006  0.2908490E+04  0.7818608E-02  0.8270356E-01
         -1   -1    0    0    0  501 -0.00000000000E+00  0.00000000000E+00  0.97633294596E+03  0.97633294596E+03  0.00000000000E+00 0.  1.
          1   -1    0    0  501    0  0.00000000000E+00 -0.00000000000E+00 -0.21660934837E+04  0.21660934837E+04  0.00000000000E+00 0. -1.
         23    2    1    2    0    0  0.82377172758E+03  0.35074125639E+03 -0.18316356590E+04  0.20407808608E+04  0.90983770007E+02 0.  0.
         11    1    3    3    0    0  0.14781091809E+03  0.50386331400E+02 -0.25069272136E+03  0.29535350081E+03  0.00000000000E+00 0.  1.
        -11    1    3    3    0    0  0.67596080949E+03  0.30035492499E+03 -0.15809429377E+04  0.17454273600E+04  0.00000000000E+00 0. -1.
         22    1    1    2    0    0 -0.82377172758E+03 -0.35074125639E+03  0.64187512126E+03  0.11016455689E+04  0.00000000000E+00 0.  1.
<mgrwt>
<rscale>  0 0.29084899E+04</rscale>
<asrwt>0</asrwt>
<pdfrwt beam="1">  1        1 0.33324515E+00 0.29084899E+04</pdfrwt>
<pdfrwt beam="2">  1       -1 0.15020507E+00 0.29084899E+04</pdfrwt>
<totfact> 0.68496358E-01</totfact>
</mgrwt>
</event>
<event>
 6    1  0.1028026E-006  0.6516177E+04  0.7818608E-02  0.7629501E-01
          2   -1    0    0  501    0  0.00000000000E+00  0.00000000000E+00  0.42040084904E+04  0.42040084904E+04  0.00000000000E+00 0. -1.
         -2   -1    0    0    0  501 -0.00000000000E+00 -0.00000000000E+00 -0.25250045481E+04  0.25250045481E+04  0.00000000000E+00 0.  1.
         23    2    1    2    0    0  0.17262318956E+04  0.13081303179E+04  0.33521908857E+04  0.39921104036E+04  0.93167880380E+02 0.  0.
         13    1    3    3    0    0  0.69530095348E+03  0.52873757618E+03  0.12684109389E+04  0.15400886826E+04  0.00000000000E+00 0.  1.
        -13    1    3    3    0    0  0.10309309421E+04  0.77939274171E+03  0.20837799468E+04  0.24520217210E+04  0.00000000000E+00 0. -1.
         22    1    1    2    0    0 -0.17262318956E+04 -0.13081303179E+04 -0.16731869434E+04  0.27369026350E+04  0.00000000000E+00 0.  1.
<mgrwt>
<rscale>  0 0.65161770E+04</rscale>
<asrwt>0</asrwt>
<pdfrwt beam="1">  1        2 0.64677054E+00 0.65161770E+04</pdfrwt>
<pdfrwt beam="2">  1       -2 0.38846224E+00 0.65161770E+04</pdfrwt>
<totfact> 0.13078802E-03</totfact>
</mgrwt>
</event>
<event>
 6    1  0.1028026E-006  0.2187128E+04  0.7818608E-02  0.8523805E-01
         -2   -1    0    0    0  501 -0.00000000000E+00  0.00000000000E+00  0.12396434671E+04  0.12396434671E+04  0.00000000000E+00 0.  1.
          2   -1    0    0  501    0  0.00000000000E+00 -0.00000000000E+00 -0.96469847061E+03  0.96469847061E+03  0.00000000000E+00 0. -1.
         23    2    1    2    0    0 -0.40609729631E+03  0.50539973741E+03  0.10228697665E+04  0.12145261113E+04  0.92017427739E+02 0.  0.
         11    1    3    3    0    0 -0.21790096097E+03  0.24062422796E+03  0.43366763578E+03  0.54170883895E+03  0.00000000000E+00 0.  1.
        -11    1    3    3    0    0 -0.18819633535E+03  0.26477550945E+03  0.58920213076E+03  0.67281727232E+03  0.00000000000E+00 0. -1.
         22    1    1    2    0    0  0.40609729631E+03 -0.50539973741E+03 -0.74792477003E+03  0.98981582645E+03  0.00000000000E+00 0. -1.
<mgrwt>
<rscale>  0 0.21871279E+04</rscale>
<asrwt>0</asrwt>
<pdfrwt beam="1">  1        2 0.14841515E+00 0.21871279E+04</pdfrwt>
<pdfrwt beam="2">  1       -2 0.19071438E+00 0.21871279E+04</pdfrwt>
<totfact> 0.37235704E+00</totfact>
</mgrwt>
</event>
<event>
 6    1  0.1028026E-006  0.1343283E+04  0.7818608E-02  0.8995929E-01
         -2   -1    0    0    0  501 -0.00000000000E+00  0.00000000000E+00  0.20318241429E+03  0.20318241429E+03  0.00000000000E+00 0.  1.
          2   -1    0    0  501    0  0.00000000000E+00 -0.00000000000E+00 -0.22201833212E+04  0.22201833212E+04  0.00000000000E+00 0. -1.
         23    2    1    2    0    0 -0.10782083893E+03 -0.63053617140E+03 -0.13644731739E+04  0.15095858719E+04  0.88663778314E+02 0.  0.
         11    1    3    3    0    0 -0.28874572501E+02 -0.36319472492E+03 -0.84072176701E+03  0.91627356104E+03  0.00000000000E+00 0. -1.
        -11    1    3    3    0    0 -0.78946266425E+02 -0.26734144648E+03 -0.52375140693E+03  0.59331231089E+03  0.00000000000E+00 0.  1.
         22    1    1    2    0    0  0.10782083893E+03  0.63053617140E+03 -0.65252773299E+03  0.91377986357E+03  0.00000000000E+00 0.  1.
<mgrwt>
<rscale>  0 0.13432829E+04</rscale>
<asrwt>0</asrwt>
<pdfrwt beam="1">  1        2 0.34156663E+00 0.13432829E+04</pdfrwt>
<pdfrwt beam="2">  1       -2 0.31258836E-01 0.13432829E+04</pdfrwt>
<totfact> 0.46764169E+01</totfact>
</mgrwt>
</event>
<event>
 6    1  0.1028026E-006  0.2936874E+04  0.7818608E-02  0.8261990E-01
         -2   -1    0    0    0  501 -0.00000000000E+00  0.00000000000E+00  0.35349323635E+04  0.35349323635E+04  0.00000000000E+00 0.  1.
          2   -1    0    0  501    0  0.00000000000E+00 -0.00000000000E+00 -0.60999964338E+03  0.60999964338E+03  0.00000000000E+00 0. -1.
         23    2    1    2    0    0 -0.43757604235E+03  0.13015708213E+04  0.73561186712E+03  0.15606167798E+04  0.94024031012E+02 0.  0.
         13    1    3    3    0    0 -0.26109839619E+03  0.86072111805E+03  0.44050866594E+03  0.10015293807E+04  0.00000000000E+00 0.  1.
        -13    1    3    3    0    0 -0.17647764617E+03  0.44084970328E+03  0.29510320118E+03  0.55908739909E+03  0.00000000000E+00 0. -1.
         22    1    1    2    0    0  0.43757604235E+03 -0.13015708213E+04  0.21893208530E+04  0.25843152271E+04  0.00000000000E+00 0.  1.
<mgrwt>
<rscale>  0 0.29368742E+04</rscale>
<asrwt>0</asrwt>
<pdfrwt beam="1">  1        2 0.93846101E-01 0.29368742E+04</pdfrwt>
<pdfrwt beam="2">  1       -2 0.54383574E+00 0.29368742E+04</pdfrwt>
<totfact> 0.38172443E-02</totfact>
</mgrwt>
</event>
<event>
 6    1  0.1028026E-006  0.1125638E+04  0.7818608E-02  0.9180557E-01
         -3   -1    0    0    0  501 -0.00000000000E+00  0.00000000000E+00  0.70089016332E+03  0.70089016332E+03  0.00000000000E+00 0.  1.
          3   -1    0    0  501    0  0.00000000000E+00 -0.00000000000E+00 -0.45194714716E+03  0.45194714716E+03  0.00000000000E+00 0. -1.
         23    2    1    2    0    0  0.15405807188E+03  0.17057764181E+03  0.64718245229E+03  0.69302727374E+03  0.92795766047E+02 0.  0.
         11    1    3    3    0    0  0.69879064368E+02  0.10684927701E+03  0.46751377818E+03  0.48463283466E+03  0.00000000000E+00 0. -1.
        -11    1    3    3    0    0  0.84179007510E+02  0.63728364801E+02  0.17966867411E+03  0.20839443909E+03  0.00000000000E+00 0.  1.
         22    1    1    2    0    0 -0.15405807188E+03 -0.17057764181E+03 -0.39823943613E+03  0.45981003674E+03  0.00000000000E+00 0. -1.
<mgrwt>
<rscale>  0 0.11256381E+04</rscale>
<asrwt>0</asrwt>
<pdfrwt beam="1">  1        3 0.69530330E-01 0.11256381E+04</pdfrwt>
<pdfrwt beam="2">  1       -3 0.10782926E+00 0.11256381E+04</pdfrwt>
<totfact> 0.37632695E+00</totfact>
</mgrwt>
</event>
<event>
 6    1  0.1028026E-006  0.3151107E+04  0.7818608E-02  0.8201850E-01
         -2   -1    0    0    0  501 -0.00000000000E+00  0.00000000000E+00  0.20462581401E+04  0.20462581401E+04  0.00000000000E+00 0.  1.
          2   -1    0    0  501    0  0.00000000000E+00 -0.00000000000E+00 -0.12131261036E+04  0.12131261036E+04  0.00000000000E+00 0. -1.
         23    2    1    2    0    0  0.37258136443E+03 -0.14555332901E+04  0.90291003171E+03  0.17553021315E+04  0.91896767178E+02 0.  0.
         11    1    3    3    0    0  0.13820225726E+03 -0.71927529119E+03  0.45274754678E+03  0.86106744773E+03  0.00000000000E+00 0.  1.
        -11    1    3    3    0    0  0.23437910717E+03 -0.73625799888E+03  0.45016248493E+03  0.89423468375E+03  0.00000000000E+00 0. -1.
         22    1    1    2    0    0 -0.37258136443E+03  0.14555332901E+04 -0.69777995277E+02  0.15040821122E+04  0.00000000000E+00 0. -1.
<mgrwt>
<rscale>  0 0.31511072E+04</rscale>
<asrwt>0</asrwt>
<pdfrwt beam="1">  1        2 0.18663479E+00 0.31511072E+04</pdfrwt>
<pdfrwt beam="2">  1       -2 0.31480894E+00 0.31511072E+04</pdfrwt>
<totfact> 0.40532912E-01</totfact>
</mgrwt>
</event>
<event>
 6    1  0.1028026E-006  0.2826581E+04  0.7818608E-02  0.8295063E-01
         -1   -1    0    0    0  501 -0.00000000000E+00  0.00000000000E+00  0.15335118349E+04  0.15335118349E+04  0.00000000000E+00 0.  1.
          1   -1    0    0  501    0  0.00000000000E+00 -0.00000000000E+00 -0.13024941599E+04  0.13024941599E+04  0.00000000000E+00 0. -1.
         23    2    1    2    0    0 -0.86787603449E+03 -0.99463782928E+03 -0.38873855965E+03  0.13777155529E+04  0.66852481595E+02 0.  0.
         11    1    3    3    0    0 -0.21951657262E+03 -0.20977821244E+03 -0.95470883134E+02  0.31829092604E+03  0.00000000000E+00 0.  1.
        -11    1    3    3    0    0 -0.64835946186E+03 -0.78485961683E+03 -0.29326767652E+03  0.10594246269E+04  0.00000000000E+00 0. -1.
         22    1    1    2    0    0  0.86787603449E+03  0.99463782928E+03  0.61975623463E+03  0.14582904419E+04  0.00000000000E+00 0.  1.
<mgrwt>
<rscale>  0 0.28265811E+04</rscale>
<asrwt>0</asrwt>
<pdfrwt beam="1">  1        1 0.20038372E+00 0.28265811E+04</pdfrwt>
<pdfrwt beam="2">  1       -1 0.23592490E+00 0.28265811E+04</pdfrwt>
<totfact> 0.67107351E-01</totfact>
</mgrwt>
</event>
<event>
 6    1  0.1028026E-006  0.3281226E+04  0.7818608E-02  0.8167689E-01
         -1   -1    0    0    0  501 -0.00000000000E+00  0.00000000000E+00  0.25031933367E+04  0.25031933367E+04  0.00000000000E+00 0.  1.
          1   -1    0    0  501    0  0.00000000000E+00 -0.00000000000E+00 -0.10752710916E+04  0.10752710916E+04  0.00000000000E+00 0. -1.
         23    2    1    2    0    0 -0.18788569093E+03  0.59664506057E+03 -0.93810130064E+03  0.11311488008E+04  0.90427861550E+02 0.  0.
         13    1    3    3    0    0 -0.12200270029E+03  0.43679260495E+03 -0.74289994581E+03  0.87038656245E+03  0.00000000000E+00 0.  1.
        -13    1    3    3    0    0 -0.65882990637E+02  0.15985245562E+03 -0.19520135483E+03  0.26076223835E+03  0.00000000000E+00 0. -1.
         22    1    1    2    0    0  0.18788569093E+03 -0.59664506057E+03  0.23660235457E+04  0.24473156274E+04  0.00000000000E+00 0.  1.
<mgrwt>
<rscale>  0 0.32812263E+04</rscale>
<asrwt>0</asrwt>
<pdfrwt beam="1">  1        1 0.16542632E+00 0.32812263E+04</pdfrwt>
<pdfrwt beam="2">  1       -1 0.38510667E+00 0.32812263E+04</pdfrwt>
<totfact> 0.99310101E-02</totfact>
</mgrwt>
</event>
<event>
 6    1  0.1028026E-006  0.1220258E+04  0.7818608E-02  0.9095307E-01
          1   -1    0    0  501    0  0.00000000000E+00  0.00000000000E+00  0.88442647651E+03  0.88442647651E+03  0.00000000000E+00 0. -1.
         -1   -1    0    0    0  501 -0.00000000000E+00 -0.00000000000E+00 -0.42090260778E+03  0.42090260778E+03  0.00000000000E+00 0.  1.
         23    2    1    2    0    0 -0.44094660016E+03  0.26719321226E+03  0.57515578485E+03  0.77779917844E+03  0.91330543955E+02 0.  0.
         11    1    3    3    0    0 -0.67263851142E+02  0.36846943357E+02  0.14033998715E+03  0.15992946852E+03  0.00000000000E+00 0.  1.
        -11    1    3    3    0    0 -0.37368274902E+03  0.23034626890E+03  0.43481579769E+03  0.61786970992E+03  0.00000000000E+00 0. -1.
         22    1    1    2    0    0  0.44094660016E+03 -0.26719321226E+03 -0.11163191612E+03  0.52752990585E+03  0.00000000000E+00 0.  1.
<mgrwt>
<rscale>  0 0.12202580E+04</rscale>
<asrwt>0</asrwt>
<pdfrwt beam="1">  1        1 0.13606561E+00 0.12202580E+04</pdfrwt>
<pdfrwt beam="2">  1       -1 0.64754248E-01 0.12202580E+04</pdfrwt>
<totfact> 0.44798775E+01</totfact>
</mgrwt>
</event>
<event>
 6    1  0.1028026E-006  0.1553068E+04  0.7818608E-02  0.8849911E-01
         -1   -1    0    0    0  501 -0.00000000000E+00  0.00000000000E+00  0.13371283995E+04  0.13371283995E+04  0.00000000000E+00 0.  1.
          1   -1    0    0  501    0  0.00000000000E+00 -0.00000000000E+00 -0.45097004790E+03  0.45097004790E+03  0.00000000000E+00 0. -1.
         23    2    1    2    0    0 -0.16367951397E+03 -0.10500714809E+03  0.13069824084E+04  0.13245141819E+04  0.91199329937E+02 0.  0.
         11    1    3    3    0    0 -0.88501535910E+02 -0.21256748536E+02  0.80168996773E+03  0.80684024167E+03  0.00000000000E+00 0. -1.
        -11    1    3    3    0    0 -0.75177978060E+02 -0.83750399556E+02  0.50529244064E+03  0.51767394022E+03  0.00000000000E+00 0.  1.
         22    1    1    2    0    0  0.16367951397E+03  0.10500714809E+03 -0.42082405679E+03  0.46358426550E+03  0.00000000000E+00 0. -1.
<mgrwt>
<rscale>  0 0.15530677E+04</rscale>
<asrwt>0</asrwt>
<pdfrwt beam="1">  1        1 0.69380008E-01 0.15530677E+04</pdfrwt>
<pdfrwt beam="2">  1       -1 0.20571206E+00 0.15530677E+04</pdfrwt>
<totfact> 0.67607683E+00</totfact>
</mgrwt>
</event>
<event>
 6    1  0.2061221E-006  0.4010696E+04  0.7818608E-02  0.8002392E-01
         -2   -1    0    0    0  501 -0.00000000000E+00  0.00000000000E+00  0.18723302884E+04  0.18723302884E+04  0.00000000000E+00 0.  1.
          2   -1    0    0  501    0  0.00000000000E+00 -0.00000000000E+00 -0.21478159140E+04  0.21478159140E+04  0.00000000000E+00 0. -1.
         23    2    1    2    0    0 -0.29233702784E+03  0.78803375326E+03  0.16858757867E+04  0.18862772458E+04  0.96987347382E+02 0.  0.
         11    1    3    3    0    0 -0.19255258217E+03  0.44706195288E+03  0.88227083887E+03  0.10076421586E+04  0.00000000000E+00 0. -1.
        -11    1    3    3    0    0 -0.99784445676E+02  0.34097180038E+03  0.80360494784E+03  0.87863508719E+03  0.00000000000E+00 0.  1.
         22    1    1    2    0    0  0.29233702784E+03 -0.78803375326E+03 -0.19613614123E+04  0.21338689566E+04  0.00000000000E+00 0. -1.
<mgrwt>
<rscale>  0 0.40106961E+04</rscale>
<asrwt>0</asrwt>
<pdfrwt beam="1">  1        2 0.33043321E+00 0.40106961E+04</pdfrwt>
<pdfrwt beam="2">  1       -2 0.28805082E+00 0.40106961E+04</pdfrwt>
<totfact> 0.16376591E-01</totfact>
</mgrwt>
</event>
<event>
 6    1  0.1028026E-006  0.2975592E+04  0.7818608E-02  0.8250735E-01
         -2   -1    0    0    0  501 -0.00000000000E+00  0.00000000000E+00  0.61738910523E+03  0.61738910523E+03  0.00000000000E+00 0.  1.
          2   -1    0    0  501    0  0.00000000000E+00 -0.00000000000E+00 -0.35853201689E+04  0.35853201689E+04  0.00000000000E+00 0. -1.
         23    2    1    2    0    0  0.62225753350E+03 -0.47888861804E+03 -0.32678824797E+04  0.33621680209E+04  0.92623717894E+02 0.  0.
         13    1    3    3    0    0  0.38027730869E+03 -0.25654802156E+03 -0.20530813557E+04  0.21037040600E+04  0.00000000000E+00 0.  1.
        -13    1    3    3    0    0  0.24198022481E+03 -0.22234059648E+03 -0.12148011240E+04  0.12584639609E+04  0.00000000000E+00 0. -1.
         22    1    1    2    0    0 -0.62225753350E+03  0.47888861804E+03  0.29995141600E+03  0.84054125327E+03  0.00000000000E+00 0.  1.
<mgrwt>
<rscale>  0 0.29755925E+04</rscale>
<asrwt>0</asrwt>
<pdfrwt beam="1">  1        2 0.55158772E+00 0.29755925E+04</pdfrwt>
<pdfrwt beam="2">  1       -2 0.94982940E-01 0.29755925E+04</pdfrwt>
<totfact> 0.56530188E-01</totfact>
</mgrwt>
</event>
<event>
 6    1  0.1028026E-006  0.4981840E+03  0.7818608E-02  0.1014254E+00
         -2   -1    0    0    0  501 -0.00000000000E+00  0.00000000000E+00  0.42739990675E+03  0.42739990675E+03  0.00000000000E+00 0.  1.
          2   -1    0    0  501    0  0.00000000000E+00 -0.00000000000E+00 -0.14517277834E+03  0.14517277834E+03  0.00000000000E+00 0. -1.
         23    2    1    2    0    0  0.35428025053E+02  0.82323836970E+02 -0.11114454574E+03  0.16912054032E+03  0.90643742304E+02 0.  0.
         13    1    3    3    0    0  0.46150464974E+02  0.40572033577E+02 -0.14263887030E+02  0.63082595057E+02  0.00000000000E+00 0.  1.
        -13    1    3    3    0    0 -0.10722439922E+02  0.41751803393E+02 -0.96880658707E+02  0.10603794526E+03  0.00000000000E+00 0. -1.
         22    1    1    2    0    0 -0.35428025053E+02 -0.82323836970E+02  0.39337167415E+03  0.40345214477E+03  0.00000000000E+00 0.  1.
<mgrwt>
<rscale>  0 0.49818403E+03</rscale>
<asrwt>0</asrwt>
<pdfrwt beam="1">  1        2 0.22334274E-01 0.49818403E+03</pdfrwt>
<pdfrwt beam="2">  1       -2 0.65753831E-01 0.49818403E+03</pdfrwt>
<totfact> 0.53600415E+02</totfact>
</mgrwt>
</event>
<event>
 6    1  0.1028026E-006  0.1669577E+04  0.7818608E-02  0.8778909E-01
         -2   -1    0    0    0  501 -0.00000000000E+00  0.00000000000E+00  0.17673723343E+04  0.17673723343E+04  0.00000000000E+00 0.  1.
          2   -1    0    0  501    0  0.00000000000E+00 -0.00000000000E+00 -0.39429810918E+03  0.39429810918E+03  0.00000000000E+00 0. -1.
         23    2    1    2    0    0  0.22896526507E+03  0.64157479987E+03  0.13076356912E+04  0.14773273145E+04  0.92420651623E+02 0.  0.
         11    1    3    3    0    0  0.20545937153E+03  0.46196008387E+03  0.93242967621E+03  0.10606817494E+04  0.00000000000E+00 0.  1.
        -11    1    3    3    0    0  0.23505893545E+02  0.17961471600E+03  0.37520601504E+03  0.41664556515E+03  0.00000000000E+00 0. -1.
         22    1    1    2    0    0 -0.22896526507E+03 -0.64157479987E+03  0.65438533912E+02  0.68434312896E+03  0.00000000000E+00 0. -1.
<mgrwt>
<rscale>  0 0.16695767E+04</rscale>
<asrwt>0</asrwt>
<pdfrwt beam="1">  1        2 0.60661249E-01 0.16695767E+04</pdfrwt>
<pdfrwt beam="2">  1       -2 0.27190343E+00 0.16695767E+04</pdfrwt>
<totfact> 0.36412028E+00</totfact>
</mgrwt>
</event>
<event>
 6    1  0.1028026E-006  0.3151394E+04  0.7818608E-02  0.8201773E-01
         -1   -1    0    0    0  501 -0.00000000000E+00  0.00000000000E+00  0.13942508948E+04  0.13942508948E+04  0.00000000000E+00 0.  1.
          1   -1    0    0  501    0  0.00000000000E+00 -0.00000000000E+00 -0.17807566575E+04  0.17807566575E+04  0.00000000000E+00 0. -1.
         23    2    1    2    0    0  0.88574192712E+03 -0.87138822878E+02  0.11149991020E+04  0.14295423437E+04  0.90754498807E+02 0.  0.
         13    1    3    3    0    0  0.26821353024E+03  0.23957040000E+01  0.28816435091E+03  0.39367871461E+03  0.00000000000E+00 0. -1.
        -13    1    3    3    0    0  0.61752839688E+03 -0.89534526878E+02  0.82683475111E+03  0.10358636291E+04  0.00000000000E+00 0.  1.
         22    1    1    2    0    0 -0.88574192712E+03  0.87138822878E+02 -0.15015048647E+04  0.17454652087E+04  0.00000000000E+00 0. -1.
<mgrwt>
<rscale>  0 0.31513943E+04</rscale>
<asrwt>0</asrwt>
<pdfrwt beam="1">  1        1 0.27396256E+00 0.31513943E+04</pdfrwt>
<pdfrwt beam="2">  1       -1 0.21450014E+00 0.31513943E+04</pdfrwt>
<totfact> 0.42276135E-01</totfact>
</mgrwt>
</event>
<event>
 6    1  0.1028026E-006  0.1681524E+04  0.7818608E-02  0.8771973E-01
         -1   -1    0    0    0  501 -0.00000000000E+00  0.00000000000E+00  0.72606900042E+03  0.72606900042E+03  0.00000000000E+00 0.  1.
          1   -1    0    0  501    0  0.00000000000E+00 -0.00000000000E+00 -0.97357221049E+03  0.97357221049E+03  0.00000000000E+00 0. -1.
         23    2    1    2    0    0 -0.30770120257E+03  0.41706462911E+03 -0.79010723651E+03  0.94927992165E+03  0.90774388215E+02 0.  0.
         11    1    3    3    0    0 -0.39055305675E+02  0.10128559286E+03 -0.20798297978E+03  0.23460820127E+03  0.00000000000E+00 0. -1.
        -11    1    3    3    0    0 -0.26864589689E+03  0.31577903625E+03 -0.58212425672E+03  0.71467172039E+03  0.00000000000E+00 0.  1.
         22    1    1    2    0    0  0.30770120257E+03 -0.41706462911E+03  0.54260402643E+03  0.75036128926E+03  0.00000000000E+00 0.  1.
<mgrwt>
<rscale>  0 0.16815238E+04</rscale>
<asrwt>0</asrwt>
<pdfrwt beam="1">  1        1 0.14978034E+00 0.16815238E+04</pdfrwt>
<pdfrwt beam="2">  1       -1 0.11170292E+00 0.16815238E+04</pdfrwt>
<totfact> 0.11135026E+01</totfact>
</mgrwt>
</event>
<event>
 6    1  0.1028026E-006  0.3064772E+03  0.7818608E-02  0.1082047E+00
          1   -1    0    0  501    0  0.00000000000E+00  0.00000000000E+00  0.10982085370E+04  0.10982085370E+04  0.00000000000E+00 0. -1.
         -1   -1    0    0    0  501 -0.00000000000E+00 -0.00000000000E+00 -0.21382164324E+02  0.21382164324E+02  0.00000000000E+00 0.  1.
         23    2    1    2    0    0 -0.35280642849E+02 -0.11536583093E+03  0.84213199068E+03  0.85570540115E+03  0.92149037536E+02 0.  0.
         11    1    3    3    0    0 -0.44669328696E+01  0.93542564799E+01  0.23019535132E+03  0.23042863401E+03  0.00000000000E+00 0. -1.
        -11    1    3    3    0    0 -0.30813709979E+02 -0.12472008741E+03  0.61193663937E+03  0.62527676714E+03  0.00000000000E+00 0.  1.
         22    1    1    2    0    0  0.35280642849E+02  0.11536583093E+03  0.23469438197E+03  0.26388530015E+03  0.00000000000E+00 0.  1.
<mgrwt>
<rscale>  0 0.30647724E+03</rscale>
<asrwt>0</asrwt>
<pdfrwt beam="1">  1        1 0.16895512E+00 0.30647724E+03</pdfrwt>
<pdfrwt beam="2">  1       -1 0.32895646E-02 0.30647724E+03</pdfrwt>
<totfact> 0.44611724E+03</totfact>
</mgrwt>
</event>
<event>
 6    1  0.1028026E-006  0.7733476E+03  0.7818608E-02  0.9599417E-01
         -1   -1    0    0    0  501 -0.00000000000E+00  0.00000000000E+00  0.54584053661E+03  0.54584053661E+03  0.00000000000E+00 0.  1.
          1   -1    0    0  501    0  0.00000000000E+00 -0.00000000000E+00 -0.27392000394E+03  0.27392000394E+03  0.00000000000E+00 0. -1.
         23    2    1    2    0    0 -0.26345216010E+03  0.20349469578E+03  0.33452363369E+03  0.48103309831E+03  0.93110946171E+02 0.  0.
         11    1    3    3    0    0 -0.11354674693E+03  0.49845093946E+02  0.77808384921E+02  0.14639515665E+03  0.00000000000E+00 0. -1.
        -11    1    3    3    0    0 -0.14990541318E+03  0.15364960184E+03  0.25671524877E+03  0.33463794165E+03  0.00000000000E+00 0.  1.
         22    1    1    2    0    0  0.26345216010E+03 -0.20349469578E+03 -0.62603101018E+02  0.33872744225E+03  0.00000000000E+00 0. -1.
<mgrwt>
<rscale>  0 0.77334764E+03</rscale>
<asrwt>0</asrwt>
<pdfrwt beam="1">  1        1 0.42141539E-01 0.77334764E+03</pdfrwt>
<pdfrwt beam="2">  1       -1 0.83975467E-01 0.77334764E+03</pdfrwt>
<totfact> 0.14062276E+02</totfact>
</mgrwt>
</event>
<event>
 6    1  0.1028026E-006  0.2360045E+04  0.7818608E-02  0.8454615E-01
         -2   -1    0    0    0  501 -0.00000000000E+00  0.00000000000E+00  0.77967609840E+03  0.77967609840E+03  0.00000000000E+00 0.  1.
          2   -1    0    0  501    0  0.00000000000E+00 -0.00000000000E+00 -0.17859382806E+04  0.17859382806E+04  0.00000000000E+00 0. -1.
         23    2    1    2    0    0 -0.18557880675E+03  0.50731317756E+03  0.63498385925E+03  0.83775595823E+03  0.82609868613E+02 0.  0.
         11    1    3    3    0    0 -0.11596404179E+03  0.32222891467E+03  0.46160516476E+03  0.57476817986E+03  0.00000000000E+00 0. -1.
        -11    1    3    3    0    0 -0.69614764968E+02  0.18508426289E+03  0.17337869449E+03  0.26298777837E+03  0.00000000000E+00 0.  1.
         22    1    1    2    0    0  0.18557880675E+03 -0.50731317756E+03 -0.16412460415E+04  0.17278584208E+04  0.00000000000E+00 0. -1.
<mgrwt>
<rscale>  0 0.23600452E+04</rscale>
<asrwt>0</asrwt>
<pdfrwt beam="1">  1        2 0.27475973E+00 0.23600452E+04</pdfrwt>
<pdfrwt beam="2">  1       -2 0.11995017E+00 0.23600452E+04</pdfrwt>
<totfact> 0.42133974E+00</totfact>
</mgrwt>
</event>
<event>
 6    1  0.1028026E-006  0.2952286E+04  0.7818608E-02  0.8257489E-01
          2   -1    0    0  501    0  0.00000000000E+00  0.00000000000E+00  0.23592989487E+04  0.23592989487E+04  0.00000000000E+00 0. -1.
         -2   -1    0    0    0  501 -0.00000000000E+00 -0.00000000000E+00 -0.92357856173E+03  0.92357856173E+03  0.00000000000E+00 0.  1.
         23    2    1    2    0    0  0.67142958272E+03  0.65373164450E+03 -0.54767888577E+03  0.10892377445E+04  0.91126036905E+02 0.  0.
         11    1    3    3    0    0  0.56105955960E+03  0.57933738646E+03 -0.44481997975E+03  0.92102358882E+03  0.00000000000E+00 0. -1.
        -11    1    3    3    0    0  0.11037002311E+03  0.74394258034E+02 -0.10285890601E+03  0.16821415569E+03  0.00000000000E+00 0.  1.
         22    1    1    2    0    0 -0.67142958272E+03 -0.65373164450E+03  0.19833992728E+04  0.21936397660E+04  0.00000000000E+00 0. -1.
<mgrwt>
<rscale>  0 0.29522858E+04</rscale>
<asrwt>0</asrwt>
<pdfrwt beam="1">  1        2 0.36296907E+00 0.29522858E+04</pdfrwt>
<pdfrwt beam="2">  1       -2 0.14208901E+00 0.29522858E+04</pdfrwt>
<totfact> 0.12454651E+00</totfact>
</mgrwt>
</event>
<event>
 6    1  0.1028026E-006  0.2319782E+04  0.7818608E-02  0.8470162E-01
         -2   -1    0    0    0  501 -0.00000000000E+00  0.00000000000E+00  0.15032921484E+04  0.15032921484E+04  0.00000000000E+00 0.  1.
          2   -1    0    0  501    0  0.00000000000E+00 -0.00000000000E+00 -0.89493370180E+03  0.89493370180E+03  0.00000000000E+00 0. -1.
         23    2    1    2    0    0 -0.90438478407E+03 -0.97322927036E+02 -0.43632749066E+03  0.10130355033E+04  0.92063358448E+02 0.  0.
         13    1    3    3    0    0 -0.23622242226E+03 -0.41713386377E+02 -0.74604576332E+02  0.25121083215E+03  0.00000000000E+00 0. -1.
        -13    1    3    3    0    0 -0.66816236181E+03 -0.55609540659E+02 -0.36172291433E+03  0.76182467110E+03  0.00000000000E+00 0.  1.
         22    1    1    2    0    0  0.90438478407E+03  0.97322927036E+02  0.10446859373E+04  0.13851903470E+04  0.00000000000E+00 0.  1.
<mgrwt>
<rscale>  0 0.23197817E+04</rscale>
<asrwt>0</asrwt>
<pdfrwt beam="1">  1        2 0.13768211E+00 0.23197817E+04</pdfrwt>
<pdfrwt beam="2">  1       -2 0.23127571E+00 0.23197817E+04</pdfrwt>
<totfact> 0.22449750E+00</totfact>
</mgrwt>
</event>
<event>
 6    1  0.1028026E-006  0.1372647E+04  0.7818608E-02  0.8973859E-01
         -1   -1    0    0    0  501 -0.00000000000E+00  0.00000000000E+00  0.22249098379E+04  0.22249098379E+04  0.00000000000E+00 0.  1.
          1   -1    0    0  501    0  0.00000000000E+00 -0.00000000000E+00 -0.21171194898E+03  0.21171194898E+03  0.00000000000E+00 0. -1.
         23    2    1    2    0    0  0.53976026880E+03  0.40503413730E+03  0.12036944989E+04  0.13827292219E+04  0.87554863862E+02 0.  0.
         11    1    3    3    0    0  0.25489259063E+03  0.21294411809E+03  0.67346605018E+03  0.75091407693E+03  0.00000000000E+00 0. -1.
        -11    1    3    3    0    0  0.28486767817E+03  0.19209001921E+03  0.53022844870E+03  0.63181514492E+03  0.00000000000E+00 0.  1.
         22    1    1    2    0    0 -0.53976026880E+03 -0.40503413730E+03  0.80950339009E+03  0.10538925651E+04  0.00000000000E+00 0. -1.
<mgrwt>
<rscale>  0 0.13726471E+04</rscale>
<asrwt>0</asrwt>
<pdfrwt beam="1">  1        1 0.32571071E-01 0.13726471E+04</pdfrwt>
<pdfrwt beam="2">  1       -1 0.34229380E+00 0.13726471E+04</pdfrwt>
<totfact> 0.23740492E+00</totfact>
</mgrwt>
</event>
<event>
 6    1  0.1028026E-006  0.1142520E+04  0.7818608E-02  0.9164712E-01
          2   -1    0    0  501    0  0.00000000000E+00  0.00000000000E+00  0.23345088534E+04  0.23345088534E+04  0.00000000000E+00 0. -1.
         -2   -1    0    0    0  501 -0.00000000000E+00 -0.00000000000E+00 -0.13978861349E+03  0.13978861349E+03  0.00000000000E+00 0.  1.
         23    2    1    2    0    0 -0.39389801344E+03  0.39503966237E+03  0.13281774990E+04  0.14437110796E+04  0.95048580741E+02 0.  0.
         13    1    3    3    0    0 -0.15448967981E+03  0.14467494580E+03  0.62443800886E+03  0.65933354838E+03  0.00000000000E+00 0. -1.
        -13    1    3    3    0    0 -0.23940833363E+03  0.25036471657E+03  0.70373949011E+03  0.78437753120E+03  0.00000000000E+00 0.  1.
         22    1    1    2    0    0  0.39389801344E+03 -0.39503966237E+03  0.86654274097E+03  0.10305863873E+04  0.00000000000E+00 0.  1.
<mgrwt>
<rscale>  0 0.11425196E+04</rscale>
<asrwt>0</asrwt>
<pdfrwt beam="1">  1        2 0.35915518E+00 0.11425196E+04</pdfrwt>
<pdfrwt beam="2">  1       -2 0.21505942E-01 0.11425196E+04</pdfrwt>
<totfact> 0.81111715E+01</totfact>
</mgrwt>
</event>
<event>
 6    1  0.1028026E-006  0.7766464E+03  0.7818608E-02  0.9594449E-01
          2   -1    0    0  501    0  0.00000000000E+00  0.00000000000E+00  0.42278075734E+03  0.42278075734E+03  0.00000000000E+00 0. -1.
         -2   -1    0    0    0  501 -0.00000000000E+00 -0.00000000000E+00 -0.35667401702E+03  0.35667401702E+03  0.00000000000E+00 0.  1.
         23    2    1    2    0    0 -0.15337322065E+03  0.20795520780E+03 -0.25004967372E+03  0.37113677157E+03  0.91918173508E+02 0.  0.
         11    1    3    3    0    0 -0.48761757231E+02  0.42310132573E+02 -0.17156612865E+02  0.66799742901E+02  0.00000000000E+00 0. -1.
        -11    1    3    3    0    0 -0.10461146342E+03  0.16564507522E+03 -0.23289306085E+03  0.30433702867E+03  0.00000000000E+00 0.  1.
         22    1    1    2    0    0  0.15337322065E+03 -0.20795520780E+03  0.31615641404E+03  0.40831800279E+03  0.00000000000E+00 0. -1.
<mgrwt>
<rscale>  0 0.77664641E+03</rscale>
<asrwt>0</asrwt>
<pdfrwt beam="1">  1        2 0.65043193E-01 0.77664641E+03</pdfrwt>
<pdfrwt beam="2">  1       -2 0.54872926E-01 0.77664641E+03</pdfrwt>
<totfact> 0.23518524E+02</totfact>
</mgrwt>
</event>
<event>
 6    1  0.1028026E-006  0.2030898E+04  0.7818608E-02  0.8592310E-01
         -2   -1    0    0    0  501 -0.00000000000E+00  0.00000000000E+00  0.44892986327E+03  0.44892986327E+03  0.00000000000E+00 0.  1.
          2   -1    0    0  501    0  0.00000000000E+00 -0.00000000000E+00 -0.22968761287E+04  0.22968761287E+04  0.00000000000E+00 0. -1.
         23    2    1    2    0    0  0.10102442007E+04 -0.68664448482E+02 -0.86977496997E+03  0.13379255870E+04  0.90709571966E+02 0.  0.
         13    1    3    3    0    0  0.25789531324E+03 -0.25605385340E+02 -0.27525983146E+03  0.37806560696E+03  0.00000000000E+00 0. -1.
        -13    1    3    3    0    0  0.75234888744E+03 -0.43059063141E+02 -0.59451513851E+03  0.95985998003E+03  0.00000000000E+00 0.  1.
         22    1    1    2    0    0 -0.10102442007E+04  0.68664448482E+02 -0.97817129551E+03  0.14078804050E+04  0.00000000000E+00 0. -1.
<mgrwt>
<rscale>  0 0.20308976E+04</rscale>
<asrwt>0</asrwt>
<pdfrwt beam="1">  1        2 0.35336556E+00 0.20308976E+04</pdfrwt>
<pdfrwt beam="2">  1       -2 0.69066133E-01 0.20308976E+04</pdfrwt>
<totfact> 0.80763870E+00</totfact>
</mgrwt>
</event>
<event>
 6    1  0.1028026E-006  0.2839734E+04  0.7818608E-02  0.8291038E-01
          2   -1    0    0  501    0  0.00000000000E+00  0.00000000000E+00  0.26640060017E+04  0.26640060017E+04  0.00000000000E+00 0. -1.
         -2   -1    0    0    0  501 -0.00000000000E+00 -0.00000000000E+00 -0.75676347285E+03  0.75676347285E+03  0.00000000000E+00 0.  1.
         23    2    1    2    0    0 -0.11582912964E+04  0.61347878168E+03  0.30084252874E+03  0.13474832176E+04  0.84910846333E+02 0.  0.
         13    1    3    3    0    0 -0.68599272239E+03  0.40421492380E+03  0.16152858806E+03  0.81244520095E+03  0.00000000000E+00 0.  1.
        -13    1    3    3    0    0 -0.47229857399E+03  0.20926385788E+03  0.13931394068E+03  0.53503801667E+03  0.00000000000E+00 0. -1.
         22    1    1    2    0    0  0.11582912964E+04 -0.61347878168E+03  0.16064000001E+04  0.20732862570E+04  0.00000000000E+00 0.  1.
<mgrwt>
<rscale>  0 0.28397341E+04</rscale>
<asrwt>0</asrwt>
<pdfrwt beam="1">  1        2 0.40984707E+00 0.28397341E+04</pdfrwt>
<pdfrwt beam="2">  1       -2 0.11642515E+00 0.28397341E+04</pdfrwt>
<totfact> 0.13838877E+00</totfact>
</mgrwt>
</event>
<event>
 6    1  0.1028026E-006  0.1686176E+04  0.7818608E-02  0.8769288E-01
         -1   -1    0    0    0  501 -0.00000000000E+00  0.00000000000E+00  0.61930661473E+03  0.61930661473E+03  0.00000000000E+00 0.  1.
          1   -1    0    0  501    0  0.00000000000E+00 -0.00000000000E+00 -0.11477303481E+04  0.11477303481E+04  0.00000000000E+00 0. -1.
         23    2    1    2    0    0 -0.14271122499E+03  0.81658146934E+03 -0.41115492313E+03  0.92982506392E+03  0.91402893068E+02 0.  0.
         11    1    3    3    0    0 -0.42640838373E+02  0.48843344498E+03 -0.25953456107E+03  0.55474648233E+03  0.00000000000E+00 0. -1.
        -11    1    3    3    0    0 -0.10007038662E+03  0.32814802436E+03 -0.15162036206E+03  0.37507858158E+03  0.00000000000E+00 0.  1.
         22    1    1    2    0    0  0.14271122499E+03 -0.81658146934E+03 -0.11726881021E+03  0.83721189890E+03  0.00000000000E+00 0. -1.
<mgrwt>
<rscale>  0 0.16861756E+04</rscale>
<asrwt>0</asrwt>
<pdfrwt beam="1">  1        1 0.17657390E+00 0.16861756E+04</pdfrwt>
<pdfrwt beam="2">  1       -1 0.95277941E-01 0.16861756E+04</pdfrwt>
<totfact> 0.11836187E+01</totfact>
</mgrwt>
</event>
<event>
 6    1  0.1028026E-006  0.2811837E+04  0.7818608E-02  0.8299603E-01
          1   -1    0    0  501    0  0.00000000000E+00  0.00000000000E+00  0.21798596592E+04  0.21798596592E+04  0.00000000000E+00 0. -1.
         -1   -1    0    0    0  501 -0.00000000000E+00 -0.00000000000E+00 -0.90675861504E+03  0.90675861504E+03  0.00000000000E+00 0.  1.
         23    2    1    2    0    0 -0.46241578504E+03  0.13073632886E+04  0.87934832549E+03  0.16450676056E+04  0.99833975801E+02 0.  0.
         13    1    3    3    0    0 -0.17652496231E+03  0.62817239969E+03  0.44268550610E+03  0.78849989433E+03  0.00000000000E+00 0.  1.
        -13    1    3    3    0    0 -0.28589082273E+03  0.67919088895E+03  0.43666281939E+03  0.85656771127E+03  0.00000000000E+00 0. -1.
         22    1    1    2    0    0  0.46241578504E+03 -0.13073632886E+04  0.39375271864E+03  0.14415506686E+04  0.00000000000E+00 0. -1.
<mgrwt>
<rscale>  0 0.28118368E+04</rscale>
<asrwt>0</asrwt>
<pdfrwt beam="1">  1        1 0.33536302E+00 0.28118368E+04</pdfrwt>
<pdfrwt beam="2">  1       -1 0.13950133E+00 0.28118368E+04</pdfrwt>
<totfact> 0.82259851E-01</totfact>
</mgrwt>
</event>
<event>
 6    1  0.1028026E-006  0.1107757E+04  0.7818608E-02  0.9197664E-01
         -2   -1    0    0    0  501 -0.00000000000E+00  0.00000000000E+00  0.13246710459E+03  0.13246710459E+03  0.00000000000E+00 0.  1.
          2   -1    0    0  501    0  0.00000000000E+00 -0.00000000000E+00 -0.23159071975E+04  0.23159071975E+04  0.00000000000E+00 0. -1.
         23    2    1    2    0    0  0.47704492685E+03  0.35190767724E+02 -0.16995796190E+04  0.17679838182E+04  0.91573182114E+02 0.  0.
         11    1    3    3    0    0  0.21772793076E+03  0.15813007192E+02 -0.61266284511E+03  0.65039316172E+03  0.00000000000E+00 0.  1.
        -11    1    3    3    0    0  0.25931699609E+03  0.19377760532E+02 -0.10869167739E+04  0.11175906565E+04  0.00000000000E+00 0. -1.
         22    1    1    2    0    0 -0.47704492685E+03 -0.35190767724E+02 -0.48386047391E+03  0.68039048390E+03  0.00000000000E+00 0.  1.
<mgrwt>
<rscale>  0 0.11077572E+04</rscale>
<asrwt>0</asrwt>
<pdfrwt beam="1">  1        2 0.35629339E+00 0.11077572E+04</pdfrwt>
<pdfrwt beam="2">  1       -2 0.20379556E-01 0.11077572E+04</pdfrwt>
<totfact> 0.91649796E+01</totfact>
</mgrwt>
</event>
<event>
 6    1  0.1028026E-006  0.2666106E+04  0.7818608E-02  0.8346087E-01
         -2   -1    0    0    0  501 -0.00000000000E+00  0.00000000000E+00  0.17400136732E+04  0.17400136732E+04  0.00000000000E+00 0.  1.
          2   -1    0    0  501    0  0.00000000000E+00 -0.00000000000E+00 -0.10212740972E+04  0.10212740972E+04  0.00000000000E+00 0. -1.
         23    2    1    2    0    0  0.92333574434E+03 -0.94672952207E+03  0.52069248190E+03  0.14241010458E+04  0.89985794541E+02 0.  0.
         13    1    3    3    0    0  0.85784538874E+03 -0.88897451205E+03  0.50846163634E+03  0.13359295003E+04  0.00000000000E+00 0. -1.
        -13    1    3    3    0    0  0.65490355599E+02 -0.57755010016E+02  0.12230845557E+02  0.88171545532E+02  0.00000000000E+00 0.  1.
         22    1    1    2    0    0 -0.92333574434E+03  0.94672952207E+03  0.19804709411E+03  0.13371867245E+04  0.00000000000E+00 0. -1.
<mgrwt>
<rscale>  0 0.26661064E+04</rscale>
<asrwt>0</asrwt>
<pdfrwt beam="1">  1        2 0.15711909E+00 0.26661064E+04</pdfrwt>
<pdfrwt beam="2">  1       -2 0.26769441E+00 0.26661064E+04</pdfrwt>
<totfact> 0.10750862E+00</totfact>
</mgrwt>
</event>
<event>
 6    1  0.1028026E-006  0.9952356E+03  0.7818608E-02  0.9313786E-01
         -1   -1    0    0    0  501 -0.00000000000E+00  0.00000000000E+00  0.38809790185E+03  0.38809790185E+03  0.00000000000E+00 0.  1.
          1   -1    0    0  501    0  0.00000000000E+00 -0.00000000000E+00 -0.63804383791E+03  0.63804383791E+03  0.00000000000E+00 0. -1.
         23    2    1    2    0    0  0.36875262944E+02  0.20337793945E+03  0.33611843639E+03  0.40469679456E+03  0.89897280126E+02 0.  0.
         13    1    3    3    0    0  0.13587675064E+02  0.18244030960E+03  0.32200747015E+03  0.37034835266E+03  0.00000000000E+00 0.  1.
        -13    1    3    3    0    0  0.23287587880E+02  0.20937629841E+02  0.14110966231E+02  0.34348441895E+02  0.00000000000E+00 0. -1.
         22    1    1    2    0    0 -0.36875262944E+02 -0.20337793945E+03 -0.58606437245E+03  0.62144494521E+03  0.00000000000E+00 0. -1.
<mgrwt>
<rscale>  0 0.99523560E+03</rscale>
<asrwt>0</asrwt>
<pdfrwt beam="1">  1        1 0.98160590E-01 0.99523560E+03</pdfrwt>
<pdfrwt beam="2">  1       -1 0.59707370E-01 0.99523560E+03</pdfrwt>
<totfact> 0.89299855E+01</totfact>
</mgrwt>
</event>
<event>
 6    1  0.1028026E-006  0.2006553E+04  0.7818608E-02  0.8603563E-01
          3   -1    0    0  501    0  0.00000000000E+00  0.00000000000E+00  0.10827021232E+04  0.10827021232E+04  0.00000000000E+00 0. -1.
         -3   -1    0    0    0  501 -0.00000000000E+00 -0.00000000000E+00 -0.92967777520E+03  0.92967777520E+03  0.00000000000E+00 0.  1.
         23    2    1    2    0    0  0.29713997532E+03  0.11201305186E+03 -0.87561704866E+03  0.93583811490E+03  0.90822203639E+02 0.  0.
         11    1    3    3    0    0  0.12563522076E+03  0.81292189028E+02 -0.31437038873E+03  0.34816859422E+03  0.00000000000E+00 0. -1.
        -11    1    3    3    0    0  0.17150475456E+03  0.30720862829E+02 -0.56124665993E+03  0.58766952068E+03  0.00000000000E+00 0.  1.
         22    1    1    2    0    0 -0.29713997532E+03 -0.11201305186E+03  0.10286413967E+04  0.10765417835E+04  0.00000000000E+00 0. -1.
<mgrwt>
<rscale>  0 0.20065534E+04</rscale>
<asrwt>0</asrwt>
<pdfrwt beam="1">  1        3 0.16656956E+00 0.20065534E+04</pdfrwt>
<pdfrwt beam="2">  1       -3 0.14302735E+00 0.20065534E+04</pdfrwt>
<totfact> 0.21709276E-01</totfact>
</mgrwt>
</event>
<event>
 6    1  0.1028026E-006  0.4069546E+04  0.7818608E-02  0.7990662E-01
         -2   -1    0    0    0  501 -0.00000000000E+00  0.00000000000E+00  0.12689170021E+04  0.12689170021E+04  0.00000000000E+00 0.  1.
          2   -1    0    0  501    0  0.00000000000E+00 -0.00000000000E+00 -0.32628616339E+04  0.32628616339E+04  0.00000000000E+00 0. -1.
         23    2    1    2    0    0  0.10324525697E+03  0.12078823384E+04 -0.28158990733E+04  0.30671119742E+04  0.90823703680E+02 0.  0.
         11    1    3    3    0    0  0.63796987632E+02  0.40481804032E+03 -0.10318039417E+04  0.11102103744E+04  0.00000000000E+00 0.  1.
        -11    1    3    3    0    0  0.39448269333E+02  0.80306429806E+03 -0.17840951316E+04  0.19569015998E+04  0.00000000000E+00 0. -1.
         22    1    1    2    0    0 -0.10324525697E+03 -0.12078823384E+04  0.82195444138E+03  0.14646666618E+04  0.00000000000E+00 0.  1.
<mgrwt>
<rscale>  0 0.40695457E+04</rscale>
<asrwt>0</asrwt>
<pdfrwt beam="1">  1        2 0.50197871E+00 0.40695457E+04</pdfrwt>
<pdfrwt beam="2">  1       -2 0.19521800E+00 0.40695457E+04</pdfrwt>
<totfact> 0.13214610E-01</totfact>
</mgrwt>
</event>
<event>
 6    1  0.1028026E-006  0.3185015E+04  0.7818608E-02  0.8192786E-01
          2   -1    0    0  501    0  0.00000000000E+00  0.00000000000E+00  0.11234434830E+04  0.11234434830E+04  0.00000000000E+00 0. -1.
         -2   -1    0    0    0  501 -0.00000000000E+00 -0.00000000000E+00 -0.22574173760E+04  0.22574173760E+04  0.00000000000E+00 0.  1.
         23    2    1    2    0    0 -0.64709262232E+03  0.84917890494E+03  0.68517745533E+03  0.12715611405E+04  0.86982263921E+02 0.  0.
         11    1    3    3    0    0 -0.39207569772E+03  0.46849974989E+03  0.35241707238E+03  0.70527523797E+03  0.00000000000E+00 0.  1.
        -11    1    3    3    0    0 -0.25501692459E+03  0.38067915505E+03  0.33276038295E+03  0.56628590251E+03  0.00000000000E+00 0. -1.
         22    1    1    2    0    0  0.64709262232E+03 -0.84917890494E+03 -0.18191513483E+04  0.21092997185E+04  0.00000000000E+00 0.  1.
<mgrwt>
<rscale>  0 0.31850154E+04</rscale>
<asrwt>0</asrwt>
<pdfrwt beam="1">  1        2 0.17283746E+00 0.31850154E+04</pdfrwt>
<pdfrwt beam="2">  1       -2 0.34729498E+00 0.31850154E+04</pdfrwt>
<totfact> 0.28739265E-01</totfact>
</mgrwt>
</event>
<event>
 6    1  0.1028026E-006  0.2950622E+04  0.7818608E-02  0.8257973E-01
         -1   -1    0    0    0  501 -0.00000000000E+00  0.00000000000E+00  0.93547238113E+03  0.93547238113E+03  0.00000000000E+00 0.  1.
          1   -1    0    0  501    0  0.00000000000E+00 -0.00000000000E+00 -0.23266768079E+04  0.23266768079E+04  0.00000000000E+00 0. -1.
         23    2    1    2    0    0  0.34056283725E+03  0.14267646806E+04 -0.85492590596E+03  0.17003440950E+04  0.92904450429E+02 0.  0.
         13    1    3    3    0    0  0.16594024173E+03  0.70301825909E+03 -0.47471760410E+03  0.86436545516E+03  0.00000000000E+00 0. -1.
        -13    1    3    3    0    0  0.17462259552E+03  0.72374642147E+03 -0.38020830186E+03  0.83597863984E+03  0.00000000000E+00 0.  1.
         22    1    1    2    0    0 -0.34056283725E+03 -0.14267646806E+04 -0.53627852079E+03  0.15618050940E+04  0.00000000000E+00 0. -1.
<mgrwt>
<rscale>  0 0.29506216E+04</rscale>
<asrwt>0</asrwt>
<pdfrwt beam="1">  1        1 0.35795028E+00 0.29506216E+04</pdfrwt>
<pdfrwt beam="2">  1       -1 0.14391883E+00 0.29506216E+04</pdfrwt>
<totfact> 0.59421403E-01</totfact>
</mgrwt>
</event>
<event>
 6    1  0.1028026E-006  0.2182416E+04  0.7818608E-02  0.8525783E-01
          1   -1    0    0  501    0  0.00000000000E+00  0.00000000000E+00  0.12503916336E+04  0.12503916336E+04  0.00000000000E+00 0. -1.
         -1   -1    0    0    0  501 -0.00000000000E+00 -0.00000000000E+00 -0.95228993462E+03  0.95228993462E+03  0.00000000000E+00 0.  1.
         23    2    1    2    0    0 -0.10121748433E+04 -0.37959401720E+03  0.14015004621E+02  0.10849630074E+04  0.91426339660E+02 0.  0.
         11    1    3    3    0    0 -0.24172854926E+03 -0.10146410928E+03  0.41322887381E+02  0.26539637906E+03  0.00000000000E+00 0.  1.
        -11    1    3    3    0    0 -0.77044629408E+03 -0.27812990792E+03 -0.27307882761E+02  0.81956662829E+03  0.00000000000E+00 0. -1.
         22    1    1    2    0    0  0.10121748433E+04  0.37959401720E+03  0.28408669435E+03  0.11177185609E+04  0.00000000000E+00 0.  1.
<mgrwt>
<rscale>  0 0.21824164E+04</rscale>
<asrwt>0</asrwt>
<pdfrwt beam="1">  1        1 0.19236794E+00 0.21824164E+04</pdfrwt>
<pdfrwt beam="2">  1       -1 0.14650614E+00 0.21824164E+04</pdfrwt>
<totfact> 0.33333763E+00</totfact>
</mgrwt>
</event>
<event>
 6    1  0.1028026E-006  0.2537879E+04  0.7818608E-02  0.8389614E-01
          2   -1    0    0  501    0  0.00000000000E+00  0.00000000000E+00  0.14217865435E+04  0.14217865435E+04  0.00000000000E+00 0. -1.
         -2   -1    0    0    0  501 -0.00000000000E+00 -0.00000000000E+00 -0.11325240917E+04  0.11325240917E+04  0.00000000000E+00 0.  1.
         23    2    1    2    0    0  0.19767327580E+03  0.94834778820E+03 -0.67756679620E+03  0.11856627454E+04  0.90890765119E+02 0.  0.
         13    1    3    3    0    0  0.26255468737E+02  0.21429190432E+03 -0.11155967902E+03  0.24301426271E+03  0.00000000000E+00 0. -1.
        -13    1    3    3    0    0  0.17141780707E+03  0.73405588388E+03 -0.56600711719E+03  0.94264848270E+03  0.00000000000E+00 0.  1.
         22    1    1    2    0    0 -0.19767327580E+03 -0.94834778820E+03  0.96682924805E+03  0.13686478898E+04  0.00000000000E+00 0. -1.
<mgrwt>
<rscale>  0 0.25378790E+04</rscale>
<asrwt>0</asrwt>
<pdfrwt beam="1">  1        2 0.21873639E+00 0.25378790E+04</pdfrwt>
<pdfrwt beam="2">  1       -2 0.17423448E+00 0.25378790E+04</pdfrwt>
<totfact> 0.24873222E+00</totfact>
</mgrwt>
</event>
<event>
 6    1  0.1028026E-006  0.2037584E+04  0.7818608E-02  0.8589248E-01
         -2   -1    0    0    0  501 -0.00000000000E+00  0.00000000000E+00  0.16055201550E+04  0.16055201550E+04  0.00000000000E+00 0.  1.
          2   -1    0    0  501    0  0.00000000000E+00 -0.00000000000E+00 -0.64648017784E+03  0.64648017784E+03  0.00000000000E+00 0. -1.
         23    2    1    2    0    0  0.16142075393E+02 -0.33131732950E+03  0.15427434851E+04  0.15806274672E+04  0.91071345015E+02 0.  0.
         13    1    3    3    0    0  0.13643613423E+02 -0.37911717097E+02  0.35054146433E+03  0.35284949298E+03  0.00000000000E+00 0. -1.
        -13    1    3    3    0    0  0.24984619700E+01 -0.29340561240E+03  0.11922020208E+04  0.12277779742E+04  0.00000000000E+00 0.  1.
         22    1    1    2    0    0 -0.16142075393E+02  0.33131732950E+03 -0.58370350798E+03  0.67137286559E+03  0.00000000000E+00 0. -1.
<mgrwt>
<rscale>  0 0.20375838E+04</rscale>
<asrwt>0</asrwt>
<pdfrwt beam="1">  1        2 0.99458489E-01 0.20375838E+04</pdfrwt>
<pdfrwt beam="2">  1       -2 0.24700310E+00 0.20375838E+04</pdfrwt>
<totfact> 0.28106559E+00</totfact>
</mgrwt>
</event>
<event>
 6    1  0.1028026E-006  0.8483288E+03  0.7818608E-02  0.9492583E-01
         -2   -1    0    0    0  501 -0.00000000000E+00  0.00000000000E+00  0.71528869870E+03  0.71528869870E+03  0.00000000000E+00 0.  1.
          2   -1    0    0  501    0  0.00000000000E+00 -0.00000000000E+00 -0.25152845089E+03  0.25152845089E+03  0.00000000000E+00 0. -1.
         23    2    1    2    0    0  0.15305517761E+03 -0.34066195937E+03  0.45205377114E+03  0.59316825082E+03  0.89551682408E+02 0.  0.
         13    1    3    3    0    0  0.33635929041E+02 -0.12311961059E+03  0.21468914841E+03  0.24976237643E+03  0.00000000000E+00 0. -1.
        -13    1    3    3    0    0  0.11941924857E+03 -0.21754234878E+03  0.23736462273E+03  0.34340587439E+03  0.00000000000E+00 0.  1.
         22    1    1    2    0    0 -0.15305517761E+03  0.34066195937E+03  0.11706476674E+02  0.37364889877E+03  0.00000000000E+00 0. -1.
<mgrwt>
<rscale>  0 0.84832885E+03</rscale>
<asrwt>0</asrwt>
<pdfrwt beam="1">  1        2 0.38696685E-01 0.84832885E+03</pdfrwt>
<pdfrwt beam="2">  1       -2 0.11004441E+00 0.84832885E+03</pdfrwt>
<totfact> 0.88194603E+01</totfact>
</mgrwt>
</event>
<event>
 6    1  0.1028026E-006  0.1036791E+04  0.7818608E-02  0.9269089E-01
          1   -1    0    0  501    0  0.00000000000E+00  0.00000000000E+00  0.86057264707E+03  0.86057264707E+03  0.00000000000E+00 0. -1.
         -1   -1    0    0    0  501 -0.00000000000E+00 -0.00000000000E+00 -0.31227317177E+03  0.31227317177E+03  0.00000000000E+00 0.  1.
         23    2    1    2    0    0 -0.28219627851E+03  0.27597365922E+03 -0.96529424193E+02  0.41680315482E+03  0.92794072774E+02 0.  0.
         13    1    3    3    0    0 -0.18548801974E+03  0.21551971099E+03 -0.10335404722E+03  0.30255017826E+03  0.00000000000E+00 0.  1.
        -13    1    3    3    0    0 -0.96708258775E+02  0.60453948239E+02  0.68246230306E+01  0.11425297656E+03  0.00000000000E+00 0. -1.
         22    1    1    2    0    0  0.28219627851E+03 -0.27597365922E+03  0.64482889949E+03  0.75604266402E+03  0.00000000000E+00 0. -1.
<mgrwt>
<rscale>  0 0.10367907E+04</rscale>
<asrwt>0</asrwt>
<pdfrwt beam="1">  1        1 0.13239579E+00 0.10367907E+04</pdfrwt>
<pdfrwt beam="2">  1       -1 0.48042027E-01 0.10367907E+04</pdfrwt>
<totfact> 0.84965012E+01</totfact>
</mgrwt>
</event>
<event>
 6    1  0.1028026E-006  0.7529222E+03  0.7818608E-02  0.9630777E-01
          1   -1    0    0  501    0  0.00000000000E+00  0.00000000000E+00  0.20384653765E+03  0.20384653765E+03  0.00000000000E+00 0. -1.
         -1   -1    0    0    0  501 -0.00000000000E+00 -0.00000000000E+00 -0.69524332640E+03  0.69524332640E+03  0.00000000000E+00 0.  1.
         23    2    1    2    0    0 -0.27682029313E+01  0.13773737597E+03  0.16214171481E+03  0.23118880601E+03  0.90438269848E+02 0.  0.
         11    1    3    3    0    0 -0.21130333802E+02  0.61490266113E+02  0.18614072908E+02  0.67631557305E+02  0.00000000000E+00 0. -1.
        -11    1    3    3    0    0  0.18362130870E+02  0.76247109856E+02  0.14352764191E+03  0.16355724870E+03  0.00000000000E+00 0.  1.
         22    1    1    2    0    0  0.27682029313E+01 -0.13773737597E+03 -0.65353850357E+03  0.66790105805E+03  0.00000000000E+00 0.  1.
<mgrwt>
<rscale>  0 0.75292216E+03</rscale>
<asrwt>0</asrwt>
<pdfrwt beam="1">  1        1 0.31361006E-01 0.75292216E+03</pdfrwt>
<pdfrwt beam="2">  1       -1 0.10696051E+00 0.75292216E+03</pdfrwt>
<totfact> 0.12003096E+02</totfact>
</mgrwt>
</event>
<event>
 6    1  0.1028026E-006  0.2989835E+04  0.7818608E-02  0.8246639E-01
         -2   -1    0    0    0  501 -0.00000000000E+00  0.00000000000E+00  0.95104636267E+03  0.95104636267E+03  0.00000000000E+00 0.  1.
          2   -1    0    0  501    0  0.00000000000E+00 -0.00000000000E+00 -0.23498106063E+04  0.23498106063E+04  0.00000000000E+00 0. -1.
         23    2    1    2    0    0 -0.17699276787E+03  0.47444081771E+03 -0.22511982973E+04  0.23093609551E+04  0.93987859844E+02 0.  0.
         13    1    3    3    0    0 -0.63216319311E+02  0.83544625305E+02 -0.57197255528E+03  0.58148827283E+03  0.00000000000E+00 0.  1.
        -13    1    3    3    0    0 -0.11377644856E+03  0.39089619240E+03 -0.16792257420E+04  0.17278726823E+04  0.00000000000E+00 0. -1.
         22    1    1    2    0    0  0.17699276787E+03 -0.47444081771E+03  0.85243405375E+03  0.99149601380E+03  0.00000000000E+00 0.  1.
<mgrwt>
<rscale>  0 0.29898353E+04</rscale>
<asrwt>0</asrwt>
<pdfrwt beam="1">  1        2 0.36150932E+00 0.29898353E+04</pdfrwt>
<pdfrwt beam="2">  1       -2 0.14631483E+00 0.29898353E+04</pdfrwt>
<totfact> 0.11641918E+00</totfact>
</mgrwt>
</event>
<event>
 6    1  0.1028026E-006  0.1248221E+04  0.7818608E-02  0.9071665E-01
         -2   -1    0    0    0  501 -0.00000000000E+00  0.00000000000E+00  0.11261566396E+04  0.11261566396E+04  0.00000000000E+00 0.  1.
          2   -1    0    0  501    0  0.00000000000E+00 -0.00000000000E+00 -0.34587900817E+03  0.34587900817E+03  0.00000000000E+00 0. -1.
         23    2    1    2    0    0  0.25182990441E+03 -0.56657014211E+03  0.35388459402E+03  0.71955239280E+03  0.90007296393E+02 0.  0.
         11    1    3    3    0    0  0.25312103089E+02 -0.14884106407E+03  0.75215939748E+02  0.16867662111E+03  0.00000000000E+00 0. -1.
        -11    1    3    3    0    0  0.22651780132E+03 -0.41772907804E+03  0.27866865427E+03  0.55087577168E+03  0.00000000000E+00 0.  1.
         22    1    1    2    0    0 -0.25182990441E+03  0.56657014211E+03  0.42639303745E+03  0.75248325501E+03  0.00000000000E+00 0.  1.
<mgrwt>
<rscale>  0 0.12482210E+04</rscale>
<asrwt>0</asrwt>
<pdfrwt beam="1">  1        2 0.53212155E-01 0.12482210E+04</pdfrwt>
<pdfrwt beam="2">  1       -2 0.17325487E+00 0.12482210E+04</pdfrwt>
<totfact> 0.18594792E+01</totfact>
</mgrwt>
</event>
<event>
 6    1  0.1028026E-006  0.2097299E+04  0.7818608E-02  0.8562434E-01
          2   -1    0    0  501    0  0.00000000000E+00  0.00000000000E+00  0.13114822756E+04  0.13114822756E+04  0.00000000000E+00 0. -1.
         -2   -1    0    0    0  501 -0.00000000000E+00 -0.00000000000E+00 -0.83849108049E+03  0.83849108049E+03  0.00000000000E+00 0.  1.
         23    2    1    2    0    0  0.53543415280E+03  0.34006937399E+03  0.10903185704E+04  0.12648575449E+04  0.93451124784E+02 0.  0.
         13    1    3    3    0    0  0.38802021163E+03  0.20480484596E+03  0.69742685699E+03  0.82395930144E+03  0.00000000000E+00 0. -1.
        -13    1    3    3    0    0  0.14741394116E+03  0.13526452803E+03  0.39289171340E+03  0.44089824342E+03  0.00000000000E+00 0.  1.
         22    1    1    2    0    0 -0.53543415280E+03 -0.34006937399E+03 -0.61732737525E+03  0.88511581126E+03  0.00000000000E+00 0.  1.
<mgrwt>
<rscale>  0 0.20972994E+04</rscale>
<asrwt>0</asrwt>
<pdfrwt beam="1">  1        2 0.20176650E+00 0.20972994E+04</pdfrwt>
<pdfrwt beam="2">  1       -2 0.12899863E+00 0.20972994E+04</pdfrwt>
<totfact> 0.66465831E+00</totfact>
</mgrwt>
</event>
<event>
 6    1  0.1028026E-006  0.4041014E+04  0.7818608E-02  0.7996323E-01
          2   -1    0    0  501    0  0.00000000000E+00  0.00000000000E+00  0.22236077589E+04  0.22236077589E+04  0.00000000000E+00 0. -1.
         -2   -1    0    0    0  501 -0.00000000000E+00 -0.00000000000E+00 -0.18359571910E+04  0.18359571910E+04  0.00000000000E+00 0.  1.
         23    2    1    2    0    0 -0.72013911438E+03 -0.18046842385E+04  0.74686763573E+03  0.20835785009E+04  0.89457024552E+02 0.  0.
         13    1    3    3    0    0 -0.51100833777E+03 -0.13629159522E+04  0.53328420718E+03  0.15501811054E+04  0.00000000000E+00 0.  1.
        -13    1    3    3    0    0 -0.20913077660E+03 -0.44176828636E+03  0.21358342856E+03  0.53339739548E+03  0.00000000000E+00 0. -1.
         22    1    1    2    0    0  0.72013911438E+03  0.18046842385E+04 -0.35921706780E+03  0.19759864490E+04  0.00000000000E+00 0.  1.
<mgrwt>
<rscale>  0 0.40410141E+04</rscale>
<asrwt>0</asrwt>
<pdfrwt beam="1">  1        2 0.34209350E+00 0.40410141E+04</pdfrwt>
<pdfrwt beam="2">  1       -2 0.28245495E+00 0.40410141E+04</pdfrwt>
<totfact> 0.16021646E-01</totfact>
</mgrwt>
</event>
<event>
 6    1  0.1028026E-006  0.4580340E+03  0.7818608E-02  0.1025353E+00
         -2   -1    0    0    0  501 -0.00000000000E+00  0.00000000000E+00  0.65191132787E+02  0.65191132787E+02  0.00000000000E+00 0.  1.
          2   -1    0    0  501    0  0.00000000000E+00 -0.00000000000E+00 -0.80453872670E+03  0.80453872670E+03  0.00000000000E+00 0. -1.
         23    2    1    2    0    0 -0.18076869204E+03 -0.62399948662E+01 -0.62254418938E+03  0.65441777699E+03  0.89359395425E+02 0.  0.
         11    1    3    3    0    0 -0.25186128115E+02  0.31855580498E+02 -0.10201540949E+03  0.10980101472E+03  0.00000000000E+00 0.  1.
        -11    1    3    3    0    0 -0.15558256393E+03 -0.38095575364E+02 -0.52052877988E+03  0.54461676227E+03  0.00000000000E+00 0. -1.
         22    1    1    2    0    0  0.18076869204E+03  0.62399948662E+01 -0.11680340453E+03  0.21531208250E+03  0.00000000000E+00 0.  1.
<mgrwt>
<rscale>  0 0.45803402E+03</rscale>
<asrwt>0</asrwt>
<pdfrwt beam="1">  1        2 0.12377518E+00 0.45803402E+03</pdfrwt>
<pdfrwt beam="2">  1       -2 0.10029406E-01 0.45803402E+03</pdfrwt>
<totfact> 0.23348800E+03</totfact>
</mgrwt>
</event>
<event>
 6    1  0.1028026E-006  0.2687669E+04  0.7818608E-02  0.8339017E-01
          2   -1    0    0  501    0  0.00000000000E+00  0.00000000000E+00  0.13457821829E+04  0.13457821829E+04  0.00000000000E+00 0. -1.
         -2   -1    0    0    0  501 -0.00000000000E+00 -0.00000000000E+00 -0.13418896252E+04  0.13418896252E+04  0.00000000000E+00 0.  1.
         23    2    1    2    0    0 -0.39597736642E+03  0.49057006359E+03 -0.11830357111E+04  0.13437016532E+04  0.92214841938E+02 0.  0.
         11    1    3    3    0    0 -0.27737525389E+03  0.28162138146E+03 -0.68882774263E+03  0.79418593099E+03  0.00000000000E+00 0. -1.
        -11    1    3    3    0    0 -0.11860211254E+03  0.20894868212E+03 -0.49420796846E+03  0.54951572220E+03  0.00000000000E+00 0.  1.
         22    1    1    2    0    0  0.39597736642E+03 -0.49057006359E+03  0.11869282687E+04  0.13439701549E+04  0.00000000000E+00 0. -1.
<mgrwt>
<rscale>  0 0.26876690E+04</rscale>
<asrwt>0</asrwt>
<pdfrwt beam="1">  1        2 0.20704341E+00 0.26876690E+04</pdfrwt>
<pdfrwt beam="2">  1       -2 0.20644456E+00 0.26876690E+04</pdfrwt>
<totfact> 0.16485808E+00</totfact>
</mgrwt>
</event>
<event>
 6    1  0.1028026E-006  0.1403432E+04  0.7818608E-02  0.8951338E-01
          1   -1    0    0  501    0  0.00000000000E+00  0.00000000000E+00  0.24892502036E+03  0.24892502036E+03  0.00000000000E+00 0. -1.
         -1   -1    0    0    0  501 -0.00000000000E+00 -0.00000000000E+00 -0.19781280389E+04  0.19781280389E+04  0.00000000000E+00 0.  1.
         23    2    1    2    0    0  0.24157479812E+03 -0.64717720850E+03 -0.10355829015E+04  0.12481222195E+04  0.90445600347E+02 0.  0.
         11    1    3    3    0    0  0.82139763149E+01 -0.11867752967E+03 -0.17600427831E+03  0.21243665276E+03  0.00000000000E+00 0.  1.
        -11    1    3    3    0    0  0.23336082181E+03 -0.52849967883E+03 -0.85957862316E+03  0.10356855667E+04  0.00000000000E+00 0. -1.
         22    1    1    2    0    0 -0.24157479812E+03  0.64717720850E+03 -0.69362011709E+03  0.97893083980E+03  0.00000000000E+00 0.  1.
<mgrwt>
<rscale>  0 0.14034323E+04</rscale>
<asrwt>0</asrwt>
<pdfrwt beam="1">  1        1 0.38296158E-01 0.14034323E+04</pdfrwt>
<pdfrwt beam="2">  1       -1 0.30432739E+00 0.14034323E+04</pdfrwt>
<totfact> 0.33874075E+00</totfact>
</mgrwt>
</event>
<event>
 6    1  0.1028026E-006  0.2567617E+04  0.7818608E-02  0.8379285E-01
          2   -1    0    0  501    0  0.00000000000E+00  0.00000000000E+00  0.57035695514E+03  0.57035695514E+03  0.00000000000E+00 0. -1.
         -2   -1    0    0    0  501 -0.00000000000E+00 -0.00000000000E+00 -0.28897073282E+04  0.28897073282E+04  0.00000000000E+00 0.  1.
         23    2    1    2    0    0  0.11174060125E+02  0.12816063783E+04 -0.11024248053E+04  0.16927081772E+04  0.85327329908E+02 0.  0.
         11    1    3    3    0    0 -0.38616435172E+01  0.90297686834E+03 -0.72670518032E+03  0.11590869493E+04  0.00000000000E+00 0.  1.
        -11    1    3    3    0    0  0.15035703642E+02  0.37862950996E+03 -0.37571962496E+03  0.53362122782E+03  0.00000000000E+00 0. -1.
         22    1    1    2    0    0 -0.11174060125E+02 -0.12816063783E+04 -0.12169255678E+04  0.17673561062E+04  0.00000000000E+00 0.  1.
<mgrwt>
<rscale>  0 0.25676173E+04</rscale>
<asrwt>0</asrwt>
<pdfrwt beam="1">  1        2 0.87747223E-01 0.25676173E+04</pdfrwt>
<pdfrwt beam="2">  1       -2 0.44457036E+00 0.25676173E+04</pdfrwt>
<totfact> 0.17613029E-01</totfact>
</mgrwt>
</event>
<event>
 6    1  0.1028026E-006  0.2900106E+03  0.7818608E-02  0.1090344E+00
          2   -1    0    0  501    0  0.00000000000E+00  0.00000000000E+00  0.37419868404E+03  0.37419868404E+03  0.00000000000E+00 0. -1.
         -2   -1    0    0    0  501 -0.00000000000E+00 -0.00000000000E+00 -0.56190840868E+02  0.56190840868E+02  0.00000000000E+00 0.  1.
         23    2    1    2    0    0 -0.91163070566E+02  0.47139102818E+02  0.52000367716E+02  0.14527064190E+03  0.88694535942E+02 0.  0.
         11    1    3    3    0    0 -0.10898382018E+03  0.43980858106E+02  0.45961004589E+02  0.12619113631E+03  0.00000000000E+00 0. -1.
        -11    1    3    3    0    0  0.17820749615E+02  0.31582447128E+01  0.60393631274E+01  0.19079505588E+02  0.00000000000E+00 0.  1.
         22    1    1    2    0    0  0.91163070566E+02 -0.47139102818E+02  0.26600747546E+03  0.28511888301E+03  0.00000000000E+00 0. -1.
<mgrwt>
<rscale>  0 0.29001061E+03</rscale>
<asrwt>0</asrwt>
<pdfrwt beam="1">  1        2 0.57569027E-01 0.29001061E+03</pdfrwt>
<pdfrwt beam="2">  1       -2 0.86447450E-02 0.29001061E+03</pdfrwt>
<totfact> 0.71580235E+03</totfact>
</mgrwt>
</event>
<event>
 6    1  0.1028026E-006  0.1511692E+04  0.7818608E-02  0.8876715E-01
         -2   -1    0    0    0  501 -0.00000000000E+00  0.00000000000E+00  0.60041573846E+03  0.60041573846E+03  0.00000000000E+00 0.  1.
          2   -1    0    0  501    0  0.00000000000E+00 -0.00000000000E+00 -0.95151307324E+03  0.95151307324E+03  0.00000000000E+00 0. -1.
         23    2    1    2    0    0 -0.55819168440E+02  0.52120954669E+03 -0.73106554463E+03  0.90451008196E+03  0.94374184456E+02 0.  0.
         11    1    3    3    0    0 -0.35190359780E+02  0.39116708451E+03 -0.47303537482E+03  0.61482722391E+03  0.00000000000E+00 0. -1.
        -11    1    3    3    0    0 -0.20628808660E+02  0.13004246218E+03 -0.25803016981E+03  0.28968285805E+03  0.00000000000E+00 0.  1.
         22    1    1    2    0    0  0.55819168440E+02 -0.52120954669E+03  0.37996820984E+03  0.64741872974E+03  0.00000000000E+00 0.  1.
<mgrwt>
<rscale>  0 0.15116923E+04</rscale>
<asrwt>0</asrwt>
<pdfrwt beam="1">  1        2 0.14638663E+00 0.15116923E+04</pdfrwt>
<pdfrwt beam="2">  1       -2 0.92371652E-01 0.15116923E+04</pdfrwt>
<totfact> 0.26024954E+01</totfact>
</mgrwt>
</event>
<event>
 6    1  0.1028026E-006  0.1102429E+04  0.7818608E-02  0.9202827E-01
          2   -1    0    0  501    0  0.00000000000E+00  0.00000000000E+00  0.82162328679E+03  0.82162328679E+03  0.00000000000E+00 0. -1.
         -2   -1    0    0    0  501 -0.00000000000E+00 -0.00000000000E+00 -0.36980169360E+03  0.36980169360E+03  0.00000000000E+00 0.  1.
         23    2    1    2    0    0  0.18317731344E+03 -0.84410846478E+02  0.77748640017E+03  0.80836273262E+03  0.91027940153E+02 0.  0.
         13    1    3    3    0    0  0.31328367853E+02  0.16160196369E+02  0.78765651158E+02  0.86293953330E+02  0.00000000000E+00 0.  1.
        -13    1    3    3    0    0  0.15184894558E+03 -0.10057104285E+03  0.69872074901E+03  0.72206877929E+03  0.00000000000E+00 0. -1.
         22    1    1    2    0    0 -0.18317731344E+03  0.84410846478E+02 -0.32566480698E+03  0.38306224777E+03  0.00000000000E+00 0.  1.
<mgrwt>
<rscale>  0 0.11024295E+04</rscale>
<asrwt>0</asrwt>
<pdfrwt beam="1">  1        2 0.12640358E+00 0.11024295E+04</pdfrwt>
<pdfrwt beam="2">  1       -2 0.56892569E-01 0.11024295E+04</pdfrwt>
<totfact> 0.95603252E+01</totfact>
</mgrwt>
</event>
<event>
 6    1  0.1028026E-006  0.2674806E+04  0.7818608E-02  0.8343226E-01
          1   -1    0    0  501    0  0.00000000000E+00  0.00000000000E+00  0.96509784914E+03  0.96509784914E+03  0.00000000000E+00 0. -1.
         -1   -1    0    0    0  501 -0.00000000000E+00 -0.00000000000E+00 -0.18533320049E+04  0.18533320049E+04  0.00000000000E+00 0.  1.
         23    2    1    2    0    0 -0.10116443545E+04 -0.26807720321E+03  0.43012552061E+03  0.11351705385E+04  0.91183886572E+02 0.  0.
         13    1    3    3    0    0 -0.70189477574E+03 -0.22816865294E+03  0.29297810792E+03  0.79407391477E+03  0.00000000000E+00 0.  1.
        -13    1    3    3    0    0 -0.30974957878E+03 -0.39908550271E+02  0.13714741269E+03  0.34109662377E+03  0.00000000000E+00 0. -1.
         22    1    1    2    0    0  0.10116443545E+04  0.26807720321E+03 -0.13183596764E+04  0.16832593155E+04  0.00000000000E+00 0.  1.
<mgrwt>
<rscale>  0 0.26748060E+04</rscale>
<asrwt>0</asrwt>
<pdfrwt beam="1">  1        1 0.14847659E+00 0.26748060E+04</pdfrwt>
<pdfrwt beam="2">  1       -1 0.28512800E+00 0.26748060E+04</pdfrwt>
<totfact> 0.58161750E-01</totfact>
</mgrwt>
</event>
<event>
 6    1  0.1028026E-006  0.3703771E+04  0.7818608E-02  0.8067127E-01
         -1   -1    0    0    0  501 -0.00000000000E+00  0.00000000000E+00  0.22962392868E+04  0.22962392868E+04  0.00000000000E+00 0.  1.
          1   -1    0    0  501    0  0.00000000000E+00 -0.00000000000E+00 -0.14935205769E+04  0.14935205769E+04  0.00000000000E+00 0. -1.
         23    2    1    2    0    0  0.14478860860E+04  0.86572988364E+03  0.11805366415E+04  0.20610005576E+04  0.90521748134E+02 0.  0.
         13    1    3    3    0    0  0.12648558232E+04  0.78835913244E+03  0.10299251907E+04  0.18116611918E+04  0.00000000000E+00 0. -1.
        -13    1    3    3    0    0  0.18303026272E+03  0.77370751194E+02  0.15061145080E+03  0.24933936577E+03  0.00000000000E+00 0.  1.
         22    1    1    2    0    0 -0.14478860860E+04 -0.86572988364E+03 -0.37781793159E+03  0.17287593062E+04  0.00000000000E+00 0. -1.
<mgrwt>
<rscale>  0 0.37037714E+04</rscale>
<asrwt>0</asrwt>
<pdfrwt beam="1">  1        1 0.22977240E+00 0.37037714E+04</pdfrwt>
<pdfrwt beam="2">  1       -1 0.35326758E+00 0.37037714E+04</pdfrwt>
<totfact> 0.78323668E-02</totfact>
</mgrwt>
</event>
<event>
 6    1  0.1028026E-006  0.3169876E+04  0.7818608E-02  0.8196818E-01
          2   -1    0    0  501    0  0.00000000000E+00  0.00000000000E+00  0.40376215795E+04  0.40376215795E+04  0.00000000000E+00 0. -1.
         -2   -1    0    0    0  501 -0.00000000000E+00 -0.00000000000E+00 -0.62215568551E+03  0.62215568551E+03  0.00000000000E+00 0.  1.
         23    2    1    2    0    0 -0.77907616874E+03  0.10090061840E+04  0.30904367482E+04  0.33442176496E+04  0.89102399691E+02 0.  0.
         13    1    3    3    0    0 -0.36908886867E+03  0.44318868236E+03  0.12961714975E+04  0.14186977662E+04  0.00000000000E+00 0. -1.
        -13    1    3    3    0    0 -0.40998730008E+03  0.56581750161E+03  0.17942652507E+04  0.19255198834E+04  0.00000000000E+00 0.  1.
         22    1    1    2    0    0  0.77907616874E+03 -0.10090061840E+04  0.32502914581E+03  0.13155596154E+04  0.00000000000E+00 0.  1.
<mgrwt>
<rscale>  0 0.31698765E+04</rscale>
<asrwt>0</asrwt>
<pdfrwt beam="1">  1        2 0.62117253E+00 0.31698765E+04</pdfrwt>
<pdfrwt beam="2">  1       -2 0.95716262E-01 0.31698765E+04</pdfrwt>
<totfact> 0.24605377E-01</totfact>
</mgrwt>
</event>
<event>
 6    1  0.1028026E-006  0.2735860E+04  0.7818608E-02  0.8323462E-01
         -1   -1    0    0    0  501 -0.00000000000E+00  0.00000000000E+00  0.95422098546E+03  0.95422098546E+03  0.00000000000E+00 0.  1.
          1   -1    0    0  501    0  0.00000000000E+00 -0.00000000000E+00 -0.19610060374E+04  0.19610060374E+04  0.00000000000E+00 0. -1.
         23    2    1    2    0    0 -0.22836386531E+03  0.35870959439E+03  0.87966904262E+03  0.98144014759E+03  0.92652634481E+02 0.  0.
         11    1    3    3    0    0 -0.13107247152E+03  0.19317605796E+03  0.58362415906E+03  0.62858105380E+03  0.00000000000E+00 0.  1.
        -11    1    3    3    0    0 -0.97291393786E+02  0.16553353644E+03  0.29604488356E+03  0.35285909379E+03  0.00000000000E+00 0. -1.
         22    1    1    2    0    0  0.22836386531E+03 -0.35870959439E+03 -0.18864540945E+04  0.19337868753E+04  0.00000000000E+00 0. -1.
<mgrwt>
<rscale>  0 0.27358605E+04</rscale>
<asrwt>0</asrwt>
<pdfrwt beam="1">  1        1 0.30169323E+00 0.27358605E+04</pdfrwt>
<pdfrwt beam="2">  1       -1 0.14680323E+00 0.27358605E+04</pdfrwt>
<totfact> 0.10191614E+00</totfact>
</mgrwt>
</event>
<event>
 6    1  0.1028026E-006  0.4316478E+04  0.7818608E-02  0.7943578E-01
          2   -1    0    0  501    0  0.00000000000E+00  0.00000000000E+00  0.31954866684E+04  0.31954866684E+04  0.00000000000E+00 0. -1.
         -2   -1    0    0    0  501 -0.00000000000E+00 -0.00000000000E+00 -0.14576794016E+04  0.14576794016E+04  0.00000000000E+00 0.  1.
         23    2    1    2    0    0  0.10055418977E+04  0.17162745165E+04 -0.30614162163E+02  0.19915825047E+04  0.93546363412E+02 0.  0.
         13    1    3    3    0    0  0.77075419127E+03  0.13824801668E+04 -0.41064199074E+02  0.15833507834E+04  0.00000000000E+00 0. -1.
        -13    1    3    3    0    0  0.23478770643E+03  0.33379434974E+03  0.10450036911E+02  0.40823172131E+03  0.00000000000E+00 0.  1.
         22    1    1    2    0    0 -0.10055418977E+04 -0.17162745165E+04  0.17684214291E+04  0.26615835653E+04  0.00000000000E+00 0.  1.
<mgrwt>
<rscale>  0 0.43164778E+04</rscale>
<asrwt>0</asrwt>
<pdfrwt beam="1">  1        2 0.49161333E+00 0.43164778E+04</pdfrwt>
<pdfrwt beam="2">  1       -2 0.22425837E+00 0.43164778E+04</pdfrwt>
<totfact> 0.93178940E-02</totfact>
</mgrwt>
</event>
<event>
 6    1  0.1028026E-006  0.5742507E+04  0.7818608E-02  0.7723174E-01
         -2   -1    0    0    0  501 -0.00000000000E+00  0.00000000000E+00  0.20620111621E+04  0.20620111621E+04  0.00000000000E+00 0.  1.
          2   -1    0    0  501    0  0.00000000000E+00 -0.00000000000E+00 -0.39980846938E+04  0.39980846938E+04  0.00000000000E+00 0. -1.
         23    2    1    2    0    0 -0.21265282195E+04 -0.14928121344E+03  0.10604173283E+04  0.23826830938E+04  0.91031126948E+02 0.  0.
         11    1    3    3    0    0 -0.10185319747E+04 -0.26316787787E+02  0.51306482128E+03  0.11407609161E+04  0.00000000000E+00 0. -1.
        -11    1    3    3    0    0 -0.11079962448E+04 -0.12296442566E+03  0.54735250706E+03  0.12419221777E+04  0.00000000000E+00 0.  1.
         22    1    1    2    0    0  0.21265282195E+04  0.14928121344E+03 -0.29964908600E+04  0.36774127621E+04  0.00000000000E+00 0. -1.
<mgrwt>
<rscale>  0 0.57425065E+04</rscale>
<asrwt>0</asrwt>
<pdfrwt beam="1">  1        2 0.61508995E+00 0.57425065E+04</pdfrwt>
<pdfrwt beam="2">  1       -2 0.31723249E+00 0.57425065E+04</pdfrwt>
<totfact> 0.58403928E-03</totfact>
</mgrwt>
</event>
<event>
 6    1  0.1028026E-006  0.1778082E+04  0.7818608E-02  0.8718043E-01
          2   -1    0    0  501    0  0.00000000000E+00  0.00000000000E+00  0.22996887857E+04  0.22996887857E+04  0.00000000000E+00 0. -1.
         -2   -1    0    0    0  501 -0.00000000000E+00 -0.00000000000E+00 -0.34369608202E+03  0.34369608202E+03  0.00000000000E+00 0.  1.
         23    2    1    2    0    0 -0.40747254405E+03 -0.24773037067E+03  0.20921382140E+04  0.21474616775E+04  0.84528922650E+02 0.  0.
         11    1    3    3    0    0 -0.24189588739E+03 -0.18965755197E+03  0.12501010434E+04  0.12873368736E+04  0.00000000000E+00 0.  1.
        -11    1    3    3    0    0 -0.16557665665E+03 -0.58072818702E+02  0.84203717065E+03  0.86012480389E+03  0.00000000000E+00 0. -1.
         22    1    1    2    0    0  0.40747254405E+03  0.24773037067E+03 -0.13614551032E+03  0.49592319031E+03  0.00000000000E+00 0.  1.
<mgrwt>
<rscale>  0 0.17780821E+04</rscale>
<asrwt>0</asrwt>
<pdfrwt beam="1">  1        2 0.35379827E+00 0.17780821E+04</pdfrwt>
<pdfrwt beam="2">  1       -2 0.52876322E-01 0.17780821E+04</pdfrwt>
<totfact> 0.14478222E+01</totfact>
</mgrwt>
</event>
<event>
 6    1  0.1028026E-006  0.1094917E+04  0.7818608E-02  0.9210160E-01
         -1   -1    0    0    0  501 -0.00000000000E+00  0.00000000000E+00  0.76636329435E+03  0.76636329435E+03  0.00000000000E+00 0.  1.
          1   -1    0    0  501    0  0.00000000000E+00 -0.00000000000E+00 -0.39108179094E+03  0.39108179094E+03  0.00000000000E+00 0. -1.
         23    2    1    2    0    0 -0.29765584578E+03 -0.88662921240E+01  0.66979791182E+03  0.73861632734E+03  0.90814220607E+02 0.  0.
         11    1    3    3    0    0 -0.17571029237E+03  0.17492857725E+02  0.29735634167E+03  0.34583363174E+03  0.00000000000E+00 0. -1.
        -11    1    3    3    0    0 -0.12194555341E+03 -0.26359149849E+02  0.37244157016E+03  0.39278269559E+03  0.00000000000E+00 0.  1.
         22    1    1    2    0    0  0.29765584578E+03  0.88662921240E+01 -0.29451640841E+03  0.41882875795E+03  0.00000000000E+00 0. -1.
<mgrwt>
<rscale>  0 0.10949169E+04</rscale>
<asrwt>0</asrwt>
<pdfrwt beam="1">  1        1 0.60166430E-01 0.10949169E+04</pdfrwt>
<pdfrwt beam="2">  1       -1 0.11790204E+00 0.10949169E+04</pdfrwt>
<totfact> 0.39849921E+01</totfact>
</mgrwt>
</event>
<event>
 6    1  0.1028026E-006  0.2573322E+04  0.7818608E-02  0.8377320E-01
          2   -1    0    0  501    0  0.00000000000E+00  0.00000000000E+00  0.24131732333E+04  0.24131732333E+04  0.00000000000E+00 0. -1.
         -2   -1    0    0    0  501 -0.00000000000E+00 -0.00000000000E+00 -0.68602448685E+03  0.68602448685E+03  0.00000000000E+00 0.  1.
         23    2    1    2    0    0  0.73444155418E+03 -0.39106867827E+03  0.20440401015E+04  0.22088274384E+04  0.92084789819E+02 0.  0.
         13    1    3    3    0    0  0.69992707212E+02 -0.87083978390E+01  0.16985175896E+03  0.18391420630E+03  0.00000000000E+00 0. -1.
        -13    1    3    3    0    0  0.66444884697E+03 -0.38236028044E+03  0.18741883425E+04  0.20249132321E+04  0.00000000000E+00 0.  1.
         22    1    1    2    0    0 -0.73444155418E+03  0.39106867827E+03 -0.31689135507E+03  0.89037028171E+03  0.00000000000E+00 0.  1.
<mgrwt>
<rscale>  0 0.25733215E+04</rscale>
<asrwt>0</asrwt>
<pdfrwt beam="1">  1        2 0.37125742E+00 0.25733215E+04</pdfrwt>
<pdfrwt beam="2">  1       -2 0.10554223E+00 0.25733215E+04</pdfrwt>
<totfact> 0.25141423E+00</totfact>
</mgrwt>
</event>
<event>
 6    1  0.1028026E-006  0.1840915E+04  0.7818608E-02  0.8684839E-01
         -2   -1    0    0    0  501 -0.00000000000E+00  0.00000000000E+00  0.64339015124E+03  0.64339015124E+03  0.00000000000E+00 0.  1.
          2   -1    0    0  501    0  0.00000000000E+00 -0.00000000000E+00 -0.13168403964E+04  0.13168403964E+04  0.00000000000E+00 0. -1.
         23    2    1    2    0    0 -0.37216432967E+03  0.77806135022E+03 -0.67290451186E+03  0.10977422574E+04  0.91388339867E+02 0.  0.
         13    1    3    3    0    0 -0.31536445748E+03  0.66196986364E+03 -0.61093770984E+03  0.95441276538E+03  0.00000000000E+00 0.  1.
        -13    1    3    3    0    0 -0.56799872184E+02  0.11609148658E+03 -0.61966802014E+02  0.14332949204E+03  0.00000000000E+00 0. -1.
         22    1    1    2    0    0  0.37216432967E+03 -0.77806135022E+03 -0.54573332973E+00  0.86248829025E+03  0.00000000000E+00 0.  1.
<mgrwt>
<rscale>  0 0.18409151E+04</rscale>
<asrwt>0</asrwt>
<pdfrwt beam="1">  1        2 0.20259083E+00 0.18409151E+04</pdfrwt>
<pdfrwt beam="2">  1       -2 0.98983101E-01 0.18409151E+04</pdfrwt>
<totfact> 0.12871593E+01</totfact>
</mgrwt>
</event>
<event>
 6    1  0.1028026E-006  0.6507352E+03  0.7818608E-02  0.9805401E-01
          4   -1    0    0  501    0  0.00000000000E+00  0.00000000000E+00  0.10306584796E+03  0.10306584796E+03  0.00000000000E+00 0. -1.
         -4   -1    0    0    0  501 -0.00000000000E+00 -0.00000000000E+00 -0.10271500397E+04  0.10271500397E+04  0.00000000000E+00 0.  1.
         23    2    1    2    0    0 -0.20869781171E+03  0.22655990921E+03 -0.61599705648E+03  0.69455334396E+03  0.89820960482E+02 0.  0.
         11    1    3    3    0    0 -0.19144425612E+03  0.21797646463E+03 -0.50932045387E+03  0.58615012332E+03  0.00000000000E+00 0.  1.
        -11    1    3    3    0    0 -0.17253555592E+02  0.85834445724E+01 -0.10667660261E+03  0.10840322064E+03  0.00000000000E+00 0. -1.
         22    1    1    2    0    0  0.20869781171E+03 -0.22655990921E+03 -0.30808713527E+03  0.43566254371E+03  0.00000000000E+00 0. -1.
<mgrwt>
<rscale>  0 0.65073525E+03</rscale>
<asrwt>0</asrwt>
<pdfrwt beam="1">  1        4 0.15856283E-01 0.65073525E+03</pdfrwt>
<pdfrwt beam="2">  1       -4 0.15802309E+00 0.65073525E+03</pdfrwt>
<totfact> 0.18176186E+01</totfact>
</mgrwt>
</event>
<event>
 6    1  0.1028026E-006  0.2770683E+04  0.7818608E-02  0.8312428E-01
          4   -1    0    0  501    0  0.00000000000E+00  0.00000000000E+00  0.89944329960E+03  0.89944329960E+03  0.00000000000E+00 0. -1.
         -4   -1    0    0    0  501 -0.00000000000E+00 -0.00000000000E+00 -0.21337325973E+04  0.21337325973E+04  0.00000000000E+00 0.  1.
         23    2    1    2    0    0  0.10041196404E+04 -0.74242959209E+03 -0.12698854364E+04  0.17838860841E+04  0.10090881061E+03 0.  0.
         11    1    3    3    0    0  0.81280810768E+03 -0.59215014256E+03 -0.10761899176E+04  0.14729166812E+04  0.00000000000E+00 0.  1.
        -11    1    3    3    0    0  0.19131153267E+03 -0.15027944953E+03 -0.19369551889E+03  0.31096940287E+03  0.00000000000E+00 0. -1.
         22    1    1    2    0    0 -0.10041196404E+04  0.74242959209E+03  0.35596138691E+02  0.12492898128E+04  0.00000000000E+00 0. -1.
<mgrwt>
<rscale>  0 0.27706833E+04</rscale>
<asrwt>0</asrwt>
<pdfrwt beam="1">  1        4 0.13837589E+00 0.27706833E+04</pdfrwt>
<pdfrwt beam="2">  1       -4 0.32826656E+00 0.27706833E+04</pdfrwt>
<totfact> 0.13099452E-02</totfact>
</mgrwt>
</event>
<event>
 6    1  0.1028026E-006  0.1218850E+04  0.7818608E-02  0.9096516E-01
          1   -1    0    0  501    0  0.00000000000E+00  0.00000000000E+00  0.18048740915E+04  0.18048740915E+04  0.00000000000E+00 0. -1.
         -1   -1    0    0    0  501 -0.00000000000E+00 -0.00000000000E+00 -0.20577531061E+03  0.20577531061E+03  0.00000000000E+00 0.  1.
         23    2    1    2    0    0  0.36074307210E+03  0.63636942581E+02  0.16002710172E+04  0.16443345120E+04  0.93719978891E+02 0.  0.
         11    1    3    3    0    0  0.45454301066E+02 -0.34600867389E+01  0.35932238094E+03  0.36220248361E+03  0.00000000000E+00 0.  1.
        -11    1    3    3    0    0  0.31528877104E+03  0.67097029320E+02  0.12409486362E+04  0.12821320284E+04  0.00000000000E+00 0. -1.
         22    1    1    2    0    0 -0.36074307210E+03 -0.63636942581E+02 -0.11722363326E+01  0.36631489004E+03  0.00000000000E+00 0.  1.
<mgrwt>
<rscale>  0 0.12188495E+04</rscale>
<asrwt>0</asrwt>
<pdfrwt beam="1">  1        1 0.27767293E+00 0.12188495E+04</pdfrwt>
<pdfrwt beam="2">  1       -1 0.31657741E-01 0.12188495E+04</pdfrwt>
<totfact> 0.37111191E+01</totfact>
</mgrwt>
</event>
<event>
 6    1  0.1028026E-006  0.1248213E+04  0.7818608E-02  0.9071672E-01
         -2   -1    0    0    0  501 -0.00000000000E+00  0.00000000000E+00  0.39259879731E+03  0.39259879731E+03  0.00000000000E+00 0.  1.
          2   -1    0    0  501    0  0.00000000000E+00 -0.00000000000E+00 -0.99212927187E+03  0.99212927187E+03  0.00000000000E+00 0. -1.
         23    2    1    2    0    0  0.39208799510E+03 -0.25291232367E+03  0.15166774903E+03  0.50042245997E+03  0.98599660171E+02 0.  0.
         11    1    3    3    0    0  0.69805878094E+02 -0.46941970923E+02  0.69734116128E+02  0.10926690351E+03  0.00000000000E+00 0.  1.
        -11    1    3    3    0    0  0.32228211700E+03 -0.20597035275E+03  0.81933632902E+02  0.39115555646E+03  0.00000000000E+00 0. -1.
         22    1    1    2    0    0 -0.39208799510E+03  0.25291232367E+03 -0.75119822359E+03  0.88430560921E+03  0.00000000000E+00 0. -1.
<mgrwt>
<rscale>  0 0.12482127E+04</rscale>
<asrwt>0</asrwt>
<pdfrwt beam="1">  1        2 0.15263527E+00 0.12482127E+04</pdfrwt>
<pdfrwt beam="2">  1       -2 0.60399815E-01 0.12482127E+04</pdfrwt>
<totfact> 0.64023718E+01</totfact>
</mgrwt>
</event>
<event>
 6    1  0.1028026E-006  0.3321546E+04  0.7818608E-02  0.8157435E-01
          2   -1    0    0  501    0  0.00000000000E+00  0.00000000000E+00  0.97402093578E+03  0.97402093578E+03  0.00000000000E+00 0. -1.
         -2   -1    0    0    0  501 -0.00000000000E+00 -0.00000000000E+00 -0.28317324559E+04  0.28317324559E+04  0.00000000000E+00 0.  1.
         23    2    1    2    0    0 -0.13457428771E+04 -0.19359202378E+03  0.16019961769E+03  0.13725523883E+04  0.98662952735E+02 0.  0.
         13    1    3    3    0    0 -0.82060587390E+03 -0.71987209965E+02  0.11269185060E+03  0.83142985986E+03  0.00000000000E+00 0. -1.
        -13    1    3    3    0    0 -0.52513700316E+03 -0.12160481381E+03  0.47507767087E+02  0.54112252842E+03  0.00000000000E+00 0.  1.
         22    1    1    2    0    0  0.13457428771E+04  0.19359202378E+03 -0.20179111378E+04  0.24332010034E+04  0.00000000000E+00 0.  1.
<mgrwt>
<rscale>  0 0.33215458E+04</rscale>
<asrwt>0</asrwt>
<pdfrwt beam="1">  1        2 0.14984938E+00 0.33215458E+04</pdfrwt>
<pdfrwt beam="2">  1       -2 0.43565114E+00 0.33215458E+04</pdfrwt>
<totfact> 0.94181431E-02</totfact>
</mgrwt>
</event>
<event>
 6    1  0.1028026E-006  0.2686211E+04  0.7818608E-02  0.8339493E-01
         -2   -1    0    0    0  501 -0.00000000000E+00  0.00000000000E+00  0.27593543897E+04  0.27593543897E+04  0.00000000000E+00 0.  1.
          2   -1    0    0  501    0  0.00000000000E+00 -0.00000000000E+00 -0.65375140821E+03  0.65375140821E+03  0.00000000000E+00 0. -1.
         23    2    1    2    0    0  0.59576605915E+03 -0.82490561966E+03 -0.56740113324E+02  0.10233078696E+04  0.92374655063E+02 0.  0.
         11    1    3    3    0    0  0.98658048989E+02 -0.17196119176E+03  0.19093372974E+02  0.19916982451E+03  0.00000000000E+00 0. -1.
        -11    1    3    3    0    0  0.49710801016E+03 -0.65294442790E+03 -0.75833486298E+02  0.82413804507E+03  0.00000000000E+00 0.  1.
         22    1    1    2    0    0 -0.59576605915E+03  0.82490561966E+03  0.21623430948E+04  0.23897979283E+04  0.00000000000E+00 0.  1.
<mgrwt>
<rscale>  0 0.26862106E+04</rscale>
<asrwt>0</asrwt>
<pdfrwt beam="1">  1        2 0.10057714E+00 0.26862106E+04</pdfrwt>
<pdfrwt beam="2">  1       -2 0.42451605E+00 0.26862106E+04</pdfrwt>
<totfact> 0.20057682E-01</totfact>
</mgrwt>
</event>
<event>
 6    1  0.1028026E-006  0.3192727E+04  0.7818608E-02  0.8190741E-01
          2   -1    0    0  501    0  0.00000000000E+00  0.00000000000E+00  0.25282663969E+04  0.25282663969E+04  0.00000000000E+00 0. -1.
         -2   -1    0    0    0  501 -0.00000000000E+00 -0.00000000000E+00 -0.10079540804E+04  0.10079540804E+04  0.00000000000E+00 0.  1.
         23    2    1    2    0    0  0.35155089360E+03  0.64371259754E+03  0.23295953891E+04  0.24440240524E+04  0.91021717449E+02 0.  0.
         13    1    3    3    0    0  0.54358683695E+02  0.18216964224E+03  0.59071516550E+03  0.62055221521E+03  0.00000000000E+00 0.  1.
        -13    1    3    3    0    0  0.29719220990E+03  0.46154295531E+03  0.17388802236E+04  0.18234718372E+04  0.00000000000E+00 0. -1.
         22    1    1    2    0    0 -0.35155089360E+03 -0.64371259754E+03 -0.80928307255E+03  0.10921964249E+04  0.00000000000E+00 0.  1.
<mgrwt>
<rscale>  0 0.31927270E+04</rscale>
<asrwt>0</asrwt>
<pdfrwt beam="1">  1        2 0.38896406E+00 0.31927270E+04</pdfrwt>
<pdfrwt beam="2">  1       -2 0.15506986E+00 0.31927270E+04</pdfrwt>
<totfact> 0.77420952E-01</totfact>
</mgrwt>
</event>
<event>
 6    1  0.1028026E-006  0.4967771E+04  0.7818608E-02  0.7833498E-01
          1   -1    0    0  501    0  0.00000000000E+00  0.00000000000E+00  0.21437766790E+04  0.21437766790E+04  0.00000000000E+00 0. -1.
         -1   -1    0    0    0  501 -0.00000000000E+00 -0.00000000000E+00 -0.28779527900E+04  0.28779527900E+04  0.00000000000E+00 0.  1.
         23    2    1    2    0    0 -0.18867746493E+04  0.85110729492E+03  0.10190157537E+04  0.23091690699E+04  0.97808396705E+02 0.  0.
         11    1    3    3    0    0 -0.29251458886E+03  0.94970110150E+02  0.14193945628E+03  0.33871952375E+03  0.00000000000E+00 0. -1.
        -11    1    3    3    0    0 -0.15942600604E+04  0.75613718477E+03  0.87707629745E+03  0.19704495461E+04  0.00000000000E+00 0.  1.
         22    1    1    2    0    0  0.18867746493E+04 -0.85110729492E+03 -0.17531918646E+04  0.27125603991E+04  0.00000000000E+00 0.  1.
<mgrwt>
<rscale>  0 0.49677714E+04</rscale>
<asrwt>0</asrwt>
<pdfrwt beam="1">  1        1 0.32981180E+00 0.49677714E+04</pdfrwt>
<pdfrwt beam="2">  1       -1 0.44276197E+00 0.49677714E+04</pdfrwt>
<totfact> 0.62634388E-03</totfact>
</mgrwt>
</event>
<event>
 6    1  0.1028026E-006  0.2833934E+04  0.7818608E-02  0.8292810E-01
          2   -1    0    0  501    0  0.00000000000E+00  0.00000000000E+00  0.23500513402E+04  0.23500513402E+04  0.00000000000E+00 0. -1.
         -2   -1    0    0    0  501 -0.00000000000E+00 -0.00000000000E+00 -0.85436223007E+03  0.85436223007E+03  0.00000000000E+00 0.  1.
         23    2    1    2    0    0 -0.88764811472E+03  0.10410480459E+04  0.11592585514E+04  0.17955538433E+04  0.91831399337E+02 0.  0.
         13    1    3    3    0    0 -0.30782629913E+03  0.35521444571E+03  0.34217767835E+03  0.58139478535E+03  0.00000000000E+00 0. -1.
        -13    1    3    3    0    0 -0.57982181560E+03  0.68583360018E+03  0.81708087306E+03  0.12141590580E+04  0.00000000000E+00 0.  1.
         22    1    1    2    0    0  0.88764811472E+03 -0.10410480459E+04  0.33643055876E+03  0.14088597270E+04  0.00000000000E+00 0. -1.
<mgrwt>
<rscale>  0 0.28339337E+04</rscale>
<asrwt>0</asrwt>
<pdfrwt beam="1">  1        2 0.36154636E+00 0.28339337E+04</pdfrwt>
<pdfrwt beam="2">  1       -2 0.13144034E+00 0.28339337E+04</pdfrwt>
<totfact> 0.15557471E+00</totfact>
</mgrwt>
</event>
<event>
 6    1  0.1028026E-006  0.1632633E+04  0.7818608E-02  0.8800747E-01
          1   -1    0    0  501    0  0.00000000000E+00  0.00000000000E+00  0.55457882061E+03  0.55457882061E+03  0.00000000000E+00 0. -1.
         -1   -1    0    0    0  501 -0.00000000000E+00 -0.00000000000E+00 -0.12015839964E+04  0.12015839964E+04  0.00000000000E+00 0.  1.
         23    2    1    2    0    0  0.59030462241E+02  0.67416122413E+03 -0.81065717142E+03  0.10599157867E+04  0.90986118190E+02 0.  0.
         11    1    3    3    0    0  0.81562740705E+02  0.45232531040E+03 -0.55871780785E+03  0.72347512460E+03  0.00000000000E+00 0.  1.
        -11    1    3    3    0    0 -0.22532278464E+02  0.22183591373E+03 -0.25193936356E+03  0.33644066209E+03  0.00000000000E+00 0. -1.
         22    1    1    2    0    0 -0.59030462241E+02 -0.67416122413E+03  0.16365199562E+03  0.69624703034E+03  0.00000000000E+00 0.  1.
<mgrwt>
<rscale>  0 0.16326335E+04</rscale>
<asrwt>0</asrwt>
<pdfrwt beam="1">  1        1 0.85319819E-01 0.16326335E+04</pdfrwt>
<pdfrwt beam="2">  1       -1 0.18485908E+00 0.16326335E+04</pdfrwt>
<totfact> 0.70471558E+00</totfact>
</mgrwt>
</event>
<event>
 6    1  0.1028026E-006  0.1671372E+04  0.7818608E-02  0.8777862E-01
          1   -1    0    0  501    0  0.00000000000E+00  0.00000000000E+00  0.98046149000E+03  0.98046149000E+03  0.00000000000E+00 0. -1.
         -1   -1    0    0    0  501 -0.00000000000E+00 -0.00000000000E+00 -0.71228830411E+03  0.71228830411E+03  0.00000000000E+00 0.  1.
         23    2    1    2    0    0 -0.48383924739E+03 -0.22726603561E+03  0.78170867793E+03  0.95148805231E+03  0.92253933643E+02 0.  0.
         13    1    3    3    0    0 -0.25557186276E+03 -0.16316356340E+03  0.39634413768E+03  0.49902705431E+03  0.00000000000E+00 0.  1.
        -13    1    3    3    0    0 -0.22826738464E+03 -0.64102472213E+02  0.38536454025E+03  0.45246099800E+03  0.00000000000E+00 0. -1.
         22    1    1    2    0    0  0.48383924739E+03  0.22726603561E+03 -0.51353549204E+03  0.74126174179E+03  0.00000000000E+00 0.  1.
<mgrwt>
<rscale>  0 0.16713722E+04</rscale>
<asrwt>0</asrwt>
<pdfrwt beam="1">  1        1 0.15084023E+00 0.16713722E+04</pdfrwt>
<pdfrwt beam="2">  1       -1 0.10958282E+00 0.16713722E+04</pdfrwt>
<totfact> 0.11517442E+01</totfact>
</mgrwt>
</event>
<event>
 6    1  0.1028026E-006  0.2322017E+04  0.7818608E-02  0.8469290E-01
         -1   -1    0    0    0  501 -0.00000000000E+00  0.00000000000E+00  0.10202481974E+04  0.10202481974E+04  0.00000000000E+00 0.  1.
          1   -1    0    0  501    0  0.00000000000E+00 -0.00000000000E+00 -0.13211888103E+04  0.13211888103E+04  0.00000000000E+00 0. -1.
         23    2    1    2    0    0  0.81002638924E+03 -0.82878336424E+03 -0.12461419766E+03  0.11692102289E+04  0.92191349912E+02 0.  0.
         13    1    3    3    0    0  0.18937471986E+03 -0.18863597259E+03 -0.67890933438E+02  0.27578160476E+03  0.00000000000E+00 0. -1.
        -13    1    3    3    0    0  0.62065166937E+03 -0.64014739165E+03 -0.56723264223E+02  0.89342862414E+03  0.00000000000E+00 0.  1.
         22    1    1    2    0    0 -0.81002638924E+03  0.82878336424E+03 -0.17632641527E+03  0.11722267787E+04  0.00000000000E+00 0.  1.
<mgrwt>
<rscale>  0 0.23220168E+04</rscale>
<asrwt>0</asrwt>
<pdfrwt beam="1">  1        1 0.20325982E+00 0.23220168E+04</pdfrwt>
<pdfrwt beam="2">  1       -1 0.15696126E+00 0.23220168E+04</pdfrwt>
<totfact> 0.24295379E+00</totfact>
</mgrwt>
</event>
<event>
 6    1  0.1319192E-006  0.4741798E+04  0.7818608E-02  0.7869621E-01
         -2   -1    0    0    0  501 -0.00000000000E+00  0.00000000000E+00  0.18136754808E+04  0.18136754808E+04  0.00000000000E+00 0.  1.
          2   -1    0    0  501    0  0.00000000000E+00 -0.00000000000E+00 -0.30993202248E+04  0.30993202248E+04  0.00000000000E+00 0. -1.
         23    2    1    2    0    0  0.22355642920E+04 -0.95035083695E+02 -0.14526384439E+04  0.26691895048E+04  0.87377304017E+02 0.  0.
         13    1    3    3    0    0  0.55594467764E+03 -0.36062072409E+02 -0.31959879124E+03  0.64227591036E+03  0.00000000000E+00 0.  1.
        -13    1    3    3    0    0  0.16796196143E+04 -0.58973011286E+02 -0.11330396527E+04  0.20269135945E+04  0.00000000000E+00 0. -1.
         22    1    1    2    0    0 -0.22355642920E+04  0.95035083695E+02  0.16699369990E+03  0.22438062007E+04  0.00000000000E+00 0.  1.
<mgrwt>
<rscale>  0 0.47417976E+04</rscale>
<asrwt>0</asrwt>
<pdfrwt beam="1">  1        2 0.47681849E+00 0.47417976E+04</pdfrwt>
<pdfrwt beam="2">  1       -2 0.27902700E+00 0.47417976E+04</pdfrwt>
<totfact> 0.47753185E-02</totfact>
</mgrwt>
</event>
<event>
 6    1  0.1028026E-006  0.3359747E+04  0.7818608E-02  0.8147857E-01
          1   -1    0    0  501    0  0.00000000000E+00  0.00000000000E+00  0.17710207602E+04  0.17710207602E+04  0.00000000000E+00 0. -1.
         -1   -1    0    0    0  501 -0.00000000000E+00 -0.00000000000E+00 -0.15934175571E+04  0.15934175571E+04  0.00000000000E+00 0.  1.
         23    2    1    2    0    0  0.15645401879E+03 -0.85631504901E+03 -0.13483198816E+04  0.16076814805E+04  0.94445309531E+02 0.  0.
         13    1    3    3    0    0  0.14943227128E+03 -0.59888099610E+03 -0.91902340426E+03  0.11070647988E+04  0.00000000000E+00 0.  1.
        -13    1    3    3    0    0  0.70217475149E+01 -0.25743405290E+03 -0.42929647736E+03  0.50061668171E+03  0.00000000000E+00 0. -1.
         22    1    1    2    0    0 -0.15645401879E+03  0.85631504901E+03  0.15259230847E+04  0.17567568367E+04  0.00000000000E+00 0. -1.
<mgrwt>
<rscale>  0 0.33597474E+04</rscale>
<asrwt>0</asrwt>
<pdfrwt beam="1">  1        1 0.27246473E+00 0.33597474E+04</pdfrwt>
<pdfrwt beam="2">  1       -1 0.24514116E+00 0.33597474E+04</pdfrwt>
<totfact> 0.26400485E-01</totfact>
</mgrwt>
</event>
<event>
 6    1  0.1028026E-006  0.3518219E+04  0.7818608E-02  0.8109486E-01
         -2   -1    0    0    0  501 -0.00000000000E+00  0.00000000000E+00  0.76517522883E+03  0.76517522883E+03  0.00000000000E+00 0.  1.
          2   -1    0    0  501    0  0.00000000000E+00 -0.00000000000E+00 -0.40441269255E+04  0.40441269255E+04  0.00000000000E+00 0. -1.
         23    2    1    2    0    0  0.81187983219E+03 -0.57315148753E+03 -0.36227775361E+04  0.37576997117E+04  0.90213954194E+02 0.  0.
         13    1    3    3    0    0  0.51522985358E+03 -0.32430429712E+03 -0.23256179006E+04  0.24039828824E+04  0.00000000000E+00 0.  1.
        -13    1    3    3    0    0  0.29664997861E+03 -0.24884719041E+03 -0.12971596355E+04  0.13537168293E+04  0.00000000000E+00 0. -1.
         22    1    1    2    0    0 -0.81187983219E+03  0.57315148753E+03  0.34382583942E+03  0.10516024427E+04  0.00000000000E+00 0.  1.
<mgrwt>
<rscale>  0 0.35182187E+04</rscale>
<asrwt>0</asrwt>
<pdfrwt beam="1">  1        2 0.62217337E+00 0.35182187E+04</pdfrwt>
<pdfrwt beam="2">  1       -2 0.11771927E+00 0.35182187E+04</pdfrwt>
<totfact> 0.14345892E-01</totfact>
</mgrwt>
</event>
<event>
 6    1  0.1028026E-006  0.1953742E+04  0.7818608E-02  0.8628558E-01
         -2   -1    0    0    0  501 -0.00000000000E+00  0.00000000000E+00  0.82369673814E+03  0.82369673814E+03  0.00000000000E+00 0.  1.
          2   -1    0    0  501    0  0.00000000000E+00 -0.00000000000E+00 -0.11585295135E+04  0.11585295135E+04  0.00000000000E+00 0. -1.
         23    2    1    2    0    0  0.62493409128E+03  0.74236852907E+03 -0.74927635233E+02  0.97763462652E+03  0.92204452354E+02 0.  0.
         13    1    3    3    0    0  0.19070229784E+03  0.29470164519E+03 -0.32538629027E+02  0.35252686204E+03  0.00000000000E+00 0. -1.
        -13    1    3    3    0    0  0.43423179344E+03  0.44766688388E+03 -0.42389006205E+02  0.62510776448E+03  0.00000000000E+00 0.  1.
         22    1    1    2    0    0 -0.62493409128E+03 -0.74236852907E+03 -0.25990514013E+03  0.10045916251E+04  0.00000000000E+00 0. -1.
<mgrwt>
<rscale>  0 0.19537420E+04</rscale>
<asrwt>0</asrwt>
<pdfrwt beam="1">  1        2 0.17823531E+00 0.19537420E+04</pdfrwt>
<pdfrwt beam="2">  1       -2 0.12672257E+00 0.19537420E+04</pdfrwt>
<totfact> 0.86678011E+00</totfact>
</mgrwt>
</event>
<event>
 6    1  0.1028026E-006  0.2353437E+04  0.7818608E-02  0.8457145E-01
         -1   -1    0    0    0  501 -0.00000000000E+00  0.00000000000E+00  0.83703342885E+03  0.83703342885E+03  0.00000000000E+00 0.  1.
          1   -1    0    0  501    0  0.00000000000E+00 -0.00000000000E+00 -0.16542539392E+04  0.16542539392E+04  0.00000000000E+00 0. -1.
         23    2    1    2    0    0 -0.34804810195E+03 -0.41509131596E+03  0.69498814702E+03  0.88498312997E+03  0.82148243846E+02 0.  0.
         13    1    3    3    0    0 -0.15960531152E+03 -0.21131534811E+03  0.27684184665E+03  0.38310499849E+03  0.00000000000E+00 0.  1.
        -13    1    3    3    0    0 -0.18844279043E+03 -0.20377596785E+03  0.41814630037E+03  0.50187813148E+03  0.00000000000E+00 0. -1.
         22    1    1    2    0    0  0.34804810195E+03  0.41509131596E+03 -0.15122086574E+04  0.16063042381E+04  0.00000000000E+00 0. -1.
<mgrwt>
<rscale>  0 0.23534365E+04</rscale>
<asrwt>0</asrwt>
<pdfrwt beam="1">  1        1 0.25450061E+00 0.23534365E+04</pdfrwt>
<pdfrwt beam="2">  1       -1 0.12877437E+00 0.23534365E+04</pdfrwt>
<totfact> 0.23935624E+00</totfact>
</mgrwt>
</event>
<event>
 6    1  0.1028026E-006  0.5638351E+04  0.7818608E-02  0.7736934E-01
          1   -1    0    0  501    0  0.00000000000E+00  0.00000000000E+00  0.39221473709E+04  0.39221473709E+04  0.00000000000E+00 0. -1.
         -1   -1    0    0    0  501 -0.00000000000E+00 -0.00000000000E+00 -0.20263772901E+04  0.20263772901E+04  0.00000000000E+00 0.  1.
         23    2    1    2    0    0 -0.21149063435E+04 -0.17445614821E+04  0.16379401427E+04  0.31948362466E+04  0.88357937334E+02 0.  0.
         13    1    3    3    0    0 -0.12388024660E+04 -0.97336632282E+03  0.91459352713E+03  0.18216901131E+04  0.00000000000E+00 0. -1.
        -13    1    3    3    0    0 -0.87610387755E+03 -0.77119515924E+03  0.72334661558E+03  0.13731461336E+04  0.00000000000E+00 0.  1.
         22    1    1    2    0    0  0.21149063435E+04  0.17445614821E+04  0.25782993808E+03  0.27536884144E+04  0.00000000000E+00 0.  1.
<mgrwt>
<rscale>  0 0.56383510E+04</rscale>
<asrwt>0</asrwt>
<pdfrwt beam="1">  1        1 0.60340729E+00 0.56383510E+04</pdfrwt>
<pdfrwt beam="2">  1       -1 0.31175035E+00 0.56383510E+04</pdfrwt>
<totfact> 0.21274039E-03</totfact>
</mgrwt>
</event>
<event>
 6    1  0.1028026E-006  0.2182735E+04  0.7818608E-02  0.8525649E-01
          2   -1    0    0  501    0  0.00000000000E+00  0.00000000000E+00  0.73815227420E+03  0.73815227420E+03  0.00000000000E+00 0. -1.
         -2   -1    0    0    0  501 -0.00000000000E+00 -0.00000000000E+00 -0.16136005573E+04  0.16136005573E+04  0.00000000000E+00 0.  1.
         23    2    1    2    0    0 -0.50853427643E+03 -0.70351729774E+03 -0.11477480943E+04  0.14419776473E+04  0.91815842068E+02 0.  0.
         13    1    3    3    0    0 -0.16980951480E+03 -0.30162363132E+03 -0.49264292647E+03  0.60208731866E+03  0.00000000000E+00 0.  1.
        -13    1    3    3    0    0 -0.33872476163E+03 -0.40189366641E+03 -0.65510516787E+03  0.83989032868E+03  0.00000000000E+00 0. -1.
         22    1    1    2    0    0  0.50853427643E+03  0.70351729774E+03  0.27229981124E+03  0.90977518416E+03  0.00000000000E+00 0. -1.
<mgrwt>
<rscale>  0 0.21827349E+04</rscale>
<asrwt>0</asrwt>
<pdfrwt beam="1">  1        2 0.11356189E+00 0.21827349E+04</pdfrwt>
<pdfrwt beam="2">  1       -2 0.24824624E+00 0.21827349E+04</pdfrwt>
<totfact> 0.23079799E+00</totfact>
</mgrwt>
</event>
<event>
 6    1  0.1114332E-006  0.3255196E+04  0.7818608E-02  0.8174390E-01
         -2   -1    0    0    0  501 -0.00000000000E+00  0.00000000000E+00  0.90691826475E+03  0.90691826475E+03  0.00000000000E+00 0.  1.
          2   -1    0    0  501    0  0.00000000000E+00 -0.00000000000E+00 -0.29209643202E+04  0.29209643202E+04  0.00000000000E+00 0. -1.
         23    2    1    2    0    0 -0.11035718264E+04 -0.72153937326E+03 -0.21273754321E+04  0.25045030511E+04  0.91211075298E+02 0.  0.
         13    1    3    3    0    0 -0.46970598508E+03 -0.32919812362E+03 -0.84743631969E+03  0.10233002653E+04  0.00000000000E+00 0. -1.
        -13    1    3    3    0    0 -0.63386584135E+03 -0.39234124963E+03 -0.12799391124E+04  0.14812027858E+04  0.00000000000E+00 0.  1.
         22    1    1    2    0    0  0.11035718264E+04  0.72153937326E+03  0.11332937664E+03  0.13233795339E+04  0.00000000000E+00 0.  1.
<mgrwt>
<rscale>  0 0.32551964E+04</rscale>
<asrwt>0</asrwt>
<pdfrwt beam="1">  1        2 0.44937912E+00 0.32551964E+04</pdfrwt>
<pdfrwt beam="2">  1       -2 0.13952589E+00 0.32551964E+04</pdfrwt>
<totfact> 0.59194291E-01</totfact>
</mgrwt>
</event>
<event>
 6    1  0.1028026E-006  0.3889781E+04  0.7818608E-02  0.8027158E-01
          1   -1    0    0  501    0  0.00000000000E+00  0.00000000000E+00  0.10603160642E+04  0.10603160642E+04  0.00000000000E+00 0. -1.
         -1   -1    0    0    0  501 -0.00000000000E+00 -0.00000000000E+00 -0.35674260846E+04  0.35674260846E+04  0.00000000000E+00 0.  1.
         23    2    1    2    0    0 -0.13620194512E+04 -0.12135068342E+03 -0.28978490852E+04  0.32055958868E+04  0.92155819048E+02 0.  0.
         13    1    3    3    0    0 -0.44240769533E+03  0.30078795345E+01 -0.91608047395E+03  0.10173185592E+04  0.00000000000E+00 0. -1.
        -13    1    3    3    0    0 -0.91961175587E+03 -0.12435856295E+03 -0.19817686113E+04  0.21882773276E+04  0.00000000000E+00 0.  1.
         22    1    1    2    0    0  0.13620194512E+04  0.12135068342E+03  0.39073906487E+03  0.14221462620E+04  0.00000000000E+00 0.  1.
<mgrwt>
<rscale>  0 0.38897811E+04</rscale>
<asrwt>0</asrwt>
<pdfrwt beam="1">  1        1 0.16312555E+00 0.38897811E+04</pdfrwt>
<pdfrwt beam="2">  1       -1 0.54883479E+00 0.38897811E+04</pdfrwt>
<totfact> 0.81795419E-03</totfact>
</mgrwt>
</event>
<event>
 6    1  0.1028026E-006  0.2723374E+04  0.7818608E-02  0.8327460E-01
         -2   -1    0    0    0  501 -0.00000000000E+00  0.00000000000E+00  0.53178927519E+03  0.53178927519E+03  0.00000000000E+00 0.  1.
          2   -1    0    0  501    0  0.00000000000E+00 -0.00000000000E+00 -0.34867044751E+04  0.34867044751E+04  0.00000000000E+00 0. -1.
         23    2    1    2    0    0 -0.93862315447E+03  0.88647314562E+03 -0.21105106240E+04  0.24758119451E+04  0.92420938211E+02 0.  0.
         11    1    3    3    0    0 -0.25218506066E+03  0.29641169383E+03 -0.63213413211E+03  0.74232793160E+03  0.00000000000E+00 0.  1.
        -11    1    3    3    0    0 -0.68643809381E+03  0.59006145179E+03 -0.14783764919E+04  0.17334840135E+04  0.00000000000E+00 0. -1.
         22    1    1    2    0    0  0.93862315447E+03 -0.88647314562E+03 -0.84440457590E+03  0.15426818051E+04  0.00000000000E+00 0. -1.
<mgrwt>
<rscale>  0 0.27233744E+04</rscale>
<asrwt>0</asrwt>
<pdfrwt beam="1">  1        2 0.53641604E+00 0.27233744E+04</pdfrwt>
<pdfrwt beam="2">  1       -2 0.81813739E-01 0.27233744E+04</pdfrwt>
<totfact> 0.95580382E-01</totfact>
</mgrwt>
</event>
<event>
 6    1  0.1028026E-006  0.1403280E+04  0.7818608E-02  0.8951448E-01
         -2   -1    0    0    0  501 -0.00000000000E+00  0.00000000000E+00  0.17555061097E+03  0.17555061097E+03  0.00000000000E+00 0.  1.
          2   -1    0    0  501    0  0.00000000000E+00 -0.00000000000E+00 -0.28043125071E+04  0.28043125071E+04  0.00000000000E+00 0. -1.
         23    2    1    2    0    0 -0.29455642833E+03 -0.45781642585E+03 -0.22496170077E+04  0.23164550870E+04  0.93958073548E+02 0.  0.
         13    1    3    3    0    0 -0.15762864517E+03 -0.16075618353E+03 -0.94756823169E+03  0.97394809617E+03  0.00000000000E+00 0.  1.
        -13    1    3    3    0    0 -0.13692778316E+03 -0.29706024232E+03 -0.13020487760E+04  0.13425069908E+04  0.00000000000E+00 0. -1.
         22    1    1    2    0    0  0.29455642833E+03  0.45781642585E+03 -0.37914488844E+03  0.66340803106E+03  0.00000000000E+00 0.  1.
<mgrwt>
<rscale>  0 0.14032801E+04</rscale>
<asrwt>0</asrwt>
<pdfrwt beam="1">  1        2 0.43143267E+00 0.14032801E+04</pdfrwt>
<pdfrwt beam="2">  1       -2 0.27007788E-01 0.14032801E+04</pdfrwt>
<totfact> 0.28051697E+01</totfact>
</mgrwt>
</event>
<event>
 6    1  0.1028026E-006  0.3057822E+04  0.7818608E-02  0.8227410E-01
          2   -1    0    0  501    0  0.00000000000E+00  0.00000000000E+00  0.16121158765E+04  0.16121158765E+04  0.00000000000E+00 0. -1.
         -2   -1    0    0    0  501 -0.00000000000E+00 -0.00000000000E+00 -0.14500002647E+04  0.14500002647E+04  0.00000000000E+00 0.  1.
         23    2    1    2    0    0  0.53062868537E+02 -0.70939207260E+03  0.14347835811E+04  0.16041255581E+04  0.92531621289E+02 0.  0.
         13    1    3    3    0    0  0.16459728008E+02 -0.33875663910E+03  0.58294584037E+03  0.67442778411E+03  0.00000000000E+00 0. -1.
        -13    1    3    3    0    0  0.36603140529E+02 -0.37063543349E+03  0.85183774069E+03  0.92969777397E+03  0.00000000000E+00 0.  1.
         22    1    1    2    0    0 -0.53062868537E+02  0.70939207260E+03 -0.12726679692E+04  0.14579905832E+04  0.00000000000E+00 0.  1.
<mgrwt>
<rscale>  0 0.30578217E+04</rscale>
<asrwt>0</asrwt>
<pdfrwt beam="1">  1        2 0.24801783E+00 0.30578217E+04</pdfrwt>
<pdfrwt beam="2">  1       -2 0.22307696E+00 0.30578217E+04</pdfrwt>
<totfact> 0.88404298E-01</totfact>
</mgrwt>
</event>
<event>
 6    1  0.1028026E-006  0.1742301E+04  0.7818608E-02  0.8737600E-01
          1   -1    0    0  501    0  0.00000000000E+00  0.00000000000E+00  0.34300128141E+03  0.34300128141E+03  0.00000000000E+00 0. -1.
         -1   -1    0    0    0  501 -0.00000000000E+00 -0.00000000000E+00 -0.22125375290E+04  0.22125375290E+04  0.00000000000E+00 0.  1.
         23    2    1    2    0    0 -0.25670443377E+03  0.44740678510E+03  0.87682903923E+02  0.53148920511E+03  0.93394249503E+02 0.  0.
         13    1    3    3    0    0 -0.66866493231E+02  0.86228228677E+02  0.54886989880E+02  0.12214342797E+03  0.00000000000E+00 0. -1.
        -13    1    3    3    0    0 -0.18983794054E+03  0.36117855642E+03  0.32795914043E+02  0.40934577714E+03  0.00000000000E+00 0.  1.
         22    1    1    2    0    0  0.25670443377E+03 -0.44740678510E+03 -0.19572191515E+04  0.20240496053E+04  0.00000000000E+00 0.  1.
<mgrwt>
<rscale>  0 0.17423010E+04</rscale>
<asrwt>0</asrwt>
<pdfrwt beam="1">  1        1 0.52769427E-01 0.17423010E+04</pdfrwt>
<pdfrwt beam="2">  1       -1 0.34039039E+00 0.17423010E+04</pdfrwt>
<totfact> 0.12577308E+00</totfact>
</mgrwt>
</event>
<event>
 6    1  0.1028026E-006  0.3439293E+04  0.7818608E-02  0.8128329E-01
          2   -1    0    0  501    0  0.00000000000E+00  0.00000000000E+00  0.16771429628E+04  0.16771429628E+04  0.00000000000E+00 0. -1.
         -2   -1    0    0    0  501 -0.00000000000E+00 -0.00000000000E+00 -0.17632271156E+04  0.17632271156E+04  0.00000000000E+00 0.  1.
         23    2    1    2    0    0  0.17170529189E+04 -0.28501094420E+01 -0.11161467173E+03  0.17231250008E+04  0.91777361184E+02 0.  0.
         13    1    3    3    0    0  0.29951911824E+03 -0.10939378068E+02 -0.52909500246E+02  0.30435306373E+03  0.00000000000E+00 0.  1.
        -13    1    3    3    0    0  0.14175338006E+04  0.80892686259E+01 -0.58705171488E+02  0.14187719370E+04  0.00000000000E+00 0. -1.
         22    1    1    2    0    0 -0.17170529189E+04  0.28501094420E+01  0.25530518954E+02  0.17172450776E+04  0.00000000000E+00 0. -1.
<mgrwt>
<rscale>  0 0.34392929E+04</rscale>
<asrwt>0</asrwt>
<pdfrwt beam="1">  1        2 0.25802199E+00 0.34392929E+04</pdfrwt>
<pdfrwt beam="2">  1       -2 0.27126571E+00 0.34392929E+04</pdfrwt>
<totfact> 0.39705330E-01</totfact>
</mgrwt>
</event>
<event>
 6    1  0.1028026E-006  0.4062217E+04  0.7818608E-02  0.7992112E-01
         -2   -1    0    0    0  501 -0.00000000000E+00  0.00000000000E+00  0.10739960089E+04  0.10739960089E+04  0.00000000000E+00 0.  1.
          2   -1    0    0  501    0  0.00000000000E+00 -0.00000000000E+00 -0.38411708707E+04  0.38411708707E+04  0.00000000000E+00 0. -1.
         23    2    1    2    0    0 -0.30727725441E+03 -0.22022850058E+03 -0.37976561860E+04  0.38175277481E+04  0.91682588053E+02 0.  0.
         13    1    3    3    0    0 -0.21238559684E+03 -0.16068919804E+03 -0.22240336559E+04  0.22399228474E+04  0.00000000000E+00 0. -1.
        -13    1    3    3    0    0 -0.94891657566E+02 -0.59539302537E+02 -0.15736225301E+04  0.15776049006E+04  0.00000000000E+00 0.  1.
         22    1    1    2    0    0  0.30727725441E+03  0.22022850058E+03  0.10304813242E+04  0.10976391315E+04  0.00000000000E+00 0.  1.
<mgrwt>
<rscale>  0 0.40622172E+04</rscale>
<asrwt>0</asrwt>
<pdfrwt beam="1">  1        2 0.59094938E+00 0.40622172E+04</pdfrwt>
<pdfrwt beam="2">  1       -2 0.16523015E+00 0.40622172E+04</pdfrwt>
<totfact> 0.82430122E-02</totfact>
</mgrwt>
</event>
<event>
 6    1  0.1028026E-006  0.1664727E+04  0.7818608E-02  0.8781741E-01
         -1   -1    0    0    0  501 -0.00000000000E+00  0.00000000000E+00  0.34535929663E+03  0.34535929663E+03  0.00000000000E+00 0.  1.
          1   -1    0    0  501    0  0.00000000000E+00 -0.00000000000E+00 -0.20061108506E+04  0.20061108506E+04  0.00000000000E+00 0. -1.
         23    2    1    2    0    0  0.42865302537E+03  0.35310894644E+03 -0.17040270148E+04  0.17944224745E+04  0.88400258898E+02 0.  0.
         13    1    3    3    0    0  0.80813258895E+02  0.42965497042E+02 -0.20216485563E+03  0.22191765500E+03  0.00000000000E+00 0. -1.
        -13    1    3    3    0    0  0.34783976647E+03  0.31014344940E+03 -0.15018621591E+04  0.15725048195E+04  0.00000000000E+00 0.  1.
         22    1    1    2    0    0 -0.42865302537E+03 -0.35310894644E+03  0.43275460768E+02  0.55704767275E+03  0.00000000000E+00 0.  1.
<mgrwt>
<rscale>  0 0.16647270E+04</rscale>
<asrwt>0</asrwt>
<pdfrwt beam="1">  1        1 0.30863244E+00 0.16647270E+04</pdfrwt>
<pdfrwt beam="2">  1       -1 0.53132199E-01 0.16647270E+04</pdfrwt>
<totfact> 0.10066918E+01</totfact>
</mgrwt>
</event>
<event>
 6    1  0.1028026E-006  0.1529960E+04  0.7818608E-02  0.8864770E-01
          2   -1    0    0  501    0  0.00000000000E+00  0.00000000000E+00  0.13127477886E+04  0.13127477886E+04  0.00000000000E+00 0. -1.
         -2   -1    0    0    0  501 -0.00000000000E+00 -0.00000000000E+00 -0.44577844458E+03  0.44577844458E+03  0.00000000000E+00 0.  1.
         23    2    1    2    0    0  0.65297086000E+03  0.33921952443E+03  0.20657529556E+03  0.76980932272E+03  0.92153192273E+02 0.  0.
         13    1    3    3    0    0  0.82366683782E+02  0.73861179966E+02  0.12853082629E+02  0.11137749430E+03  0.00000000000E+00 0. -1.
        -13    1    3    3    0    0  0.57060417622E+03  0.26535834447E+03  0.19372221294E+03  0.65843182842E+03  0.00000000000E+00 0.  1.
         22    1    1    2    0    0 -0.65297086000E+03 -0.33921952443E+03  0.66039404841E+03  0.98871691041E+03  0.00000000000E+00 0.  1.
<mgrwt>
<rscale>  0 0.15299603E+04</rscale>
<asrwt>0</asrwt>
<pdfrwt beam="1">  1        2 0.20196120E+00 0.15299603E+04</pdfrwt>
<pdfrwt beam="2">  1       -2 0.68581300E-01 0.15299603E+04</pdfrwt>
<totfact> 0.30452886E+01</totfact>
</mgrwt>
</event>
<event>
 6    1  0.1028026E-006  0.6210767E+04  0.7818608E-02  0.7664805E-01
         -2   -1    0    0    0  501 -0.00000000000E+00  0.00000000000E+00  0.28227056120E+04  0.28227056120E+04  0.00000000000E+00 0.  1.
          2   -1    0    0  501    0  0.00000000000E+00 -0.00000000000E+00 -0.34163705001E+04  0.34163705001E+04  0.00000000000E+00 0. -1.
         23    2    1    2    0    0  0.66306360270E+03  0.30319857495E+04 -0.21490223595E+03  0.31124082255E+04  0.91165040657E+02 0.  0.
         11    1    3    3    0    0  0.41691246808E+03  0.20867772185E+04 -0.12972345259E+03  0.21319670119E+04  0.00000000000E+00 0. -1.
        -11    1    3    3    0    0  0.24615113462E+03  0.94520853099E+03 -0.85178783358E+02  0.98044121357E+03  0.00000000000E+00 0.  1.
         22    1    1    2    0    0 -0.66306360270E+03 -0.30319857495E+04 -0.37876265214E+03  0.31266678866E+04  0.00000000000E+00 0.  1.
<mgrwt>
<rscale>  0 0.62107675E+04</rscale>
<asrwt>0</asrwt>
<pdfrwt beam="1">  1        2 0.52559546E+00 0.62107675E+04</pdfrwt>
<pdfrwt beam="2">  1       -2 0.43426240E+00 0.62107675E+04</pdfrwt>
<totfact> 0.27198540E-03</totfact>
</mgrwt>
</event>
<event>
 6    1  0.1028026E-006  0.4396442E+04  0.7818608E-02  0.7929022E-01
         -2   -1    0    0    0  501 -0.00000000000E+00  0.00000000000E+00  0.29714396614E+04  0.29714396614E+04  0.00000000000E+00 0.  1.
          2   -1    0    0  501    0  0.00000000000E+00 -0.00000000000E+00 -0.16262070879E+04  0.16262070879E+04  0.00000000000E+00 0. -1.
         23    2    1    2    0    0  0.21104393372E+04  0.26508039915E+03  0.96937422795E+02  0.21313818410E+04  0.95759460808E+02 0.  0.
         11    1    3    3    0    0  0.13916001583E+04  0.21662369789E+03  0.82309639082E+02  0.14107628092E+04  0.00000000000E+00 0. -1.
        -11    1    3    3    0    0  0.71883917893E+03  0.48456701261E+02  0.14627783714E+02  0.72061903189E+03  0.00000000000E+00 0.  1.
         22    1    1    2    0    0 -0.21104393372E+04 -0.26508039915E+03  0.12482951507E+04  0.24662649082E+04  0.00000000000E+00 0.  1.
<mgrwt>
<rscale>  0 0.43964423E+04</rscale>
<asrwt>0</asrwt>
<pdfrwt beam="1">  1        2 0.25018571E+00 0.43964423E+04</pdfrwt>
<pdfrwt beam="2">  1       -2 0.45714456E+00 0.43964423E+04</pdfrwt>
<totfact> 0.25682840E-02</totfact>
</mgrwt>
</event>
<event>
 6    1  0.1028026E-006  0.1377644E+04  0.7818608E-02  0.8970161E-01
         -2   -1    0    0    0  501 -0.00000000000E+00  0.00000000000E+00  0.33640220932E+03  0.33640220932E+03  0.00000000000E+00 0.  1.
          2   -1    0    0  501    0  0.00000000000E+00 -0.00000000000E+00 -0.14104427624E+04  0.14104427624E+04  0.00000000000E+00 0. -1.
         23    2    1    2    0    0  0.42404815571E+03 -0.39034921943E+03 -0.10106581203E+04  0.11670116472E+04  0.91087854074E+02 0.  0.
         11    1    3    3    0    0  0.33415315613E+03 -0.34200863257E+03 -0.78185235727E+03  0.91647222821E+03  0.00000000000E+00 0.  1.
        -11    1    3    3    0    0  0.89894999579E+02 -0.48340586864E+02 -0.22880576301E+03  0.25053941900E+03  0.00000000000E+00 0. -1.
         22    1    1    2    0    0 -0.42404815571E+03  0.39034921943E+03 -0.63382432830E+02  0.57983332455E+03  0.00000000000E+00 0.  1.
<mgrwt>
<rscale>  0 0.13776445E+04</rscale>
<asrwt>0</asrwt>
<pdfrwt beam="1">  1        2 0.21699119E+00 0.13776445E+04</pdfrwt>
<pdfrwt beam="2">  1       -2 0.51754187E-01 0.13776445E+04</pdfrwt>
<totfact> 0.49049856E+01</totfact>
</mgrwt>
</event>
<event>
 6    1  0.1028026E-006  0.1481409E+04  0.7818608E-02  0.8896911E-01
          2   -1    0    0  501    0  0.00000000000E+00  0.00000000000E+00  0.18801563408E+04  0.18801563408E+04  0.00000000000E+00 0. -1.
         -2   -1    0    0    0  501 -0.00000000000E+00 -0.00000000000E+00 -0.29180704225E+03  0.29180704225E+03  0.00000000000E+00 0.  1.
         23    2    1    2    0    0 -0.41555122991E+03  0.59115001635E+03  0.10161333379E+04  0.12502409345E+04  0.91838268041E+02 0.  0.
         11    1    3    3    0    0 -0.89233351453E+02  0.10636779804E+03  0.25843523969E+03  0.29336917456E+03  0.00000000000E+00 0.  1.
        -11    1    3    3    0    0 -0.32631787845E+03  0.48478221831E+03  0.75769809822E+03  0.95687175997E+03  0.00000000000E+00 0. -1.
         22    1    1    2    0    0  0.41555122991E+03 -0.59115001635E+03  0.57221596070E+03  0.92172244856E+03  0.00000000000E+00 0.  1.
<mgrwt>
<rscale>  0 0.14814086E+04</rscale>
<asrwt>0</asrwt>
<pdfrwt beam="1">  1        2 0.28925481E+00 0.14814086E+04</pdfrwt>
<pdfrwt beam="2">  1       -2 0.44893392E-01 0.14814086E+04</pdfrwt>
<totfact> 0.35463264E+01</totfact>
</mgrwt>
</event>
<event>
 6    1  0.1028026E-006  0.2646859E+04  0.7818608E-02  0.8352456E-01
          3   -1    0    0  501    0  0.00000000000E+00  0.00000000000E+00  0.12521417015E+04  0.12521417015E+04  0.00000000000E+00 0. -1.
         -3   -1    0    0    0  501 -0.00000000000E+00 -0.00000000000E+00 -0.13987755712E+04  0.13987755712E+04  0.00000000000E+00 0.  1.
         23    2    1    2    0    0  0.20935577881E+03  0.79879762247E+03 -0.11072484274E+04  0.13841545435E+04  0.89315376884E+02 0.  0.
         13    1    3    3    0    0  0.10629572390E+03  0.25617702666E+03 -0.40123904577E+03  0.48776861498E+03  0.00000000000E+00 0. -1.
        -13    1    3    3    0    0  0.10306005491E+03  0.54262059581E+03 -0.70600938163E+03  0.89638592853E+03  0.00000000000E+00 0.  1.
         22    1    1    2    0    0 -0.20935577881E+03 -0.79879762247E+03  0.96061455769E+03  0.12667627293E+04  0.00000000000E+00 0. -1.
<mgrwt>
<rscale>  0 0.26468587E+04</rscale>
<asrwt>0</asrwt>
<pdfrwt beam="1">  1        3 0.19263719E+00 0.26468587E+04</pdfrwt>
<pdfrwt beam="2">  1       -3 0.21519624E+00 0.26468587E+04</pdfrwt>
<totfact> 0.44294203E-02</totfact>
</mgrwt>
</event>
<event>
 6    1  0.1028026E-006  0.4031534E+04  0.7818608E-02  0.7998215E-01
          2   -1    0    0  501    0  0.00000000000E+00  0.00000000000E+00  0.28218765929E+04  0.28218765929E+04  0.00000000000E+00 0. -1.
         -2   -1    0    0    0  501 -0.00000000000E+00 -0.00000000000E+00 -0.14399344469E+04  0.14399344469E+04  0.00000000000E+00 0.  1.
         23    2    1    2    0    0 -0.10207606060E+03 -0.26330032396E+03  0.28001525840E+04  0.28157586794E+04  0.88858675217E+02 0.  0.
         13    1    3    3    0    0 -0.10261132218E+03 -0.17733863829E+03  0.21931128146E+04  0.22026624557E+04  0.00000000000E+00 0.  1.
        -13    1    3    3    0    0  0.53526158786E+00 -0.85961685668E+02  0.60703976938E+03  0.61309622370E+03  0.00000000000E+00 0. -1.
         22    1    1    2    0    0  0.10207606060E+03  0.26330032396E+03 -0.14182104379E+04  0.14460523604E+04  0.00000000000E+00 0.  1.
<mgrwt>
<rscale>  0 0.40315344E+04</rscale>
<asrwt>0</asrwt>
<pdfrwt beam="1">  1        2 0.43413486E+00 0.40315344E+04</pdfrwt>
<pdfrwt beam="2">  1       -2 0.22152838E+00 0.40315344E+04</pdfrwt>
<totfact> 0.17053040E-01</totfact>
</mgrwt>
</event>
<event>
 6    1  0.1048940E-006  0.5019823E+04  0.7818608E-02  0.7825457E-01
          1   -1    0    0  501    0  0.00000000000E+00  0.00000000000E+00  0.30527002090E+04  0.30527002090E+04  0.00000000000E+00 0. -1.
         -1   -1    0    0    0  501 -0.00000000000E+00 -0.00000000000E+00 -0.20636342608E+04  0.20636342608E+04  0.00000000000E+00 0.  1.
         23    2    1    2    0    0  0.11732452589E+03 -0.20297442951E+04 -0.10042884986E+04  0.22690394555E+04  0.79484051934E+02 0.  0.
         11    1    3    3    0    0  0.83968210787E+02 -0.11003437933E+04 -0.50705695999E+03  0.12144603264E+04  0.00000000000E+00 0. -1.
        -11    1    3    3    0    0  0.33356315105E+02 -0.92940050186E+03 -0.49723153857E+03  0.10545791291E+04  0.00000000000E+00 0.  1.
         22    1    1    2    0    0 -0.11732452589E+03  0.20297442951E+04  0.19933544468E+04  0.28472950143E+04  0.00000000000E+00 0. -1.
<mgrwt>
<rscale>  0 0.50198234E+04</rscale>
<asrwt>0</asrwt>
<pdfrwt beam="1">  1        1 0.46964618E+00 0.50198234E+04</pdfrwt>
<pdfrwt beam="2">  1       -1 0.31748220E+00 0.50198234E+04</pdfrwt>
<totfact> 0.10018717E-02</totfact>
</mgrwt>
</event>
<event>
 6    1  0.1028026E-006  0.1337623E+04  0.7818608E-02  0.9000251E-01
          2   -1    0    0  501    0  0.00000000000E+00  0.00000000000E+00  0.12432591010E+04  0.12432591010E+04  0.00000000000E+00 0. -1.
         -2   -1    0    0    0  501 -0.00000000000E+00 -0.00000000000E+00 -0.35978727945E+03  0.35978727945E+03  0.00000000000E+00 0.  1.
         23    2    1    2    0    0  0.64342205490E+03 -0.12085739571E+03  0.29789975563E+03  0.72469958378E+03  0.88582004358E+02 0.  0.
         13    1    3    3    0    0  0.29452849789E+03 -0.75543234667E+02  0.94981196668E+02  0.31855179185E+03  0.00000000000E+00 0. -1.
        -13    1    3    3    0    0  0.34889355701E+03 -0.45314161043E+02  0.20291855896E+03  0.40614779193E+03  0.00000000000E+00 0.  1.
         22    1    1    2    0    0 -0.64342205490E+03  0.12085739571E+03  0.58557206591E+03  0.87834679666E+03  0.00000000000E+00 0.  1.
<mgrwt>
<rscale>  0 0.13376230E+04</rscale>
<asrwt>0</asrwt>
<pdfrwt beam="1">  1        2 0.19127063E+00 0.13376230E+04</pdfrwt>
<pdfrwt beam="2">  1       -2 0.55351890E-01 0.13376230E+04</pdfrwt>
<totfact> 0.53533351E+01</totfact>
</mgrwt>
</event>
<event>
 6    1  0.1028026E-006  0.1386441E+04  0.7818608E-02  0.8963692E-01
          2   -1    0    0  501    0  0.00000000000E+00  0.00000000000E+00  0.22008339522E+04  0.22008339522E+04  0.00000000000E+00 0. -1.
         -2   -1    0    0    0  501 -0.00000000000E+00 -0.00000000000E+00 -0.21835123484E+03  0.21835123484E+03  0.00000000000E+00 0.  1.
         23    2    1    2    0    0  0.26663710174E+03 -0.45925766946E+03  0.22615031180E+03  0.58432375636E+03  0.90979875479E+02 0.  0.
         13    1    3    3    0    0  0.18092203644E+03 -0.37339389518E+03  0.19818175311E+03  0.45981712832E+03  0.00000000000E+00 0. -1.
        -13    1    3    3    0    0  0.85715065296E+02 -0.85863774275E+02  0.27968558695E+02  0.12450662804E+03  0.00000000000E+00 0.  1.
         22    1    1    2    0    0 -0.26663710174E+03  0.45925766946E+03  0.17563324055E+04  0.18348614306E+04  0.00000000000E+00 0. -1.
<mgrwt>
<rscale>  0 0.13864412E+04</rscale>
<asrwt>0</asrwt>
<pdfrwt beam="1">  1        2 0.33858982E+00 0.13864412E+04</pdfrwt>
<pdfrwt beam="2">  1       -2 0.33592499E-01 0.13864412E+04</pdfrwt>
<totfact> 0.41704484E+01</totfact>
</mgrwt>
</event>
<event>
 6    1  0.1028026E-006  0.2236216E+04  0.7818608E-02  0.8503504E-01
          2   -1    0    0  501    0  0.00000000000E+00  0.00000000000E+00  0.92766457553E+03  0.92766457553E+03  0.00000000000E+00 0. -1.
         -2   -1    0    0    0  501 -0.00000000000E+00 -0.00000000000E+00 -0.13476485563E+04  0.13476485563E+04  0.00000000000E+00 0.  1.
         23    2    1    2    0    0  0.46178848236E+03  0.27939521488E+03 -0.12043367296E+04  0.13231999436E+04  0.95503108948E+02 0.  0.
         13    1    3    3    0    0  0.14975523501E+02  0.35148569852E+02 -0.68314614778E+02  0.78272439971E+02  0.00000000000E+00 0.  1.
        -13    1    3    3    0    0  0.44681295886E+03  0.24424664503E+03 -0.11360221148E+04  0.12449275036E+04  0.00000000000E+00 0. -1.
         22    1    1    2    0    0 -0.46178848236E+03 -0.27939521488E+03  0.78435274888E+03  0.95211318824E+03  0.00000000000E+00 0. -1.
<mgrwt>
<rscale>  0 0.22362163E+04</rscale>
<asrwt>0</asrwt>
<pdfrwt beam="1">  1        2 0.14271763E+00 0.22362163E+04</pdfrwt>
<pdfrwt beam="2">  1       -2 0.20733055E+00 0.22362163E+04</pdfrwt>
<totfact> 0.30492476E+00</totfact>
</mgrwt>
</event>
<event>
 6    1  0.1028026E-006  0.1155299E+04  0.7818608E-02  0.9152909E-01
         -1   -1    0    0    0  501 -0.00000000000E+00  0.00000000000E+00  0.57157886470E+03  0.57157886470E+03  0.00000000000E+00 0.  1.
          1   -1    0    0  501    0  0.00000000000E+00 -0.00000000000E+00 -0.58378460977E+03  0.58378460977E+03  0.00000000000E+00 0. -1.
         23    2    1    2    0    0  0.56998117461E+03 -0.57478619563E+02  0.29940767128E+02  0.58094319313E+03  0.91739920367E+02 0.  0.
         11    1    3    3    0    0  0.32115868841E+03 -0.66021953133E+02 -0.13781251521E+02  0.32816417283E+03  0.00000000000E+00 0.  1.
        -11    1    3    3    0    0  0.24882248621E+03  0.85433335703E+01  0.43722018649E+02  0.25277902031E+03  0.00000000000E+00 0. -1.
         22    1    1    2    0    0 -0.56998117461E+03  0.57478619563E+02 -0.42146512202E+02  0.57442028134E+03  0.00000000000E+00 0.  1.
<mgrwt>
<rscale>  0 0.11552990E+04</rscale>
<asrwt>0</asrwt>
<pdfrwt beam="1">  1        1 0.89813017E-01 0.11552990E+04</pdfrwt>
<pdfrwt beam="2">  1       -1 0.87935210E-01 0.11552990E+04</pdfrwt>
<totfact> 0.44995688E+01</totfact>
</mgrwt>
</event>
<event>
 6    1  0.1028026E-006  0.1858537E+04  0.7818608E-02  0.8675775E-01
          1   -1    0    0  501    0  0.00000000000E+00  0.00000000000E+00  0.12222589775E+04  0.12222589775E+04  0.00000000000E+00 0. -1.
         -1   -1    0    0    0  501 -0.00000000000E+00 -0.00000000000E+00 -0.70651160249E+03  0.70651160249E+03  0.00000000000E+00 0.  1.
         23    2    1    2    0    0 -0.69872139306E+03 -0.58572132225E+03  0.84361031159E+02  0.92012037791E+03  0.90684473883E+02 0.  0.
         13    1    3    3    0    0 -0.15715054618E+03 -0.11239557056E+03  0.52228242079E+02  0.20014206883E+03  0.00000000000E+00 0. -1.
        -13    1    3    3    0    0 -0.54157084689E+03 -0.47332575168E+03  0.32132789080E+02  0.71997830908E+03  0.00000000000E+00 0.  1.
         22    1    1    2    0    0  0.69872139306E+03  0.58572132225E+03  0.43138634383E+03  0.10086502021E+04  0.00000000000E+00 0. -1.
<mgrwt>
<rscale>  0 0.18585372E+04</rscale>
<asrwt>0</asrwt>
<pdfrwt beam="1">  1        1 0.18803984E+00 0.18585372E+04</pdfrwt>
<pdfrwt beam="2">  1       -1 0.10869409E+00 0.18585372E+04</pdfrwt>
<totfact> 0.75875309E+00</totfact>
</mgrwt>
</event>
<event>
 6    1  0.1028026E-006  0.1165422E+04  0.7818608E-02  0.9143673E-01
          1   -1    0    0  501    0  0.00000000000E+00  0.00000000000E+00  0.10874635410E+04  0.10874635410E+04  0.00000000000E+00 0. -1.
         -1   -1    0    0    0  501 -0.00000000000E+00 -0.00000000000E+00 -0.31224246283E+03  0.31224246283E+03  0.00000000000E+00 0.  1.
         23    2    1    2    0    0 -0.14933221817E+03  0.24783686890E+03  0.99238690580E+03  0.10379267594E+04  0.93471718352E+02 0.  0.
         13    1    3    3    0    0 -0.56829772281E+02  0.18162296884E+03  0.61749974190E+03  0.64615977674E+03  0.00000000000E+00 0.  1.
        -13    1    3    3    0    0 -0.92502445894E+02  0.66213900060E+02  0.37488716390E+03  0.39176698267E+03  0.00000000000E+00 0. -1.
         22    1    1    2    0    0  0.14933221817E+03 -0.24783686890E+03 -0.21716582766E+03  0.36177924439E+03  0.00000000000E+00 0.  1.
<mgrwt>
<rscale>  0 0.11654223E+04</rscale>
<asrwt>0</asrwt>
<pdfrwt beam="1">  1        1 0.16730208E+00 0.11654223E+04</pdfrwt>
<pdfrwt beam="2">  1       -1 0.48037302E-01 0.11654223E+04</pdfrwt>
<totfact> 0.55661052E+01</totfact>
</mgrwt>
</event>
<event>
 6    1  0.1028026E-006  0.2287670E+04  0.7818608E-02  0.8482799E-01
         -2   -1    0    0    0  501 -0.00000000000E+00  0.00000000000E+00  0.57703506100E+03  0.57703506100E+03  0.00000000000E+00 0.  1.
          2   -1    0    0  501    0  0.00000000000E+00 -0.00000000000E+00 -0.22673813382E+04  0.22673813382E+04  0.00000000000E+00 0. -1.
         23    2    1    2    0    0 -0.79250914394E+03 -0.50966741280E+03 -0.44210672920E+02  0.94768393452E+03  0.91206585617E+02 0.  0.
         13    1    3    3    0    0 -0.32165324071E+03 -0.15436179863E+03 -0.18369396168E+02  0.35724754282E+03  0.00000000000E+00 0. -1.
        -13    1    3    3    0    0 -0.47085590323E+03 -0.35530561416E+03 -0.25841276752E+02  0.59043639170E+03  0.00000000000E+00 0.  1.
         22    1    1    2    0    0  0.79250914394E+03  0.50966741280E+03 -0.16461356043E+04  0.18967324647E+04  0.00000000000E+00 0. -1.
<mgrwt>
<rscale>  0 0.22876700E+04</rscale>
<asrwt>0</asrwt>
<pdfrwt beam="1">  1        2 0.34882790E+00 0.22876700E+04</pdfrwt>
<pdfrwt beam="2">  1       -2 0.88774624E-01 0.22876700E+04</pdfrwt>
<totfact> 0.46823529E+00</totfact>
</mgrwt>
</event>
<event>
 6    1  0.1028026E-006  0.1216675E+04  0.7818608E-02  0.9098385E-01
         -1   -1    0    0    0  501 -0.00000000000E+00  0.00000000000E+00  0.33149588557E+03  0.33149588557E+03  0.00000000000E+00 0.  1.
          1   -1    0    0  501    0  0.00000000000E+00 -0.00000000000E+00 -0.11163767299E+04  0.11163767299E+04  0.00000000000E+00 0. -1.
         23    2    1    2    0    0 -0.10921581712E+03 -0.18613913225E+03 -0.10671969863E+04  0.10925160688E+04  0.90033781526E+02 0.  0.
         11    1    3    3    0    0 -0.83106674511E+02 -0.57609952825E+02 -0.52811021982E+03  0.53770440792E+03  0.00000000000E+00 0. -1.
        -11    1    3    3    0    0 -0.26109142609E+02 -0.12852917942E+03 -0.53908676645E+03  0.55481166088E+03  0.00000000000E+00 0.  1.
         22    1    1    2    0    0  0.10921581712E+03  0.18613913225E+03  0.28231614194E+03  0.35535654667E+03  0.00000000000E+00 0.  1.
<mgrwt>
<rscale>  0 0.12166746E+04</rscale>
<asrwt>0</asrwt>
<pdfrwt beam="1">  1        1 0.17175027E+00 0.12166746E+04</pdfrwt>
<pdfrwt beam="2">  1       -1 0.50999367E-01 0.12166746E+04</pdfrwt>
<totfact> 0.47074773E+01</totfact>
</mgrwt>
</event>
<event>
 6    1  0.1028026E-006  0.2043734E+04  0.7818608E-02  0.8586442E-01
          2   -1    0    0  501    0  0.00000000000E+00  0.00000000000E+00  0.21767782181E+04  0.21767782181E+04  0.00000000000E+00 0. -1.
         -2   -1    0    0    0  501 -0.00000000000E+00 -0.00000000000E+00 -0.47970547507E+03  0.47970547507E+03  0.00000000000E+00 0.  1.
         23    2    1    2    0    0 -0.44997153373E+03 -0.83423272716E+03  0.36088472901E+03  0.10182477416E+04  0.90399399280E+02 0.  0.
         11    1    3    3    0    0 -0.31955554284E+03 -0.50891444340E+03  0.20849464619E+03  0.63606577737E+03  0.00000000000E+00 0. -1.
        -11    1    3    3    0    0 -0.13041599090E+03 -0.32531828377E+03  0.15239008283E+03  0.38218196422E+03  0.00000000000E+00 0.  1.
         22    1    1    2    0    0  0.44997153373E+03  0.83423272716E+03  0.13361880141E+04  0.16382359516E+04  0.00000000000E+00 0. -1.
<mgrwt>
<rscale>  0 0.20437343E+04</rscale>
<asrwt>0</asrwt>
<pdfrwt beam="1">  1        2 0.33488895E+00 0.20437343E+04</pdfrwt>
<pdfrwt beam="2">  1       -2 0.73800843E-01 0.20437343E+04</pdfrwt>
<totfact> 0.81524408E+00</totfact>
</mgrwt>
</event>
<event>
 6    1  0.1028026E-006  0.2862755E+04  0.7818608E-02  0.8284046E-01
         -2   -1    0    0    0  501 -0.00000000000E+00  0.00000000000E+00  0.13564502187E+04  0.13564502187E+04  0.00000000000E+00 0.  1.
          2   -1    0    0  501    0  0.00000000000E+00 -0.00000000000E+00 -0.15104440703E+04  0.15104440703E+04  0.00000000000E+00 0. -1.
         23    2    1    2    0    0 -0.92068494568E+03 -0.12926521777E+02  0.10185426764E+04  0.13760321982E+04  0.90595599990E+02 0.  0.
         13    1    3    3    0    0 -0.84733870872E+03 -0.35621987057E+02  0.92310028959E+03  0.12535413666E+04  0.00000000000E+00 0. -1.
        -13    1    3    3    0    0 -0.73346236963E+02  0.22695465280E+02  0.95442386813E+02  0.12249083158E+03  0.00000000000E+00 0.  1.
         22    1    1    2    0    0  0.92068494568E+03  0.12926521777E+02 -0.11725365280E+04  0.14908620908E+04  0.00000000000E+00 0. -1.
<mgrwt>
<rscale>  0 0.28627554E+04</rscale>
<asrwt>0</asrwt>
<pdfrwt beam="1">  1        2 0.23237601E+00 0.28627554E+04</pdfrwt>
<pdfrwt beam="2">  1       -2 0.20868465E+00 0.28627554E+04</pdfrwt>
<totfact> 0.12659462E+00</totfact>
</mgrwt>
</event>
<event>
 6    1  0.1028026E-006  0.7857187E+03  0.7818608E-02  0.9580922E-01
          1   -1    0    0  501    0  0.00000000000E+00  0.00000000000E+00  0.22563498810E+03  0.22563498810E+03  0.00000000000E+00 0. -1.
         -1   -1    0    0    0  501 -0.00000000000E+00 -0.00000000000E+00 -0.68401841696E+03  0.68401841696E+03  0.00000000000E+00 0.  1.
         23    2    1    2    0    0 -0.94875956151E+02  0.37089953528E+03 -0.18201253018E+03  0.43747887593E+03  0.10812628457E+03 0.  0.
         13    1    3    3    0    0 -0.41277072508E+02  0.27191412518E+03 -0.17219192395E+03  0.32448597329E+03  0.00000000000E+00 0. -1.
        -13    1    3    3    0    0 -0.53598883643E+02  0.98985410096E+02 -0.98206062316E+01  0.11299290264E+03  0.00000000000E+00 0.  1.
         22    1    1    2    0    0  0.94875956151E+02 -0.37089953528E+03 -0.27637089869E+03  0.47217452914E+03  0.00000000000E+00 0.  1.
<mgrwt>
<rscale>  0 0.78571875E+03</rscale>
<asrwt>0</asrwt>
<pdfrwt beam="1">  1        1 0.34713075E-01 0.78571875E+03</pdfrwt>
<pdfrwt beam="2">  1       -1 0.10523360E+00 0.78571875E+03</pdfrwt>
<totfact> 0.10909127E+02</totfact>
</mgrwt>
</event>
<event>
 6    1  0.1028026E-006  0.6730674E+04  0.7818608E-02  0.7605867E-01
          1   -1    0    0  501    0  0.00000000000E+00  0.00000000000E+00  0.42298693264E+04  0.42298693264E+04  0.00000000000E+00 0. -1.
         -1   -1    0    0    0  501 -0.00000000000E+00 -0.00000000000E+00 -0.26775044751E+04  0.26775044751E+04  0.00000000000E+00 0.  1.
         23    2    1    2    0    0  0.33468840340E+03  0.33265108295E+04  0.38729060441E+03  0.33668810919E+04  0.90573997932E+02 0.  0.
         11    1    3    3    0    0  0.60806757468E+02  0.10045044438E+04  0.12761181581E+03  0.10144019986E+04  0.00000000000E+00 0.  1.
        -11    1    3    3    0    0  0.27388164593E+03  0.23220063857E+04  0.25967878860E+03  0.23524790933E+04  0.00000000000E+00 0. -1.
         22    1    1    2    0    0 -0.33468840340E+03 -0.33265108295E+04  0.11650742468E+04  0.35404927096E+04  0.00000000000E+00 0. -1.
<mgrwt>
<rscale>  0 0.67306743E+04</rscale>
<asrwt>0</asrwt>
<pdfrwt beam="1">  1        1 0.65074913E+00 0.67306743E+04</pdfrwt>
<pdfrwt beam="2">  1       -1 0.41192377E+00 0.67306743E+04</pdfrwt>
<totfact> 0.22126010E-04</totfact>
</mgrwt>
</event>
<event>
 6    1  0.1028026E-006  0.1047399E+04  0.7818608E-02  0.9258034E-01
          2   -1    0    0  501    0  0.00000000000E+00  0.00000000000E+00  0.61837021249E+03  0.61837021249E+03  0.00000000000E+00 0. -1.
         -2   -1    0    0    0  501 -0.00000000000E+00 -0.00000000000E+00 -0.44352241327E+03  0.44352241327E+03  0.00000000000E+00 0.  1.
         23    2    1    2    0    0 -0.91438371419E+02  0.44851611537E+03 -0.16154662430E+03  0.49383550743E+03  0.90821335952E+02 0.  0.
         13    1    3    3    0    0 -0.41894905516E+02  0.17386093864E+03 -0.11019907081E+03  0.21006342923E+03  0.00000000000E+00 0. -1.
        -13    1    3    3    0    0 -0.49543465903E+02  0.27465517673E+03 -0.51347553495E+02  0.28377207820E+03  0.00000000000E+00 0.  1.
         22    1    1    2    0    0  0.91438371419E+02 -0.44851611537E+03  0.33639442352E+03  0.56805711833E+03  0.00000000000E+00 0. -1.
<mgrwt>
<rscale>  0 0.10473988E+04</rscale>
<asrwt>0</asrwt>
<pdfrwt beam="1">  1        2 0.95133879E-01 0.10473988E+04</pdfrwt>
<pdfrwt beam="2">  1       -2 0.68234217E-01 0.10473988E+04</pdfrwt>
<totfact> 0.93640112E+01</totfact>
</mgrwt>
</event>
<event>
 6    1  0.1028026E-006  0.2573646E+04  0.7818608E-02  0.8377209E-01
          2   -1    0    0  501    0  0.00000000000E+00  0.00000000000E+00  0.19908690621E+04  0.19908690621E+04  0.00000000000E+00 0. -1.
         -2   -1    0    0    0  501 -0.00000000000E+00 -0.00000000000E+00 -0.83175402054E+03  0.83175402054E+03  0.00000000000E+00 0.  1.
         23    2    1    2    0    0  0.86219946380E+02  0.91696278567E+03  0.15634771001E+04  0.18167586267E+04  0.88863015639E+02 0.  0.
         13    1    3    3    0    0  0.62711471870E+02  0.86414440488E+03  0.14851875495E+04  0.17194360524E+04  0.00000000000E+00 0.  1.
        -13    1    3    3    0    0  0.23508474510E+02  0.52818380795E+02  0.78289550650E+02  0.97322574280E+02  0.00000000000E+00 0. -1.
         22    1    1    2    0    0 -0.86219946380E+02 -0.91696278567E+03 -0.40436205852E+03  0.10058644560E+04  0.00000000000E+00 0.  1.
<mgrwt>
<rscale>  0 0.25736459E+04</rscale>
<asrwt>0</asrwt>
<pdfrwt beam="1">  1        2 0.30628755E+00 0.25736459E+04</pdfrwt>
<pdfrwt beam="2">  1       -2 0.12796216E+00 0.25736459E+04</pdfrwt>
<totfact> 0.27087765E+00</totfact>
</mgrwt>
</event>
<event>
 6    1  0.1028026E-006  0.4129937E+04  0.7818608E-02  0.7978835E-01
          2   -1    0    0  501    0  0.00000000000E+00  0.00000000000E+00  0.20534239012E+04  0.20534239012E+04  0.00000000000E+00 0. -1.
         -2   -1    0    0    0  501 -0.00000000000E+00 -0.00000000000E+00 -0.20765776460E+04  0.20765776460E+04  0.00000000000E+00 0.  1.
         23    2    1    2    0    0  0.11855469608E+04  0.16797926521E+04  0.17022662615E+03  0.20649056855E+04  0.87369531938E+02 0.  0.
         11    1    3    3    0    0  0.79568040202E+03  0.11844059761E+04  0.14139268761E+03  0.14338468225E+04  0.00000000000E+00 0. -1.
        -11    1    3    3    0    0  0.38986655880E+03  0.49538667603E+03  0.28833938541E+02  0.63105886292E+03  0.00000000000E+00 0.  1.
         22    1    1    2    0    0 -0.11855469608E+04 -0.16797926521E+04 -0.19338037092E+03  0.20650958618E+04  0.00000000000E+00 0. -1.
<mgrwt>
<rscale>  0 0.41299366E+04</rscale>
<asrwt>0</asrwt>
<pdfrwt beam="1">  1        2 0.31591137E+00 0.41299366E+04</pdfrwt>
<pdfrwt beam="2">  1       -2 0.31947348E+00 0.41299366E+04</pdfrwt>
<totfact> 0.11748708E-01</totfact>
</mgrwt>
</event>
<event>
 6    1  0.1028026E-006  0.1581555E+04  0.7818608E-02  0.8831960E-01
         -1   -1    0    0    0  501 -0.00000000000E+00  0.00000000000E+00  0.83525440733E+03  0.83525440733E+03  0.00000000000E+00 0.  1.
          1   -1    0    0  501    0  0.00000000000E+00 -0.00000000000E+00 -0.74866923479E+03  0.74866923479E+03  0.00000000000E+00 0. -1.
         23    2    1    2    0    0 -0.32357997860E+03  0.64446615047E+03  0.36208418625E+03  0.81195192748E+03  0.90113001017E+02 0.  0.
         13    1    3    3    0    0 -0.26281737107E+03  0.58511290235E+03  0.31117657961E+03  0.71292421948E+03  0.00000000000E+00 0. -1.
        -13    1    3    3    0    0 -0.60762607539E+02  0.59353248124E+02  0.50907606639E+02  0.99027707998E+02  0.00000000000E+00 0.  1.
         22    1    1    2    0    0  0.32357997860E+03 -0.64446615047E+03 -0.27549901370E+03  0.77197171464E+03  0.00000000000E+00 0. -1.
<mgrwt>
<rscale>  0 0.15815553E+04</rscale>
<asrwt>0</asrwt>
<pdfrwt beam="1">  1        1 0.11517988E+00 0.15815553E+04</pdfrwt>
<pdfrwt beam="2">  1       -1 0.12850068E+00 0.15815553E+04</pdfrwt>
<totfact> 0.12328297E+01</totfact>
</mgrwt>
</event>
<event>
 6    1  0.1028026E-006  0.2314122E+04  0.7818608E-02  0.8472374E-01
         -2   -1    0    0    0  501 -0.00000000000E+00  0.00000000000E+00  0.16307903745E+04  0.16307903745E+04  0.00000000000E+00 0.  1.
          2   -1    0    0  501    0  0.00000000000E+00 -0.00000000000E+00 -0.82094536896E+03  0.82094536896E+03  0.00000000000E+00 0. -1.
         23    2    1    2    0    0  0.54497847898E+03 -0.92492491542E+03  0.85778780221E+03  0.13771259754E+04  0.90489761067E+02 0.  0.
         13    1    3    3    0    0  0.52107761541E+02 -0.12262336026E+03  0.13889796570E+03  0.19246909407E+03  0.00000000000E+00 0. -1.
        -13    1    3    3    0    0  0.49287071744E+03 -0.80230155516E+03  0.71888983651E+03  0.11846568814E+04  0.00000000000E+00 0.  1.
         22    1    1    2    0    0 -0.54497847898E+03  0.92492491542E+03 -0.47942796701E+02  0.10746097680E+04  0.00000000000E+00 0. -1.
<mgrwt>
<rscale>  0 0.23141217E+04</rscale>
<asrwt>0</asrwt>
<pdfrwt beam="1">  1        2 0.12629929E+00 0.23141217E+04</pdfrwt>
<pdfrwt beam="2">  1       -2 0.25089083E+00 0.23141217E+04</pdfrwt>
<totfact> 0.19116756E+00</totfact>
</mgrwt>
</event>
<event>
 6    1  0.1183481E-006  0.3476565E+04  0.7818608E-02  0.8119366E-01
          4   -1    0    0  501    0  0.00000000000E+00  0.00000000000E+00  0.24488598717E+04  0.24488598717E+04  0.00000000000E+00 0. -1.
         -4   -1    0    0    0  501 -0.00000000000E+00 -0.00000000000E+00 -0.12338911067E+04  0.12338911067E+04  0.00000000000E+00 0.  1.
         23    2    1    2    0    0 -0.85334091790E+03 -0.11585603394E+04 -0.42293937591E+03  0.15025684493E+04  0.91550242720E+02 0.  0.
         11    1    3    3    0    0 -0.35525717940E+03 -0.55649126061E+03 -0.18111407993E+03  0.68461120104E+03  0.00000000000E+00 0. -1.
        -11    1    3    3    0    0 -0.49808373850E+03 -0.60206907880E+03 -0.24182529598E+03  0.81795724826E+03  0.00000000000E+00 0.  1.
         22    1    1    2    0    0  0.85334091790E+03  0.11585603394E+04  0.16379081409E+04  0.21801825291E+04  0.00000000000E+00 0. -1.
<mgrwt>
<rscale>  0 0.34765652E+04</rscale>
<asrwt>0</asrwt>
<pdfrwt beam="1">  1        4 0.37674767E+00 0.34765652E+04</pdfrwt>
<pdfrwt beam="2">  1       -4 0.18982940E+00 0.34765652E+04</pdfrwt>
<totfact> 0.24597113E-03</totfact>
</mgrwt>
</event>
<event>
 6    1  0.1028026E-006  0.8021248E+03  0.7818608E-02  0.9556947E-01
          2   -1    0    0  501    0  0.00000000000E+00  0.00000000000E+00  0.52498548630E+03  0.52498548630E+03  0.00000000000E+00 0. -1.
         -2   -1    0    0    0  501 -0.00000000000E+00 -0.00000000000E+00 -0.30639141500E+03  0.30639141500E+03  0.00000000000E+00 0.  1.
         23    2    1    2    0    0  0.11417461377E+03  0.37895444694E+03  0.12008247015E+03  0.42352049171E+03  0.91145444087E+02 0.  0.
         13    1    3    3    0    0  0.11825756663E+02  0.17043674070E+03  0.25582113280E+02  0.17275119571E+03  0.00000000000E+00 0.  1.
        -13    1    3    3    0    0  0.10234885711E+03  0.20851770624E+03  0.94500356865E+02  0.25076929600E+03  0.00000000000E+00 0. -1.
         22    1    1    2    0    0 -0.11417461377E+03 -0.37895444694E+03  0.98511601149E+02  0.40785640959E+03  0.00000000000E+00 0. -1.
<mgrwt>
<rscale>  0 0.80212479E+03</rscale>
<asrwt>0</asrwt>
<pdfrwt beam="1">  1        2 0.80766998E-01 0.80212479E+03</pdfrwt>
<pdfrwt beam="2">  1       -2 0.47137141E-01 0.80212479E+03</pdfrwt>
<totfact> 0.24979216E+02</totfact>
</mgrwt>
</event>
<event>
 6    1  0.1028026E-006  0.1591918E+04  0.7818608E-02  0.8825528E-01
          1   -1    0    0  501    0  0.00000000000E+00  0.00000000000E+00  0.15113343877E+04  0.15113343877E+04  0.00000000000E+00 0. -1.
         -1   -1    0    0    0  501 -0.00000000000E+00 -0.00000000000E+00 -0.41919980293E+03  0.41919980293E+03  0.00000000000E+00 0.  1.
         23    2    1    2    0    0 -0.41470488988E+03 -0.41290670743E+03  0.11974061200E+04  0.13359299601E+04  0.91952962869E+02 0.  0.
         11    1    3    3    0    0 -0.13451147722E+03 -0.19056248664E+03  0.51879661726E+03  0.56882099900E+03  0.00000000000E+00 0.  1.
        -11    1    3    3    0    0 -0.28019341266E+03 -0.22234422079E+03  0.67860950277E+03  0.76710896114E+03  0.00000000000E+00 0. -1.
         22    1    1    2    0    0  0.41470488988E+03  0.41290670743E+03 -0.10527153530E+03  0.59460423046E+03  0.00000000000E+00 0.  1.
<mgrwt>
<rscale>  0 0.15919184E+04</rscale>
<asrwt>0</asrwt>
<pdfrwt beam="1">  1        1 0.23251298E+00 0.15919184E+04</pdfrwt>
<pdfrwt beam="2">  1       -1 0.64492278E-01 0.15919184E+04</pdfrwt>
<totfact> 0.15037680E+01</totfact>
</mgrwt>
</event>
<event>
 6    1  0.1028026E-006  0.2959171E+04  0.7818608E-02  0.8255487E-01
         -1   -1    0    0    0  501 -0.00000000000E+00  0.00000000000E+00  0.14632608551E+04  0.14632608551E+04  0.00000000000E+00 0.  1.
          1   -1    0    0  501    0  0.00000000000E+00 -0.00000000000E+00 -0.14960923091E+04  0.14960923091E+04  0.00000000000E+00 0. -1.
         23    2    1    2    0    0 -0.34219007690E+00 -0.66163085776E+03 -0.13383990282E+04  0.14957062806E+04  0.89832121411E+02 0.  0.
         13    1    3    3    0    0  0.11018978033E+02 -0.51293374542E+03 -0.11113727650E+04  0.12240800087E+04  0.00000000000E+00 0. -1.
        -13    1    3    3    0    0 -0.11361168110E+02 -0.14869711234E+03 -0.22702626324E+03  0.27162627185E+03  0.00000000000E+00 0.  1.
         22    1    1    2    0    0  0.34219007690E+00  0.66163085776E+03  0.13055675742E+04  0.14636468836E+04  0.00000000000E+00 0.  1.
<mgrwt>
<rscale>  0 0.29591710E+04</rscale>
<asrwt>0</asrwt>
<pdfrwt beam="1">  1        1 0.23016805E+00 0.29591710E+04</pdfrwt>
<pdfrwt beam="2">  1       -1 0.22511705E+00 0.29591710E+04</pdfrwt>
<totfact> 0.57185047E-01</totfact>
</mgrwt>
</event>
<event>
 6    1  0.1028026E-006  0.7183403E+04  0.7818608E-02  0.7558811E-01
         -1   -1    0    0    0  501 -0.00000000000E+00  0.00000000000E+00  0.39351886226E+04  0.39351886226E+04  0.00000000000E+00 0.  1.
          1   -1    0    0  501    0  0.00000000000E+00 -0.00000000000E+00 -0.32781964320E+04  0.32781964320E+04  0.00000000000E+00 0. -1.
         23    2    1    2    0    0 -0.34402088712E+04 -0.40288776875E+03  0.12805586528E+04  0.36939830081E+04  0.91237982463E+02 0.  0.
         11    1    3    3    0    0 -0.29460641447E+04 -0.37588619095E+03  0.11070811757E+04  0.31695761709E+04  0.00000000000E+00 0. -1.
        -11    1    3    3    0    0 -0.49414472647E+03 -0.27001577804E+02  0.17347747710E+03  0.52440683726E+03  0.00000000000E+00 0.  1.
         22    1    1    2    0    0  0.34402088712E+04  0.40288776875E+03 -0.62356646217E+03  0.35194020464E+04  0.00000000000E+00 0.  1.
<mgrwt>
<rscale>  0 0.71834035E+04</rscale>
<asrwt>0</asrwt>
<pdfrwt beam="1">  1        1 0.50433792E+00 0.71834035E+04</pdfrwt>
<pdfrwt beam="2">  1       -1 0.60541363E+00 0.71834035E+04</pdfrwt>
<totfact> 0.98209570E-05</totfact>
</mgrwt>
</event>
<event>
 6    1  0.1028026E-006  0.7927567E+03  0.7818608E-02  0.9570561E-01
          1   -1    0    0  501    0  0.00000000000E+00  0.00000000000E+00  0.21076829552E+03  0.21076829552E+03  0.00000000000E+00 0. -1.
         -1   -1    0    0    0  501 -0.00000000000E+00 -0.00000000000E+00 -0.74544324764E+03  0.74544324764E+03  0.00000000000E+00 0.  1.
         23    2    1    2    0    0  0.87219474033E+02 -0.24268654453E+03  0.84697852886E+02  0.28529674444E+03  0.87843671146E+02 0.  0.
         13    1    3    3    0    0  0.20553969286E+02 -0.14216982178E+03  0.80373774619E+02  0.16460457929E+03  0.00000000000E+00 0. -1.
        -13    1    3    3    0    0  0.66665504747E+02 -0.10051672275E+03  0.43240782673E+01  0.12069216515E+03  0.00000000000E+00 0.  1.
         22    1    1    2    0    0 -0.87219474033E+02  0.24268654453E+03 -0.61937280501E+03  0.67091479871E+03  0.00000000000E+00 0.  1.
<mgrwt>
<rscale>  0 0.79275672E+03</rscale>
<asrwt>0</asrwt>
<pdfrwt beam="1">  1        1 0.32425892E-01 0.79275672E+03</pdfrwt>
<pdfrwt beam="2">  1       -1 0.11468358E+00 0.79275672E+03</pdfrwt>
<totfact> 0.97266217E+01</totfact>
</mgrwt>
</event>
<event>
 6    1  0.1028026E-006  0.2210945E+04  0.7818608E-02  0.8513886E-01
         -2   -1    0    0    0  501 -0.00000000000E+00  0.00000000000E+00  0.16063128254E+04  0.16063128254E+04  0.00000000000E+00 0.  1.
          2   -1    0    0  501    0  0.00000000000E+00 -0.00000000000E+00 -0.76079147541E+03  0.76079147541E+03  0.00000000000E+00 0. -1.
         23    2    1    2    0    0 -0.47725807234E+03 -0.55021326253E+03 -0.46412916843E+03  0.86854019397E+03  0.91849233374E+02 0.  0.
         13    1    3    3    0    0 -0.15027482580E+03 -0.16645796322E+03 -0.19422061404E+03  0.29666887890E+03  0.00000000000E+00 0.  1.
        -13    1    3    3    0    0 -0.32698324654E+03 -0.38375529931E+03 -0.26990855439E+03  0.57187131507E+03  0.00000000000E+00 0. -1.
         22    1    1    2    0    0  0.47725807234E+03  0.55021326253E+03  0.13096505184E+04  0.14985641068E+04  0.00000000000E+00 0.  1.
<mgrwt>
<rscale>  0 0.22109447E+04</rscale>
<asrwt>0</asrwt>
<pdfrwt beam="1">  1        2 0.11704484E+00 0.22109447E+04</pdfrwt>
<pdfrwt beam="2">  1       -2 0.24712505E+00 0.22109447E+04</pdfrwt>
<totfact> 0.22495215E+00</totfact>
</mgrwt>
</event>
<event>
 6    1  0.1028026E-006  0.2653794E+04  0.7818608E-02  0.8350155E-01
         -2   -1    0    0    0  501 -0.00000000000E+00  0.00000000000E+00  0.19889119433E+04  0.19889119433E+04  0.00000000000E+00 0.  1.
          2   -1    0    0  501    0  0.00000000000E+00 -0.00000000000E+00 -0.88523558767E+03  0.88523558767E+03  0.00000000000E+00 0. -1.
         23    2    1    2    0    0  0.55402109115E+03 -0.85022532592E+03 -0.37081912081E+03  0.10841868095E+04  0.90176179324E+02 0.  0.
         11    1    3    3    0    0  0.31394130236E+03 -0.44561156452E+03 -0.24193577566E+03  0.59637381507E+03  0.00000000000E+00 0.  1.
        -11    1    3    3    0    0  0.24007978880E+03 -0.40461376140E+03 -0.12888334515E+03  0.48781299446E+03  0.00000000000E+00 0. -1.
         22    1    1    2    0    0 -0.55402109115E+03  0.85022532592E+03  0.14744954764E+04  0.17899607215E+04  0.00000000000E+00 0.  1.
<mgrwt>
<rscale>  0 0.26537940E+04</rscale>
<asrwt>0</asrwt>
<pdfrwt beam="1">  1        2 0.13619009E+00 0.26537940E+04</pdfrwt>
<pdfrwt beam="2">  1       -2 0.30598645E+00 0.26537940E+04</pdfrwt>
<totfact> 0.77190630E-01</totfact>
</mgrwt>
</event>
<event>
 6    1  0.1028026E-006  0.3332045E+04  0.7818608E-02  0.8154789E-01
         -2   -1    0    0    0  501 -0.00000000000E+00  0.00000000000E+00  0.85915398662E+03  0.85915398662E+03  0.00000000000E+00 0.  1.
          2   -1    0    0  501    0  0.00000000000E+00 -0.00000000000E+00 -0.32306550254E+04  0.32306550254E+04  0.00000000000E+00 0. -1.
         23    2    1    2    0    0  0.10008215854E+04 -0.82594209608E+03  0.93535389327E+02  0.13040902926E+04  0.89880088784E+02 0.  0.
         11    1    3    3    0    0  0.56142043573E+03 -0.50458962284E+03  0.23369215040E+02  0.75521501133E+03  0.00000000000E+00 0. -1.
        -11    1    3    3    0    0  0.43940114966E+03 -0.32135247324E+03  0.70166174287E+02  0.54887528127E+03  0.00000000000E+00 0.  1.
         22    1    1    2    0    0 -0.10008215854E+04  0.82594209608E+03 -0.24650364282E+04  0.27857187195E+04  0.00000000000E+00 0. -1.
<mgrwt>
<rscale>  0 0.33320445E+04</rscale>
<asrwt>0</asrwt>
<pdfrwt beam="1">  1        2 0.49702386E+00 0.33320445E+04</pdfrwt>
<pdfrwt beam="2">  1       -2 0.13217754E+00 0.33320445E+04</pdfrwt>
<totfact> 0.42899023E-01</totfact>
</mgrwt>
</event>
<event>
 6    1  0.1028026E-006  0.3687893E+04  0.7818608E-02  0.8070650E-01
         -2   -1    0    0    0  501 -0.00000000000E+00  0.00000000000E+00  0.20397341378E+04  0.20397341378E+04  0.00000000000E+00 0.  1.
          2   -1    0    0  501    0  0.00000000000E+00 -0.00000000000E+00 -0.16669523467E+04  0.16669523467E+04  0.00000000000E+00 0. -1.
         23    2    1    2    0    0  0.73166175042E+03 -0.14206560575E+04 -0.73604976703E+03  0.17616672107E+04  0.90053044830E+02 0.  0.
         13    1    3    3    0    0  0.31419075112E+03 -0.68048389409E+03 -0.31053530830E+03  0.81129916548E+03  0.00000000000E+00 0. -1.
        -13    1    3    3    0    0  0.41747099929E+03 -0.74017216344E+03 -0.42551445873E+03  0.95036804521E+03  0.00000000000E+00 0.  1.
         22    1    1    2    0    0 -0.73166175042E+03  0.14206560575E+04  0.11088315581E+04  0.19450192737E+04  0.00000000000E+00 0.  1.
<mgrwt>
<rscale>  0 0.36878935E+04</rscale>
<asrwt>0</asrwt>
<pdfrwt beam="1">  1        2 0.25645421E+00 0.36878935E+04</pdfrwt>
<pdfrwt beam="2">  1       -2 0.31380525E+00 0.36878935E+04</pdfrwt>
<totfact> 0.21645024E-01</totfact>
</mgrwt>
</event>
<event>
 6    1  0.1028026E-006  0.4793643E+04  0.7818608E-02  0.7861153E-01
         -2   -1    0    0    0  501 -0.00000000000E+00  0.00000000000E+00  0.26930960901E+04  0.26930960901E+04  0.00000000000E+00 0.  1.
          2   -1    0    0  501    0  0.00000000000E+00 -0.00000000000E+00 -0.21331404842E+04  0.21331404842E+04  0.00000000000E+00 0. -1.
         23    2    1    2    0    0 -0.51426642353E+03  0.90948759925E+03  0.24508323281E+04  0.26659003906E+04  0.93851717477E+02 0.  0.
         13    1    3    3    0    0 -0.29483539273E+02  0.75608163552E+02  0.13965306325E+03  0.16152043697E+03  0.00000000000E+00 0. -1.
        -13    1    3    3    0    0 -0.48478288425E+03  0.83387943570E+03  0.23111792648E+04  0.25043799537E+04  0.00000000000E+00 0.  1.
         22    1    1    2    0    0  0.51426642353E+03 -0.90948759925E+03 -0.18908767223E+04  0.21603361836E+04  0.00000000000E+00 0. -1.
<mgrwt>
<rscale>  0 0.47936426E+04</rscale>
<asrwt>0</asrwt>
<pdfrwt beam="1">  1        2 0.32817546E+00 0.47936426E+04</pdfrwt>
<pdfrwt beam="2">  1       -2 0.41432248E+00 0.47936426E+04</pdfrwt>
<totfact> 0.24923239E-02</totfact>
</mgrwt>
</event>
<event>
 6    1  0.1028026E-006  0.1427090E+04  0.7818608E-02  0.8934440E-01
         -2   -1    0    0    0  501 -0.00000000000E+00  0.00000000000E+00  0.12705396570E+03  0.12705396570E+03  0.00000000000E+00 0.  1.
          2   -1    0    0  501    0  0.00000000000E+00 -0.00000000000E+00 -0.40073238312E+04  0.40073238312E+04  0.00000000000E+00 0. -1.
         23    2    1    2    0    0  0.15436308224E+03  0.52824204088E+03 -0.64672650043E+03  0.85433659155E+03  0.93638829553E+02 0.  0.
         11    1    3    3    0    0  0.10213181772E+03  0.26287865359E+03 -0.26876346502E+03  0.38957655837E+03  0.00000000000E+00 0.  1.
        -11    1    3    3    0    0  0.52231264518E+02  0.26536338729E+03 -0.37796303541E+03  0.46476003318E+03  0.00000000000E+00 0. -1.
         22    1    1    2    0    0 -0.15436308224E+03 -0.52824204088E+03 -0.32335433651E+04  0.32800412053E+04  0.00000000000E+00 0. -1.
<mgrwt>
<rscale>  0 0.14270899E+04</rscale>
<asrwt>0</asrwt>
<pdfrwt beam="1">  1        2 0.61651133E+00 0.14270899E+04</pdfrwt>
<pdfrwt beam="2">  1       -2 0.19546765E-01 0.14270899E+04</pdfrwt>
<totfact> 0.74955796E+00</totfact>
</mgrwt>
</event>
<event>
 6    1  0.1028026E-006  0.6627576E+03  0.7818608E-02  0.9783131E-01
         -2   -1    0    0    0  501 -0.00000000000E+00  0.00000000000E+00  0.22233470260E+03  0.22233470260E+03  0.00000000000E+00 0.  1.
          2   -1    0    0  501    0  0.00000000000E+00 -0.00000000000E+00 -0.49390365385E+03  0.49390365385E+03  0.00000000000E+00 0. -1.
         23    2    1    2    0    0  0.13710977359E+01 -0.24494492482E+03 -0.36951799848E+03  0.45243177587E+03  0.90283246012E+02 0.  0.
         13    1    3    3    0    0  0.43827084264E+02 -0.14538326469E+03 -0.19624226373E+03  0.24812926680E+03  0.00000000000E+00 0. -1.
        -13    1    3    3    0    0 -0.42455986529E+02 -0.99561660132E+02 -0.17327573475E+03  0.20430250908E+03  0.00000000000E+00 0.  1.
         22    1    1    2    0    0 -0.13710977359E+01  0.24494492482E+03  0.97949047237E+02  0.26380658058E+03  0.00000000000E+00 0.  1.
<mgrwt>
<rscale>  0 0.66275764E+03</rscale>
<asrwt>0</asrwt>
<pdfrwt beam="1">  1        2 0.75985177E-01 0.66275764E+03</pdfrwt>
<pdfrwt beam="2">  1       -2 0.34205339E-01 0.66275764E+03</pdfrwt>
<totfact> 0.50352703E+02</totfact>
</mgrwt>
</event>
<event>
 6    1  0.1028026E-006  0.9171214E+03  0.7818608E-02  0.9404428E-01
         -1   -1    0    0    0  501 -0.00000000000E+00  0.00000000000E+00  0.16736895369E+04  0.16736895369E+04  0.00000000000E+00 0.  1.
          1   -1    0    0  501    0  0.00000000000E+00 -0.00000000000E+00 -0.12563734637E+03  0.12563734637E+03  0.00000000000E+00 0. -1.
         23    2    1    2    0    0  0.45285179198E+03 -0.63969269828E+01  0.84630994808E+03  0.96412760105E+03  0.90475614005E+02 0.  0.
         11    1    3    3    0    0  0.31017784115E+03 -0.36448971294E+02  0.63150581350E+03  0.70451289068E+03  0.00000000000E+00 0. -1.
        -11    1    3    3    0    0  0.14267395083E+03  0.30052044312E+02  0.21480413458E+03  0.25961471037E+03  0.00000000000E+00 0.  1.
         22    1    1    2    0    0 -0.45285179198E+03  0.63969269828E+01  0.70174224245E+03  0.83519928221E+03  0.00000000000E+00 0.  1.
<mgrwt>
<rscale>  0 0.91712139E+03</rscale>
<asrwt>0</asrwt>
<pdfrwt beam="1">  1        1 0.19328824E-01 0.91712139E+03</pdfrwt>
<pdfrwt beam="2">  1       -1 0.25749068E+00 0.91712139E+03</pdfrwt>
<totfact> 0.17399129E+01</totfact>
</mgrwt>
</event>
<event>
 6    1  0.1028026E-006  0.1168593E+04  0.7818608E-02  0.9140800E-01
          2   -1    0    0  501    0  0.00000000000E+00  0.00000000000E+00  0.33450723865E+03  0.33450723865E+03  0.00000000000E+00 0. -1.
         -2   -1    0    0    0  501 -0.00000000000E+00 -0.00000000000E+00 -0.10206124246E+04  0.10206124246E+04  0.00000000000E+00 0.  1.
         23    2    1    2    0    0  0.36803966215E+02 -0.41093122657E+03  0.12880731102E+03  0.44171866555E+03  0.91132053788E+02 0.  0.
         11    1    3    3    0    0  0.14960853749E+02 -0.38781631867E+03  0.13156047345E+03  0.40979687937E+03  0.00000000000E+00 0. -1.
        -11    1    3    3    0    0  0.21843112466E+02 -0.23114907897E+02 -0.27531624309E+01  0.31921786176E+02  0.00000000000E+00 0.  1.
         22    1    1    2    0    0 -0.36803966215E+02  0.41093122657E+03 -0.81491249696E+03  0.91340099770E+03  0.00000000000E+00 0.  1.
<mgrwt>
<rscale>  0 0.11685927E+04</rscale>
<asrwt>0</asrwt>
<pdfrwt beam="1">  1        2 0.51462652E-01 0.11685927E+04</pdfrwt>
<pdfrwt beam="2">  1       -2 0.15701730E+00 0.11685927E+04</pdfrwt>
<totfact> 0.25452044E+01</totfact>
</mgrwt>
</event>
<event>
 6    1  0.1736092E-006  0.3215167E+04  0.7818608E-02  0.8184823E-01
         -2   -1    0    0    0  501 -0.00000000000E+00  0.00000000000E+00  0.11002212931E+04  0.11002212931E+04  0.00000000000E+00 0.  1.
          2   -1    0    0  501    0  0.00000000000E+00 -0.00000000000E+00 -0.23489135449E+04  0.23489135449E+04  0.00000000000E+00 0. -1.
         23    2    1    2    0    0 -0.13871788916E+04 -0.47356123123E+03 -0.13296569925E+04  0.19811154899E+04  0.91133689568E+02 0.  0.
         11    1    3    3    0    0 -0.97350017376E+03 -0.37583973364E+03 -0.94943395336E+03  0.14108093158E+04  0.00000000000E+00 0. -1.
        -11    1    3    3    0    0 -0.41367871788E+03 -0.97721497592E+02 -0.38022303918E+03  0.57030617412E+03  0.00000000000E+00 0.  1.
         22    1    1    2    0    0  0.13871788916E+04  0.47356123123E+03  0.80964740693E+02  0.14680193481E+04  0.00000000000E+00 0.  1.
<mgrwt>
<rscale>  0 0.32151670E+04</rscale>
<asrwt>0</asrwt>
<pdfrwt beam="1">  1        2 0.36137131E+00 0.32151670E+04</pdfrwt>
<pdfrwt beam="2">  1       -2 0.16926482E+00 0.32151670E+04</pdfrwt>
<totfact> 0.77138072E-01</totfact>
</mgrwt>
</event>
<event>
 6    1  0.1028026E-006  0.4058264E+04  0.7818608E-02  0.7992895E-01
          2   -1    0    0  501    0  0.00000000000E+00  0.00000000000E+00  0.44944909086E+04  0.44944909086E+04  0.00000000000E+00 0. -1.
         -2   -1    0    0    0  501 -0.00000000000E+00 -0.00000000000E+00 -0.91609407204E+03  0.91609407204E+03  0.00000000000E+00 0.  1.
         23    2    1    2    0    0  0.41762718279E+03  0.14187492217E+04 -0.60275364191E+02  0.14828378907E+04  0.88956577593E+02 0.  0.
         11    1    3    3    0    0  0.29523514524E+03  0.92300256051E+03 -0.75241922738E+02  0.97198707020E+03  0.00000000000E+00 0.  1.
        -11    1    3    3    0    0  0.12239203755E+03  0.49574666120E+03  0.14966558547E+02  0.51085082052E+03  0.00000000000E+00 0. -1.
         22    1    1    2    0    0 -0.41762718279E+03 -0.14187492217E+04  0.36386722007E+04  0.39277470899E+04  0.00000000000E+00 0. -1.
<mgrwt>
<rscale>  0 0.40582639E+04</rscale>
<asrwt>0</asrwt>
<pdfrwt beam="1">  1        2 0.69146013E+00 0.40582639E+04</pdfrwt>
<pdfrwt beam="2">  1       -2 0.14093755E+00 0.40582639E+04</pdfrwt>
<totfact> 0.34285672E-02</totfact>
</mgrwt>
</event>
<event>
 6    1  0.1028026E-006  0.1689190E+04  0.7818608E-02  0.8767554E-01
         -2   -1    0    0    0  501 -0.00000000000E+00  0.00000000000E+00  0.22295272657E+03  0.22295272657E+03  0.00000000000E+00 0.  1.
          2   -1    0    0  501    0  0.00000000000E+00 -0.00000000000E+00 -0.31995148812E+04  0.31995148812E+04  0.00000000000E+00 0. -1.
         23    2    1    2    0    0 -0.27124270863E+03 -0.71759583277E+03 -0.78961773047E+03  0.11048735319E+04  0.93450387927E+02 0.  0.
         11    1    3    3    0    0 -0.14119968624E+03 -0.34127427951E+03 -0.44491389802E+03  0.57823339742E+03  0.00000000000E+00 0. -1.
        -11    1    3    3    0    0 -0.13004302239E+03 -0.37632155326E+03 -0.34470383245E+03  0.52664013446E+03  0.00000000000E+00 0.  1.
         22    1    1    2    0    0  0.27124270863E+03  0.71759583277E+03 -0.21869444242E+04  0.23175940759E+04  0.00000000000E+00 0.  1.
<mgrwt>
<rscale>  0 0.16891898E+04</rscale>
<asrwt>0</asrwt>
<pdfrwt beam="1">  1        2 0.49223305E+00 0.16891898E+04</pdfrwt>
<pdfrwt beam="2">  1       -2 0.34300420E-01 0.16891898E+04</pdfrwt>
<totfact> 0.99076055E+00</totfact>
</mgrwt>
</event>
<event>
 6    1  0.1028026E-006  0.7268928E+03  0.7818608E-02  0.9672316E-01
          1   -1    0    0  501    0  0.00000000000E+00  0.00000000000E+00  0.11760978184E+04  0.11760978184E+04  0.00000000000E+00 0. -1.
         -1   -1    0    0    0  501 -0.00000000000E+00 -0.00000000000E+00 -0.11231488816E+03  0.11231488816E+03  0.00000000000E+00 0.  1.
         23    2    1    2    0    0 -0.13924142266E+03 -0.13853849711E+03  0.10327134142E+02  0.21680167484E+03  0.91187869507E+02 0.  0.
         13    1    3    3    0    0 -0.29928186707E+02 -0.71596603068E+02  0.36849036385E+02  0.85904722879E+02  0.00000000000E+00 0. -1.
        -13    1    3    3    0    0 -0.10931323596E+03 -0.66941894044E+02 -0.26521902243E+02  0.13089695196E+03  0.00000000000E+00 0.  1.
         22    1    1    2    0    0  0.13924142266E+03  0.13853849711E+03  0.10534557961E+04  0.10716110317E+04  0.00000000000E+00 0. -1.
<mgrwt>
<rscale>  0 0.72689283E+03</rscale>
<asrwt>0</asrwt>
<pdfrwt beam="1">  1        1 0.18093812E+00 0.72689283E+03</pdfrwt>
<pdfrwt beam="2">  1       -1 0.17279214E-01 0.72689283E+03</pdfrwt>
<totfact> 0.29427849E+02</totfact>
</mgrwt>
</event>
<event>
 6    1  0.1028026E-006  0.1746520E+04  0.7818608E-02  0.8735268E-01
          2   -1    0    0  501    0  0.00000000000E+00  0.00000000000E+00  0.32662172360E+04  0.32662172360E+04  0.00000000000E+00 0. -1.
         -2   -1    0    0    0  501 -0.00000000000E+00 -0.00000000000E+00 -0.23347601307E+03  0.23347601307E+03  0.00000000000E+00 0.  1.
         23    2    1    2    0    0 -0.35163054812E+03 -0.73443432928E+03  0.21400113523E+04  0.22913868110E+04  0.88131170253E+02 0.  0.
         11    1    3    3    0    0 -0.23171025933E+03 -0.44090584900E+03  0.11969691104E+04  0.12964654501E+04  0.00000000000E+00 0.  1.
        -11    1    3    3    0    0 -0.11992028878E+03 -0.29352848028E+03  0.94304224189E+03  0.99492136091E+03  0.00000000000E+00 0. -1.
         22    1    1    2    0    0  0.35163054812E+03  0.73443432928E+03  0.89272987065E+03  0.12083064381E+04  0.00000000000E+00 0.  1.
<mgrwt>
<rscale>  0 0.17465204E+04</rscale>
<asrwt>0</asrwt>
<pdfrwt beam="1">  1        2 0.50249493E+00 0.17465204E+04</pdfrwt>
<pdfrwt beam="2">  1       -2 0.35919389E-01 0.17465204E+04</pdfrwt>
<totfact> 0.81601084E+00</totfact>
</mgrwt>
</event>
<event>
 6    1  0.1028026E-006  0.1090858E+04  0.7818608E-02  0.9214149E-01
         -2   -1    0    0    0  501 -0.00000000000E+00  0.00000000000E+00  0.12985230020E+03  0.12985230020E+03  0.00000000000E+00 0.  1.
          2   -1    0    0  501    0  0.00000000000E+00 -0.00000000000E+00 -0.22910081536E+04  0.22910081536E+04  0.00000000000E+00 0. -1.
         23    2    1    2    0    0  0.42222423368E+03  0.30908622569E+03 -0.77999391767E+03  0.94389874437E+03  0.93523951997E+02 0.  0.
         11    1    3    3    0    0  0.22734121359E+03  0.21901362740E+03 -0.43291619662E+03  0.53578673899E+03  0.00000000000E+00 0.  1.
        -11    1    3    3    0    0  0.19488302009E+03  0.90072598291E+02 -0.34707772105E+03  0.40811200538E+03  0.00000000000E+00 0. -1.
         22    1    1    2    0    0 -0.42222423368E+03 -0.30908622569E+03 -0.13811619357E+04  0.14769617094E+04  0.00000000000E+00 0. -1.
<mgrwt>
<rscale>  0 0.10908578E+04</rscale>
<asrwt>0</asrwt>
<pdfrwt beam="1">  1        2 0.35246281E+00 0.10908578E+04</pdfrwt>
<pdfrwt beam="2">  1       -2 0.19977276E-01 0.10908578E+04</pdfrwt>
<totfact> 0.98165223E+01</totfact>
</mgrwt>
</event>
<event>
 6    1  0.1028026E-006  0.3171325E+04  0.7818608E-02  0.8196431E-01
          2   -1    0    0  501    0  0.00000000000E+00  0.00000000000E+00  0.31394388388E+04  0.31394388388E+04  0.00000000000E+00 0. -1.
         -2   -1    0    0    0  501 -0.00000000000E+00 -0.00000000000E+00 -0.80088387065E+03  0.80088387065E+03  0.00000000000E+00 0.  1.
         23    2    1    2    0    0 -0.11010454719E+04  0.34716047459E+03  0.25184748335E+04  0.27719081065E+04  0.89092858547E+02 0.  0.
         11    1    3    3    0    0 -0.42952311002E+03  0.16238110325E+03  0.91738086207E+03  0.10258876015E+04  0.00000000000E+00 0. -1.
        -11    1    3    3    0    0 -0.67152236190E+03  0.18477937133E+03  0.16010939715E+04  0.17460205051E+04  0.00000000000E+00 0.  1.
         22    1    1    2    0    0  0.11010454719E+04 -0.34716047459E+03 -0.17991986540E+03  0.11684146029E+04  0.00000000000E+00 0.  1.
<mgrwt>
<rscale>  0 0.31713252E+04</rscale>
<asrwt>0</asrwt>
<pdfrwt beam="1">  1        2 0.48299059E+00 0.31713252E+04</pdfrwt>
<pdfrwt beam="2">  1       -2 0.12321290E+00 0.31713252E+04</pdfrwt>
<totfact> 0.59513778E-01</totfact>
</mgrwt>
</event>
<event>
 6    1  0.1028026E-006  0.2576301E+04  0.7818608E-02  0.8376296E-01
          2   -1    0    0  501    0  0.00000000000E+00  0.00000000000E+00  0.15685674031E+04  0.15685674031E+04  0.00000000000E+00 0. -1.
         -2   -1    0    0    0  501 -0.00000000000E+00 -0.00000000000E+00 -0.10578640626E+04  0.10578640626E+04  0.00000000000E+00 0.  1.
         23    2    1    2    0    0 -0.94987967334E+01  0.12468408125E+04  0.57895113102E+03  0.13776880975E+04  0.90209994437E+02 0.  0.
         13    1    3    3    0    0  0.15762585258E+02  0.32432918954E+03  0.18999629941E+03  0.37621333851E+03  0.00000000000E+00 0. -1.
        -13    1    3    3    0    0 -0.25261381992E+02  0.92251162292E+03  0.38895483161E+03  0.10014747590E+04  0.00000000000E+00 0.  1.
         22    1    1    2    0    0  0.94987967334E+01 -0.12468408125E+04 -0.68247790585E+02  0.12487433682E+04  0.00000000000E+00 0.  1.
<mgrwt>
<rscale>  0 0.25763005E+04</rscale>
<asrwt>0</asrwt>
<pdfrwt beam="1">  1        2 0.24131806E+00 0.25763005E+04</pdfrwt>
<pdfrwt beam="2">  1       -2 0.16274832E+00 0.25763005E+04</pdfrwt>
<totfact> 0.24752118E+00</totfact>
</mgrwt>
</event>
<event>
 6    1  0.1028026E-006  0.1335711E+04  0.7818608E-02  0.9001716E-01
         -3   -1    0    0    0  501 -0.00000000000E+00  0.00000000000E+00  0.13425742465E+04  0.13425742465E+04  0.00000000000E+00 0.  1.
          3   -1    0    0  501    0  0.00000000000E+00 -0.00000000000E+00 -0.33222083912E+03  0.33222083912E+03  0.00000000000E+00 0. -1.
         23    2    1    2    0    0 -0.53325221963E+03  0.24828359724E+03  0.11971668512E+03  0.60744488750E+03  0.93029738522E+02 0.  0.
         13    1    3    3    0    0 -0.15768721477E+03  0.29474948671E+02  0.42865832463E+02  0.16604670997E+03  0.00000000000E+00 0.  1.
        -13    1    3    3    0    0 -0.37556500487E+03  0.21880864856E+03  0.76850852660E+02  0.44139817752E+03  0.00000000000E+00 0. -1.
         22    1    1    2    0    0  0.53325221963E+03 -0.24828359724E+03  0.89063672225E+03  0.10673501981E+04  0.00000000000E+00 0. -1.
<mgrwt>
<rscale>  0 0.13357113E+04</rscale>
<asrwt>0</asrwt>
<pdfrwt beam="1">  1        3 0.51110899E-01 0.13357113E+04</pdfrwt>
<pdfrwt beam="2">  1       -3 0.20654988E+00 0.13357113E+04</pdfrwt>
<totfact> 0.12953076E+00</totfact>
</mgrwt>
</event>
<event>
 6    1  0.1066176E-006  0.3104522E+04  0.7818608E-02  0.8214498E-01
          2   -1    0    0  501    0  0.00000000000E+00  0.00000000000E+00  0.90087581576E+03  0.90087581576E+03  0.00000000000E+00 0. -1.
         -2   -1    0    0    0  501 -0.00000000000E+00 -0.00000000000E+00 -0.26746355357E+04  0.26746355357E+04  0.00000000000E+00 0.  1.
         23    2    1    2    0    0 -0.14686152486E+04 -0.30590249102E+03 -0.43186080619E+03  0.15627769484E+04  0.73218524060E+02 0.  0.
         13    1    3    3    0    0 -0.10938264565E+04 -0.21468237858E+03 -0.35111728271E+03  0.11686865221E+04  0.00000000000E+00 0. -1.
        -13    1    3    3    0    0 -0.37478879206E+03 -0.91220112449E+02 -0.80743523483E+02  0.39409042636E+03  0.00000000000E+00 0.  1.
         22    1    1    2    0    0  0.14686152486E+04  0.30590249102E+03 -0.13418989137E+04  0.20127344030E+04  0.00000000000E+00 0.  1.
<mgrwt>
<rscale>  0 0.31045222E+04</rscale>
<asrwt>0</asrwt>
<pdfrwt beam="1">  1        2 0.13859628E+00 0.31045222E+04</pdfrwt>
<pdfrwt beam="2">  1       -2 0.41148240E+00 0.31045222E+04</pdfrwt>
<totfact> 0.15492734E-01</totfact>
</mgrwt>
</event>
<event>
 6    1  0.1028026E-006  0.4926603E+04  0.7818608E-02  0.7839930E-01
         -1   -1    0    0    0  501 -0.00000000000E+00  0.00000000000E+00  0.19970172208E+04  0.19970172208E+04  0.00000000000E+00 0.  1.
          1   -1    0    0  501    0  0.00000000000E+00 -0.00000000000E+00 -0.30384584579E+04  0.30384584579E+04  0.00000000000E+00 0. -1.
         23    2    1    2    0    0 -0.64859038370E+03  0.20870042981E+04 -0.16806121653E+04  0.27584609880E+04  0.91615205242E+02 0.  0.
         11    1    3    3    0    0 -0.59823756692E+03  0.18253694149E+04 -0.14817751762E+04  0.24260089365E+04  0.00000000000E+00 0. -1.
        -11    1    3    3    0    0 -0.50352816782E+02  0.26163488323E+03 -0.19883698908E+03  0.33245205145E+03  0.00000000000E+00 0.  1.
         22    1    1    2    0    0  0.64859038370E+03 -0.20870042981E+04  0.63917092823E+03  0.22770146907E+04  0.00000000000E+00 0.  1.
<mgrwt>
<rscale>  0 0.49266028E+04</rscale>
<asrwt>0</asrwt>
<pdfrwt beam="1">  1        1 0.46745515E+00 0.49266028E+04</pdfrwt>
<pdfrwt beam="2">  1       -1 0.30723342E+00 0.49266028E+04</pdfrwt>
<totfact> 0.12055674E-02</totfact>
</mgrwt>
</event>
<event>
 6    1  0.1028026E-006  0.2010475E+04  0.7818608E-02  0.8601739E-01
          1   -1    0    0  501    0  0.00000000000E+00  0.00000000000E+00  0.14751213143E+04  0.14751213143E+04  0.00000000000E+00 0. -1.
         -1   -1    0    0    0  501 -0.00000000000E+00 -0.00000000000E+00 -0.68502994602E+03  0.68502994602E+03  0.00000000000E+00 0.  1.
         23    2    1    2    0    0 -0.53509464337E+03 -0.49332481552E+03 -0.34701866734E+03  0.81007167597E+03  0.78092981405E+02 0.  0.
         13    1    3    3    0    0 -0.90671637895E+02 -0.11700357399E+03 -0.92375383286E+02  0.17448321891E+03  0.00000000000E+00 0. -1.
        -13    1    3    3    0    0 -0.44442300548E+03 -0.37632124153E+03 -0.25464328405E+03  0.63558845705E+03  0.00000000000E+00 0.  1.
         22    1    1    2    0    0  0.53509464337E+03  0.49332481552E+03  0.11371100356E+04  0.13500795843E+04  0.00000000000E+00 0. -1.
<mgrwt>
<rscale>  0 0.20104748E+04</rscale>
<asrwt>0</asrwt>
<pdfrwt beam="1">  1        1 0.22694174E+00 0.20104748E+04</pdfrwt>
<pdfrwt beam="2">  1       -1 0.10538922E+00 0.20104748E+04</pdfrwt>
<totfact> 0.53250547E+00</totfact>
</mgrwt>
</event>
<event>
 6    1  0.1028026E-006  0.2477469E+04  0.7818608E-02  0.8411057E-01
         -2   -1    0    0    0  501 -0.00000000000E+00  0.00000000000E+00  0.89759109176E+03  0.89759109176E+03  0.00000000000E+00 0.  1.
          2   -1    0    0  501    0  0.00000000000E+00 -0.00000000000E+00 -0.17095345891E+04  0.17095345891E+04  0.00000000000E+00 0. -1.
         23    2    1    2    0    0  0.10861191321E+04 -0.16961722963E+02  0.21644468144E+03  0.11112898892E+04  0.90412657145E+02 0.  0.
         11    1    3    3    0    0  0.68222052238E+03  0.26831381708E+02  0.15859618262E+03  0.70092618252E+03  0.00000000000E+00 0.  1.
        -11    1    3    3    0    0  0.40389860975E+03 -0.43793104671E+02  0.57848498821E+02  0.41036370671E+03  0.00000000000E+00 0. -1.
         22    1    1    2    0    0 -0.10861191321E+04  0.16961722963E+02 -0.10283881788E+04  0.14958357916E+04  0.00000000000E+00 0.  1.
<mgrwt>
<rscale>  0 0.24774689E+04</rscale>
<asrwt>0</asrwt>
<pdfrwt beam="1">  1        2 0.26300532E+00 0.24774689E+04</pdfrwt>
<pdfrwt beam="2">  1       -2 0.13809094E+00 0.24774689E+04</pdfrwt>
<totfact> 0.32223081E+00</totfact>
</mgrwt>
</event>
<event>
 6    1  0.1028026E-006  0.1880197E+04  0.7818608E-02  0.8664777E-01
         -2   -1    0    0    0  501 -0.00000000000E+00  0.00000000000E+00  0.34768773448E+03  0.34768773448E+03  0.00000000000E+00 0.  1.
          2   -1    0    0  501    0  0.00000000000E+00 -0.00000000000E+00 -0.25418931226E+04  0.25418931226E+04  0.00000000000E+00 0. -1.
         23    2    1    2    0    0 -0.76016042809E+03 -0.49693980137E+03 -0.14589132482E+04  0.17210571844E+04  0.93898474746E+02 0.  0.
         11    1    3    3    0    0 -0.59932966822E+03 -0.42248720347E+03 -0.11218061055E+04  0.13402016365E+04  0.00000000000E+00 0. -1.
        -11    1    3    3    0    0 -0.16083075987E+03 -0.74452597904E+02 -0.33710714273E+03  0.38085554786E+03  0.00000000000E+00 0.  1.
         22    1    1    2    0    0  0.76016042809E+03  0.49693980137E+03 -0.73529213996E+03  0.11685236727E+04  0.00000000000E+00 0.  1.
<mgrwt>
<rscale>  0 0.18801969E+04</rscale>
<asrwt>0</asrwt>
<pdfrwt beam="1">  1        2 0.39106048E+00 0.18801969E+04</pdfrwt>
<pdfrwt beam="2">  1       -2 0.53490421E-01 0.18801969E+04</pdfrwt>
<totfact> 0.10179628E+01</totfact>
</mgrwt>
</event>
<event>
 6    1  0.1028026E-006  0.2041800E+04  0.7818608E-02  0.8587323E-01
          1   -1    0    0  501    0  0.00000000000E+00  0.00000000000E+00  0.94839954278E+03  0.94839954278E+03  0.00000000000E+00 0. -1.
         -1   -1    0    0    0  501 -0.00000000000E+00 -0.00000000000E+00 -0.10989432628E+04  0.10989432628E+04  0.00000000000E+00 0.  1.
         23    2    1    2    0    0  0.85987330387E+03  0.53198403326E+03 -0.20148379545E+03  0.10349278701E+04  0.89949242068E+02 0.  0.
         11    1    3    3    0    0  0.13092977147E+03  0.78211389184E+02 -0.63790094280E+02  0.16531425403E+03  0.00000000000E+00 0. -1.
        -11    1    3    3    0    0  0.72894353240E+03  0.45377264408E+03 -0.13769370117E+03  0.86961361609E+03  0.00000000000E+00 0.  1.
         22    1    1    2    0    0 -0.85987330387E+03 -0.53198403326E+03  0.50940075379E+02  0.10124149355E+04  0.00000000000E+00 0.  1.
<mgrwt>
<rscale>  0 0.20418005E+04</rscale>
<asrwt>0</asrwt>
<pdfrwt beam="1">  1        1 0.14590762E+00 0.20418005E+04</pdfrwt>
<pdfrwt beam="2">  1       -1 0.16906819E+00 0.20418005E+04</pdfrwt>
<totfact> 0.38412523E+00</totfact>
</mgrwt>
</event>
<event>
 6    1  0.1028026E-006  0.2241060E+04  0.7818608E-02  0.8501530E-01
         -1   -1    0    0    0  501 -0.00000000000E+00  0.00000000000E+00  0.34393953879E+04  0.34393953879E+04  0.00000000000E+00 0.  1.
          1   -1    0    0  501    0  0.00000000000E+00 -0.00000000000E+00 -0.36506046837E+03  0.36506046837E+03  0.00000000000E+00 0. -1.
         23    2    1    2    0    0 -0.10597560834E+04 -0.12831206396E+03  0.97134522466E+03  0.14460427036E+04  0.89336515731E+02 0.  0.
         13    1    3    3    0    0 -0.10645806827E+03 -0.38740018949E+02  0.90289052631E+02  0.14486622240E+03  0.00000000000E+00 0.  1.
        -13    1    3    3    0    0 -0.95329801513E+03 -0.89572045010E+02  0.88105617203E+03  0.13011764812E+04  0.00000000000E+00 0. -1.
         22    1    1    2    0    0  0.10597560834E+04  0.12831206396E+03  0.21029896949E+04  0.23584131527E+04  0.00000000000E+00 0.  1.
<mgrwt>
<rscale>  0 0.22410598E+04</rscale>
<asrwt>0</asrwt>
<pdfrwt beam="1">  1        1 0.56163152E-01 0.22410598E+04</pdfrwt>
<pdfrwt beam="2">  1       -1 0.52913773E+00 0.22410598E+04</pdfrwt>
<totfact> 0.59997947E-02</totfact>
</mgrwt>
</event>
<event>
 6    1  0.1028026E-006  0.1732437E+04  0.7818608E-02  0.8743077E-01
         -2   -1    0    0    0  501 -0.00000000000E+00  0.00000000000E+00  0.36915392111E+03  0.36915392111E+03  0.00000000000E+00 0.  1.
          2   -1    0    0  501    0  0.00000000000E+00 -0.00000000000E+00 -0.20325792688E+04  0.20325792688E+04  0.00000000000E+00 0. -1.
         23    2    1    2    0    0  0.82303351577E+03  0.12200389965E+03 -0.50958188539E+03  0.97919185305E+03  0.82908790535E+02 0.  0.
         13    1    3    3    0    0  0.62203591240E+02  0.29655630418E+02 -0.54430800904E+02  0.87814892050E+02  0.00000000000E+00 0. -1.
        -13    1    3    3    0    0  0.76082992453E+03  0.92348269237E+02 -0.45515108449E+03  0.89137696100E+03  0.00000000000E+00 0.  1.
         22    1    1    2    0    0 -0.82303351577E+03 -0.12200389965E+03 -0.11538434623E+04  0.14225413369E+04  0.00000000000E+00 0. -1.
<mgrwt>
<rscale>  0 0.17324371E+04</rscale>
<asrwt>0</asrwt>
<pdfrwt beam="1">  1        2 0.31270450E+00 0.17324371E+04</pdfrwt>
<pdfrwt beam="2">  1       -2 0.56792912E-01 0.17324371E+04</pdfrwt>
<totfact> 0.17685188E+01</totfact>
</mgrwt>
</event>
<event>
 6    1  0.1028026E-006  0.1873533E+04  0.7818608E-02  0.8668144E-01
         -1   -1    0    0    0  501 -0.00000000000E+00  0.00000000000E+00  0.10091031104E+04  0.10091031104E+04  0.00000000000E+00 0.  1.
          1   -1    0    0  501    0  0.00000000000E+00 -0.00000000000E+00 -0.86961485016E+03  0.86961485016E+03  0.00000000000E+00 0. -1.
         23    2    1    2    0    0  0.10244678171E+03 -0.51417311986E+03  0.84566481481E+03  0.99919839488E+03  0.91537495377E+02 0.  0.
         13    1    3    3    0    0  0.70660847021E+02 -0.21787434277E+03  0.29972802781E+03  0.37722549648E+03  0.00000000000E+00 0. -1.
        -13    1    3    3    0    0  0.31785934693E+02 -0.29629877709E+03  0.54593678700E+03  0.62197289840E+03  0.00000000000E+00 0.  1.
         22    1    1    2    0    0 -0.10244678171E+03  0.51417311986E+03 -0.70617655454E+03  0.87951956570E+03  0.00000000000E+00 0. -1.
<mgrwt>
<rscale>  0 0.18735325E+04</rscale>
<asrwt>0</asrwt>
<pdfrwt beam="1">  1        1 0.13378690E+00 0.18735325E+04</pdfrwt>
<pdfrwt beam="2">  1       -1 0.15524663E+00 0.18735325E+04</pdfrwt>
<totfact> 0.57453833E+00</totfact>
</mgrwt>
</event>
<event>
 6    1  0.1028026E-006  0.1259696E+04  0.7818608E-02  0.9062152E-01
          2   -1    0    0  501    0  0.00000000000E+00  0.00000000000E+00  0.16216262270E+04  0.16216262270E+04  0.00000000000E+00 0. -1.
         -2   -1    0    0    0  501 -0.00000000000E+00 -0.00000000000E+00 -0.24463603113E+03  0.24463603113E+03  0.00000000000E+00 0.  1.
         23    2    1    2    0    0 -0.53104600382E+02 -0.54073638860E+03  0.22945946958E+03  0.59659981940E+03  0.89798417560E+02 0.  0.
         13    1    3    3    0    0 -0.57468447149E+02 -0.40452552044E+03  0.13319705330E+03  0.42974989717E+03  0.00000000000E+00 0.  1.
        -13    1    3    3    0    0  0.43638467674E+01 -0.13621086815E+03  0.96262416278E+02  0.16684992223E+03  0.00000000000E+00 0. -1.
         22    1    1    2    0    0  0.53104600382E+02  0.54073638860E+03  0.11475307263E+04  0.12696624387E+04  0.00000000000E+00 0.  1.
<mgrwt>
<rscale>  0 0.12596955E+04</rscale>
<asrwt>0</asrwt>
<pdfrwt beam="1">  1        2 0.24948095E+00 0.12596955E+04</pdfrwt>
<pdfrwt beam="2">  1       -2 0.37636313E-01 0.12596955E+04</pdfrwt>
<totfact> 0.70970736E+01</totfact>
</mgrwt>
</event>
<event>
 6    1  0.1028026E-006  0.6439424E+03  0.7818608E-02  0.9818213E-01
          2   -1    0    0  501    0  0.00000000000E+00  0.00000000000E+00  0.14247128208E+04  0.14247128208E+04  0.00000000000E+00 0. -1.
         -2   -1    0    0    0  501 -0.00000000000E+00 -0.00000000000E+00 -0.72762355426E+02  0.72762355426E+02  0.00000000000E+00 0.  1.
         23    2    1    2    0    0  0.27810582662E+03 -0.13518805218E+03  0.54292698837E+03  0.63137030579E+03  0.90774930904E+02 0.  0.
         11    1    3    3    0    0  0.26071102514E+03 -0.10189291270E+03  0.50831782441E+03  0.58029252528E+03  0.00000000000E+00 0. -1.
        -11    1    3    3    0    0  0.17394801480E+02 -0.33295139479E+02  0.34609163966E+02  0.51077780511E+02  0.00000000000E+00 0.  1.
         22    1    1    2    0    0 -0.27810582662E+03  0.13518805218E+03  0.80902347701E+03  0.86610487044E+03  0.00000000000E+00 0.  1.
<mgrwt>
<rscale>  0 0.64394242E+03</rscale>
<asrwt>0</asrwt>
<pdfrwt beam="1">  1        2 0.21918657E+00 0.64394242E+03</pdfrwt>
<pdfrwt beam="2">  1       -2 0.11194210E-01 0.64394242E+03</pdfrwt>
<totfact> 0.81190224E+02</totfact>
</mgrwt>
</event>
<event>
 6    1  0.1028026E-006  0.3965898E+04  0.7818608E-02  0.8011462E-01
         -2   -1    0    0    0  501 -0.00000000000E+00  0.00000000000E+00  0.15981230411E+04  0.15981230411E+04  0.00000000000E+00 0.  1.
          2   -1    0    0  501    0  0.00000000000E+00 -0.00000000000E+00 -0.24604404972E+04  0.24604404972E+04  0.00000000000E+00 0. -1.
         23    2    1    2    0    0  0.10836946853E+04 -0.97551192230E+03  0.94224486993E+03  0.17385499887E+04  0.93343381524E+02 0.  0.
         11    1    3    3    0    0  0.33920616817E+03 -0.25482538499E+03  0.29725101929E+03  0.51802989279E+03  0.00000000000E+00 0.  1.
        -11    1    3    3    0    0  0.74448851716E+03 -0.72068653731E+03  0.64499385064E+03  0.12205200959E+04  0.00000000000E+00 0. -1.
         22    1    1    2    0    0 -0.10836946853E+04  0.97551192230E+03 -0.18045623261E+04  0.23200135496E+04  0.00000000000E+00 0. -1.
<mgrwt>
<rscale>  0 0.39658980E+04</rscale>
<asrwt>0</asrwt>
<pdfrwt beam="1">  1        2 0.37852930E+00 0.39658980E+04</pdfrwt>
<pdfrwt beam="2">  1       -2 0.24586509E+00 0.39658980E+04</pdfrwt>
<totfact> 0.19781513E-01</totfact>
</mgrwt>
</event>
<event>
 6    1  0.1028026E-006  0.1665821E+04  0.7818608E-02  0.8781102E-01
         -2   -1    0    0    0  501 -0.00000000000E+00  0.00000000000E+00  0.39242050106E+03  0.39242050106E+03  0.00000000000E+00 0.  1.
          2   -1    0    0  501    0  0.00000000000E+00 -0.00000000000E+00 -0.17678479293E+04  0.17678479293E+04  0.00000000000E+00 0. -1.
         23    2    1    2    0    0 -0.11643344772E+03 -0.73047907268E+03 -0.11796366335E+04  0.13950949476E+04  0.87125784435E+02 0.  0.
         13    1    3    3    0    0 -0.99457187492E+02 -0.40000064689E+03 -0.70111367029E+03  0.81329738000E+03  0.00000000000E+00 0.  1.
        -13    1    3    3    0    0 -0.16976260230E+02 -0.33047842579E+03 -0.47852296324E+03  0.58179756760E+03  0.00000000000E+00 0. -1.
         22    1    1    2    0    0  0.11643344772E+03  0.73047907268E+03 -0.19579079467E+03  0.76517348271E+03  0.00000000000E+00 0.  1.
<mgrwt>
<rscale>  0 0.16658208E+04</rscale>
<asrwt>0</asrwt>
<pdfrwt beam="1">  1        2 0.27197661E+00 0.16658208E+04</pdfrwt>
<pdfrwt beam="2">  1       -2 0.60372383E-01 0.16658208E+04</pdfrwt>
<totfact> 0.21925532E+01</totfact>
</mgrwt>
</event>
<event>
 6    1  0.1028026E-006  0.3195639E+04  0.7818608E-02  0.8189970E-01
         -2   -1    0    0    0  501 -0.00000000000E+00  0.00000000000E+00  0.14097902082E+04  0.14097902082E+04  0.00000000000E+00 0.  1.
          2   -1    0    0  501    0  0.00000000000E+00 -0.00000000000E+00 -0.18109274564E+04  0.18109274564E+04  0.00000000000E+00 0. -1.
         23    2    1    2    0    0 -0.11223025366E+04 -0.10158557607E+04 -0.71238015004E+03  0.16752733744E+04  0.86772636903E+02 0.  0.
         11    1    3    3    0    0 -0.40374607299E+03 -0.31136101160E+03 -0.24893590194E+03  0.56738492602E+03  0.00000000000E+00 0.  1.
        -11    1    3    3    0    0 -0.71855646360E+03 -0.70449474907E+03 -0.46344424810E+03  0.11078884483E+04  0.00000000000E+00 0. -1.
         22    1    1    2    0    0  0.11223025366E+04  0.10158557607E+04  0.31124290185E+03  0.15454442902E+04  0.00000000000E+00 0. -1.
<mgrwt>
<rscale>  0 0.31956394E+04</rscale>
<asrwt>0</asrwt>
<pdfrwt beam="1">  1        2 0.27860422E+00 0.31956394E+04</pdfrwt>
<pdfrwt beam="2">  1       -2 0.21689080E+00 0.31956394E+04</pdfrwt>
<totfact> 0.74147154E-01</totfact>
</mgrwt>
</event>
<event>
 6    1  0.1028026E-006  0.4051717E+04  0.7818608E-02  0.7994194E-01
         -1   -1    0    0    0  501 -0.00000000000E+00  0.00000000000E+00  0.21259172901E+04  0.21259172901E+04  0.00000000000E+00 0.  1.
          1   -1    0    0  501    0  0.00000000000E+00 -0.00000000000E+00 -0.19305088488E+04  0.19305088488E+04  0.00000000000E+00 0. -1.
         23    2    1    2    0    0  0.19659986620E+04  0.32454604234E+03 -0.26271304347E+03  0.20118342071E+04  0.89318873522E+02 0.  0.
         13    1    3    3    0    0  0.10844148708E+04  0.13397491279E+03 -0.14270899285E+03  0.11019395382E+04  0.00000000000E+00 0. -1.
        -13    1    3    3    0    0  0.88158379121E+03  0.19057112955E+03 -0.12000405062E+03  0.90989466890E+03  0.00000000000E+00 0.  1.
         22    1    1    2    0    0 -0.19659986620E+04 -0.32454604234E+03  0.45812148483E+03  0.20445919318E+04  0.00000000000E+00 0. -1.
<mgrwt>
<rscale>  0 0.40517167E+04</rscale>
<asrwt>0</asrwt>
<pdfrwt beam="1">  1        1 0.29700136E+00 0.40517167E+04</pdfrwt>
<pdfrwt beam="2">  1       -1 0.32706420E+00 0.40517167E+04</pdfrwt>
<totfact> 0.56960038E-02</totfact>
</mgrwt>
</event>
<event>
 6    1  0.1028026E-006  0.3651993E+04  0.7818608E-02  0.8078685E-01
         -2   -1    0    0    0  501 -0.00000000000E+00  0.00000000000E+00  0.14906134849E+04  0.14906134849E+04  0.00000000000E+00 0.  1.
          2   -1    0    0  501    0  0.00000000000E+00 -0.00000000000E+00 -0.22368392895E+04  0.22368392895E+04  0.00000000000E+00 0. -1.
         23    2    1    2    0    0  0.13435879731E+04 -0.51521619130E+03  0.77205782861E+03  0.16355967669E+04  0.91799389422E+02 0.  0.
         11    1    3    3    0    0  0.79216652584E+03 -0.26571717540E+03  0.47953529310E+03  0.96337299075E+03  0.00000000000E+00 0.  1.
        -11    1    3    3    0    0  0.55142144729E+03 -0.24949901590E+03  0.29252253551E+03  0.67222377617E+03  0.00000000000E+00 0. -1.
         22    1    1    2    0    0 -0.13435879731E+04  0.51521619130E+03 -0.15182836332E+04  0.20918560075E+04  0.00000000000E+00 0. -1.
<mgrwt>
<rscale>  0 0.36519928E+04</rscale>
<asrwt>0</asrwt>
<pdfrwt beam="1">  1        2 0.34412912E+00 0.36519928E+04</pdfrwt>
<pdfrwt beam="2">  1       -2 0.22932515E+00 0.36519928E+04</pdfrwt>
<totfact> 0.34493717E-01</totfact>
</mgrwt>
</event>
<event>
 6    1  0.1028026E-006  0.8643600E+03  0.7818608E-02  0.9471264E-01
          1   -1    0    0  501    0  0.00000000000E+00  0.00000000000E+00  0.26418330409E+04  0.26418330409E+04  0.00000000000E+00 0. -1.
         -1   -1    0    0    0  501 -0.00000000000E+00 -0.00000000000E+00 -0.70700745357E+02  0.70700745357E+02  0.00000000000E+00 0.  1.
         23    2    1    2    0    0  0.29756602416E+03  0.23607019670E+03  0.19137540471E+04  0.19533099471E+04  0.93222957984E+02 0.  0.
         13    1    3    3    0    0  0.81153095620E+02  0.42804729180E+02  0.66447958109E+03  0.67078400656E+03  0.00000000000E+00 0. -1.
        -13    1    3    3    0    0  0.21641292854E+03  0.19326546752E+03  0.12492744660E+04  0.12825259405E+04  0.00000000000E+00 0.  1.
         22    1    1    2    0    0 -0.29756602416E+03 -0.23607019670E+03  0.65737824840E+03  0.75922383918E+03  0.00000000000E+00 0.  1.
<mgrwt>
<rscale>  0 0.86436003E+03</rscale>
<asrwt>0</asrwt>
<pdfrwt beam="1">  1        1 0.40643578E+00 0.86436003E+03</pdfrwt>
<pdfrwt beam="2">  1       -1 0.10877040E-01 0.86436003E+03</pdfrwt>
<totfact> 0.61533007E+01</totfact>
</mgrwt>
</event>
<event>
 6    1  0.1028026E-006  0.3654527E+04  0.7818608E-02  0.8078115E-01
          2   -1    0    0  501    0  0.00000000000E+00  0.00000000000E+00  0.31734114243E+04  0.31734114243E+04  0.00000000000E+00 0. -1.
         -2   -1    0    0    0  501 -0.00000000000E+00 -0.00000000000E+00 -0.10521457193E+04  0.10521457193E+04  0.00000000000E+00 0.  1.
         23    2    1    2    0    0  0.90547960391E+03  0.25267652442E+03 -0.74881322449E+03  0.12054426092E+04  0.92908018137E+02 0.  0.
         13    1    3    3    0    0  0.45740724889E+03  0.12000734588E+03 -0.31808042836E+03  0.56991079417E+03  0.00000000000E+00 0. -1.
        -13    1    3    3    0    0  0.44807235502E+03  0.13266917854E+03 -0.43073279613E+03  0.63553181505E+03  0.00000000000E+00 0.  1.
         22    1    1    2    0    0 -0.90547960391E+03 -0.25267652442E+03  0.28700789295E+04  0.30201145344E+04  0.00000000000E+00 0. -1.
<mgrwt>
<rscale>  0 0.36545266E+04</rscale>
<asrwt>0</asrwt>
<pdfrwt beam="1">  1        2 0.48821714E+00 0.36545266E+04</pdfrwt>
<pdfrwt beam="2">  1       -2 0.16186857E+00 0.36545266E+04</pdfrwt>
<totfact> 0.26694739E-01</totfact>
</mgrwt>
</event>
<event>
 6    1  0.1028026E-006  0.5150364E+04  0.7818608E-02  0.7805722E-01
          2   -1    0    0  501    0  0.00000000000E+00  0.00000000000E+00  0.14984607213E+04  0.14984607213E+04  0.00000000000E+00 0. -1.
         -2   -1    0    0    0  501 -0.00000000000E+00 -0.00000000000E+00 -0.44255830635E+04  0.44255830635E+04  0.00000000000E+00 0.  1.
         23    2    1    2    0    0  0.15737462285E+04 -0.20141347150E+04 -0.11120695940E+04  0.27891064137E+04  0.94868135973E+02 0.  0.
         13    1    3    3    0    0  0.13917258739E+04 -0.17678940799E+04 -0.94589727475E+03  0.24407113799E+04  0.00000000000E+00 0. -1.
        -13    1    3    3    0    0  0.18202035456E+03 -0.24624063512E+03 -0.16617231929E+03  0.34839503377E+03  0.00000000000E+00 0.  1.
         22    1    1    2    0    0 -0.15737462285E+04  0.20141347150E+04 -0.18150527482E+04  0.31349373711E+04  0.00000000000E+00 0.  1.
<mgrwt>
<rscale>  0 0.51503640E+04</rscale>
<asrwt>0</asrwt>
<pdfrwt beam="1">  1        2 0.23053242E+00 0.51503640E+04</pdfrwt>
<pdfrwt beam="2">  1       -2 0.68085892E+00 0.51503640E+04</pdfrwt>
<totfact> 0.24520139E-03</totfact>
</mgrwt>
</event>
<event>
 6    1  0.1028026E-006  0.1622164E+04  0.7818608E-02  0.8807046E-01
         -2   -1    0    0    0  501 -0.00000000000E+00  0.00000000000E+00  0.48868424223E+03  0.48868424223E+03  0.00000000000E+00 0.  1.
          2   -1    0    0  501    0  0.00000000000E+00 -0.00000000000E+00 -0.13461742462E+04  0.13461742462E+04  0.00000000000E+00 0. -1.
         23    2    1    2    0    0  0.59622011439E+02  0.47296534064E+03  0.30946598256E+03  0.57428827135E+03  0.82382198028E+02 0.  0.
         11    1    3    3    0    0  0.37492219212E+02  0.32961152295E+03  0.16872597801E+03  0.37217990034E+03  0.00000000000E+00 0.  1.
        -11    1    3    3    0    0  0.22129792227E+02  0.14335381769E+03  0.14074000455E+03  0.20210837101E+03  0.00000000000E+00 0. -1.
         22    1    1    2    0    0 -0.59622011439E+02 -0.47296534064E+03 -0.11669559866E+04  0.12605702171E+04  0.00000000000E+00 0. -1.
<mgrwt>
<rscale>  0 0.16221642E+04</rscale>
<asrwt>0</asrwt>
<pdfrwt beam="1">  1        2 0.20710373E+00 0.16221642E+04</pdfrwt>
<pdfrwt beam="2">  1       -2 0.75182191E-01 0.16221642E+04</pdfrwt>
<totfact> 0.23629399E+01</totfact>
</mgrwt>
</event>
<event>
 6    1  0.1028026E-006  0.2771786E+04  0.7818608E-02  0.8312082E-01
          2   -1    0    0  501    0  0.00000000000E+00  0.00000000000E+00  0.14932284122E+04  0.14932284122E+04  0.00000000000E+00 0. -1.
         -2   -1    0    0    0  501 -0.00000000000E+00 -0.00000000000E+00 -0.12862730837E+04  0.12862730837E+04  0.00000000000E+00 0.  1.
         23    2    1    2    0    0  0.28318462023E+03  0.12590577981E+04 -0.39830409802E+03  0.13541036422E+04  0.97624031054E+02 0.  0.
         13    1    3    3    0    0  0.29654034504E+02  0.29509836666E+03 -0.11238024084E+03  0.31716198747E+03  0.00000000000E+00 0. -1.
        -13    1    3    3    0    0  0.25353058572E+03  0.96395943140E+03 -0.28592385718E+03  0.10369416548E+04  0.00000000000E+00 0.  1.
         22    1    1    2    0    0 -0.28318462023E+03 -0.12590577981E+04  0.60525942650E+03  0.14253978537E+04  0.00000000000E+00 0. -1.
<mgrwt>
<rscale>  0 0.27717861E+04</rscale>
<asrwt>0</asrwt>
<pdfrwt beam="1">  1        2 0.22972745E+00 0.27717861E+04</pdfrwt>
<pdfrwt beam="2">  1       -2 0.19788817E+00 0.27717861E+04</pdfrwt>
<totfact> 0.15340270E+00</totfact>
</mgrwt>
</event>
<event>
 6    1  0.1258786E-006  0.3443416E+04  0.7818608E-02  0.8127332E-01
          1   -1    0    0  501    0  0.00000000000E+00  0.00000000000E+00  0.17066581844E+04  0.17066581844E+04  0.00000000000E+00 0. -1.
         -1   -1    0    0    0  501 -0.00000000000E+00 -0.00000000000E+00 -0.17368900895E+04  0.17368900895E+04  0.00000000000E+00 0.  1.
         23    2    1    2    0    0 -0.91833246584E+02 -0.11767623542E+04 -0.12670975624E+04  0.17338583495E+04  0.86749985327E+02 0.  0.
         13    1    3    3    0    0 -0.82700229800E+02 -0.74195105183E+03 -0.75062785775E+03  0.10586656092E+04  0.00000000000E+00 0. -1.
        -13    1    3    3    0    0 -0.91330167844E+01 -0.43481130237E+03 -0.51646970466E+03  0.67519274025E+03  0.00000000000E+00 0.  1.
         22    1    1    2    0    0  0.91833246584E+02  0.11767623542E+04  0.12368656573E+04  0.17096899244E+04  0.00000000000E+00 0. -1.
<mgrwt>
<rscale>  0 0.34434156E+04</rscale>
<asrwt>0</asrwt>
<pdfrwt beam="1">  1        1 0.26256280E+00 0.34434156E+04</pdfrwt>
<pdfrwt beam="2">  1       -1 0.26721386E+00 0.34434156E+04</pdfrwt>
<totfact> 0.20824765E-01</totfact>
</mgrwt>
</event>
<event>
 6    1  0.1028026E-006  0.3133954E+04  0.7818608E-02  0.8206481E-01
         -1   -1    0    0    0  501 -0.00000000000E+00  0.00000000000E+00  0.13633250190E+04  0.13633250190E+04  0.00000000000E+00 0.  1.
          1   -1    0    0  501    0  0.00000000000E+00 -0.00000000000E+00 -0.18010502988E+04  0.18010502988E+04  0.00000000000E+00 0. -1.
         23    2    1    2    0    0 -0.48644888693E+03 -0.96057230823E+03 -0.13667334707E+04  0.17422684661E+04  0.90594422334E+02 0.  0.
         11    1    3    3    0    0 -0.27537136623E+03 -0.61821263674E+03 -0.81151528830E+03  0.10566803285E+04  0.00000000000E+00 0. -1.
        -11    1    3    3    0    0 -0.21107752069E+03 -0.34235967149E+03 -0.55521818236E+03  0.68558813760E+03  0.00000000000E+00 0.  1.
         22    1    1    2    0    0  0.48644888693E+03  0.96057230823E+03  0.92900819088E+03  0.14221068517E+04  0.00000000000E+00 0.  1.
<mgrwt>
<rscale>  0 0.31339540E+04</rscale>
<asrwt>0</asrwt>
<pdfrwt beam="1">  1        1 0.27708466E+00 0.31339540E+04</pdfrwt>
<pdfrwt beam="2">  1       -1 0.20974231E+00 0.31339540E+04</pdfrwt>
<totfact> 0.44175893E-01</totfact>
</mgrwt>
</event>
<event>
 6    1  0.1028026E-006  0.1552771E+04  0.7818608E-02  0.8850100E-01
          1   -1    0    0  501    0  0.00000000000E+00  0.00000000000E+00  0.18192778326E+04  0.18192778326E+04  0.00000000000E+00 0. -1.
         -1   -1    0    0    0  501 -0.00000000000E+00 -0.00000000000E+00 -0.33132604661E+03  0.33132604661E+03  0.00000000000E+00 0.  1.
         23    2    1    2    0    0 -0.98732856903E+02 -0.70336829690E+03  0.11716012456E+04  0.13730739425E+04  0.90594893528E+02 0.  0.
         11    1    3    3    0    0 -0.89548870082E+02 -0.42491752066E+03  0.77552134811E+03  0.88882352628E+03  0.00000000000E+00 0. -1.
        -11    1    3    3    0    0 -0.91839868215E+01 -0.27845077623E+03  0.39607989751E+03  0.48425041622E+03  0.00000000000E+00 0.  1.
         22    1    1    2    0    0  0.98732856903E+02  0.70336829690E+03  0.31635054040E+03  0.77752993674E+03  0.00000000000E+00 0.  1.
<mgrwt>
<rscale>  0 0.15527706E+04</rscale>
<asrwt>0</asrwt>
<pdfrwt beam="1">  1        1 0.27988889E+00 0.15527706E+04</pdfrwt>
<pdfrwt beam="2">  1       -1 0.50973239E-01 0.15527706E+04</pdfrwt>
<totfact> 0.14733072E+01</totfact>
</mgrwt>
</event>
<event>
 6    1  0.1028026E-006  0.1505928E+04  0.7818608E-02  0.8880520E-01
          1   -1    0    0  501    0  0.00000000000E+00  0.00000000000E+00  0.64244906366E+03  0.64244906366E+03  0.00000000000E+00 0. -1.
         -1   -1    0    0    0  501 -0.00000000000E+00 -0.00000000000E+00 -0.88249024173E+03  0.88249024173E+03  0.00000000000E+00 0.  1.
         23    2    1    2    0    0 -0.35240830765E+03 -0.60419707409E+03  0.15447683572E+03  0.72188875726E+03  0.89524105344E+02 0.  0.
         11    1    3    3    0    0 -0.29626342963E+03 -0.55870394276E+03  0.14688733037E+03  0.64922877571E+03  0.00000000000E+00 0.  1.
        -11    1    3    3    0    0 -0.56144878022E+02 -0.45493131329E+02  0.75895053543E+01  0.72659981542E+02  0.00000000000E+00 0. -1.
         22    1    1    2    0    0  0.35240830765E+03  0.60419707409E+03 -0.39451801380E+03  0.80305054813E+03  0.00000000000E+00 0.  1.
<mgrwt>
<rscale>  0 0.15059283E+04</rscale>
<asrwt>0</asrwt>
<pdfrwt beam="1">  1        1 0.98838318E-01 0.15059283E+04</pdfrwt>
<pdfrwt beam="2">  1       -1 0.13576773E+00 0.15059283E+04</pdfrwt>
<totfact> 0.13604855E+01</totfact>
</mgrwt>
</event>
<event>
 6    1  0.1028026E-006  0.8986868E+03  0.7818608E-02  0.9427224E-01
          1   -1    0    0  501    0  0.00000000000E+00  0.00000000000E+00  0.34596007482E+03  0.34596007482E+03  0.00000000000E+00 0. -1.
         -1   -1    0    0    0  501 -0.00000000000E+00 -0.00000000000E+00 -0.58362079084E+03  0.58362079084E+03  0.00000000000E+00 0.  1.
         23    2    1    2    0    0 -0.22241586215E+03 -0.24798205463E+03  0.18417298313E+03  0.39207962390E+03  0.94036315375E+02 0.  0.
         13    1    3    3    0    0 -0.18825383154E+03 -0.15447427640E+03  0.10640131577E+03  0.26574997114E+03  0.00000000000E+00 0.  1.
        -13    1    3    3    0    0 -0.34162030606E+02 -0.93507778230E+02  0.77771667355E+02  0.12632965277E+03  0.00000000000E+00 0. -1.
         22    1    1    2    0    0  0.22241586215E+03  0.24798205463E+03 -0.42183369915E+03  0.53750124176E+03  0.00000000000E+00 0.  1.
<mgrwt>
<rscale>  0 0.89868680E+03</rscale>
<asrwt>0</asrwt>
<pdfrwt beam="1">  1        1 0.53224627E-01 0.89868680E+03</pdfrwt>
<pdfrwt beam="2">  1       -1 0.89787814E-01 0.89868680E+03</pdfrwt>
<totfact> 0.89063948E+01</totfact>
</mgrwt>
</event>
<event>
 6    1  0.1028026E-006  0.2186164E+04  0.7818608E-02  0.8524209E-01
         -1   -1    0    0    0  501 -0.00000000000E+00  0.00000000000E+00  0.10858696817E+04  0.10858696817E+04  0.00000000000E+00 0.  1.
          1   -1    0    0  501    0  0.00000000000E+00 -0.00000000000E+00 -0.11003425488E+04  0.11003425488E+04  0.00000000000E+00 0. -1.
         23    2    1    2    0    0 -0.40530660437E+00 -0.72633134819E+03 -0.82154499176E+03  0.11004301133E+04  0.91939486087E+02 0.  0.
         11    1    3    3    0    0  0.32492957431E+02 -0.38292391352E+03 -0.38433770775E+03  0.54350895983E+03  0.00000000000E+00 0.  1.
        -11    1    3    3    0    0 -0.32898264035E+02 -0.34340743468E+03 -0.43720728402E+03  0.55692115345E+03  0.00000000000E+00 0. -1.
         22    1    1    2    0    0  0.40530660437E+00  0.72633134819E+03  0.80707212465E+03  0.10857821172E+04  0.00000000000E+00 0.  1.
<mgrwt>
<rscale>  0 0.21861643E+04</rscale>
<asrwt>0</asrwt>
<pdfrwt beam="1">  1        1 0.16928347E+00 0.21861643E+04</pdfrwt>
<pdfrwt beam="2">  1       -1 0.16705687E+00 0.21861643E+04</pdfrwt>
<totfact> 0.29924546E+00</totfact>
</mgrwt>
</event>
<event>
 6    1  0.1028026E-006  0.2462607E+04  0.7818608E-02  0.8416429E-01
          2   -1    0    0  501    0  0.00000000000E+00  0.00000000000E+00  0.13227316935E+04  0.13227316935E+04  0.00000000000E+00 0. -1.
         -2   -1    0    0    0  501 -0.00000000000E+00 -0.00000000000E+00 -0.11461946643E+04  0.11461946643E+04  0.00000000000E+00 0.  1.
         23    2    1    2    0    0  0.52680667552E+03  0.38368159027E+03  0.11334677580E+04  0.13111469075E+04  0.98082712939E+02 0.  0.
         13    1    3    3    0    0  0.46442874031E+03  0.37308330920E+03  0.10299109399E+04  0.11897906348E+04  0.00000000000E+00 0.  1.
        -13    1    3    3    0    0  0.62377935207E+02  0.10598281066E+02  0.10355681807E+03  0.12135627273E+03  0.00000000000E+00 0. -1.
         22    1    1    2    0    0 -0.52680667552E+03 -0.38368159027E+03 -0.95693072872E+03  0.11577794503E+04  0.00000000000E+00 0.  1.
<mgrwt>
<rscale>  0 0.24626068E+04</rscale>
<asrwt>0</asrwt>
<pdfrwt beam="1">  1        2 0.20349718E+00 0.24626068E+04</pdfrwt>
<pdfrwt beam="2">  1       -2 0.17633764E+00 0.24626068E+04</pdfrwt>
<totfact> 0.27585648E+00</totfact>
</mgrwt>
</event>
<event>
 6    1  0.1028026E-006  0.8524212E+03  0.7818608E-02  0.9487093E-01
         -1   -1    0    0    0  501 -0.00000000000E+00  0.00000000000E+00  0.21840412878E+03  0.21840412878E+03  0.00000000000E+00 0.  1.
          1   -1    0    0  501    0  0.00000000000E+00 -0.00000000000E+00 -0.83174005463E+03  0.83174005463E+03  0.00000000000E+00 0. -1.
         23    2    1    2    0    0 -0.14336580508E+03  0.32399034083E+03 -0.59101533166E+03  0.69514882578E+03  0.91702086706E+02 0.  0.
         11    1    3    3    0    0 -0.25891492301E+02  0.14330623375E+03 -0.18459252874E+03  0.23512007075E+03  0.00000000000E+00 0.  1.
        -11    1    3    3    0    0 -0.11747431278E+03  0.18068410708E+03 -0.40642280292E+03  0.46002875503E+03  0.00000000000E+00 0. -1.
         22    1    1    2    0    0  0.14336580508E+03 -0.32399034083E+03 -0.22320594189E+02  0.35499535763E+03  0.00000000000E+00 0.  1.
<mgrwt>
<rscale>  0 0.85242117E+03</rscale>
<asrwt>0</asrwt>
<pdfrwt beam="1">  1        1 0.12796001E+00 0.85242117E+03</pdfrwt>
<pdfrwt beam="2">  1       -1 0.33600634E-01 0.85242117E+03</pdfrwt>
<totfact> 0.17469448E+02</totfact>
</mgrwt>
</event>
<event>
 6    1  0.1028026E-006  0.2500044E+04  0.7818608E-02  0.8402970E-01
         -2   -1    0    0    0  501 -0.00000000000E+00  0.00000000000E+00  0.16234422256E+04  0.16234422256E+04  0.00000000000E+00 0.  1.
          2   -1    0    0  501    0  0.00000000000E+00 -0.00000000000E+00 -0.96249472026E+03  0.96249472026E+03  0.00000000000E+00 0. -1.
         23    2    1    2    0    0 -0.80911788457E+03  0.94535492405E+03  0.43510182270E+03  0.13212733716E+04  0.89900183246E+02 0.  0.
         13    1    3    3    0    0 -0.67247067553E+03  0.81228788408E+03  0.33886455769E+03  0.11076360434E+04  0.00000000000E+00 0. -1.
        -13    1    3    3    0    0 -0.13664720904E+03  0.13306703997E+03  0.96237265005E+02  0.21363732829E+03  0.00000000000E+00 0.  1.
         22    1    1    2    0    0  0.80911788457E+03 -0.94535492405E+03  0.22584568264E+03  0.12646635742E+04  0.00000000000E+00 0. -1.
<mgrwt>
<rscale>  0 0.25000437E+04</rscale>
<asrwt>0</asrwt>
<pdfrwt beam="1">  1        2 0.14807611E+00 0.25000437E+04</pdfrwt>
<pdfrwt beam="2">  1       -2 0.24976034E+00 0.25000437E+04</pdfrwt>
<totfact> 0.15319127E+00</totfact>
</mgrwt>
</event>
<event>
 6    1  0.1028026E-006  0.1228589E+04  0.7818608E-02  0.9088194E-01
          1   -1    0    0  501    0  0.00000000000E+00  0.00000000000E+00  0.12651877610E+04  0.12651877610E+04  0.00000000000E+00 0. -1.
         -1   -1    0    0    0  501 -0.00000000000E+00 -0.00000000000E+00 -0.29826239089E+03  0.29826239089E+03  0.00000000000E+00 0.  1.
         23    2    1    2    0    0  0.45464628325E+03 -0.15276544445E+03  0.49349315146E+01  0.48852404846E+03  0.92686938042E+02 0.  0.
         13    1    3    3    0    0  0.32921886069E+03 -0.15227797524E+03 -0.42984964485E+01  0.36275627775E+03  0.00000000000E+00 0.  1.
        -13    1    3    3    0    0  0.12542742256E+03 -0.48746920464E+00  0.92334279631E+01  0.12576777070E+03  0.00000000000E+00 0. -1.
         22    1    1    2    0    0 -0.45464628325E+03  0.15276544445E+03  0.96199043860E+03  0.10749261034E+04  0.00000000000E+00 0. -1.
<mgrwt>
<rscale>  0 0.12285893E+04</rscale>
<asrwt>0</asrwt>
<pdfrwt beam="1">  1        1 0.19464427E+00 0.12285893E+04</pdfrwt>
<pdfrwt beam="2">  1       -1 0.45886522E-01 0.12285893E+04</pdfrwt>
<totfact> 0.44669702E+01</totfact>
</mgrwt>
</event>
<event>
 6    1  0.1028026E-006  0.2258761E+04  0.7818608E-02  0.8494361E-01
         -2   -1    0    0    0  501 -0.00000000000E+00  0.00000000000E+00  0.82449026536E+03  0.82449026536E+03  0.00000000000E+00 0.  1.
          2   -1    0    0  501    0  0.00000000000E+00 -0.00000000000E+00 -0.15470170760E+04  0.15470170760E+04  0.00000000000E+00 0. -1.
         23    2    1    2    0    0  0.16660130103E+03  0.64952466053E+03 -0.13134937845E+04  0.14777063332E+04  0.93337061669E+02 0.  0.
         11    1    3    3    0    0  0.10876502019E+03  0.28503406422E+03 -0.66277849692E+03  0.72962290490E+03  0.00000000000E+00 0. -1.
        -11    1    3    3    0    0  0.57836280843E+02  0.36449059632E+03 -0.65071528758E+03  0.74808342828E+03  0.00000000000E+00 0.  1.
         22    1    1    2    0    0 -0.16660130103E+03 -0.64952466053E+03  0.59096697382E+03  0.89380100822E+03  0.00000000000E+00 0. -1.
<mgrwt>
<rscale>  0 0.22587612E+04</rscale>
<asrwt>0</asrwt>
<pdfrwt beam="1">  1        2 0.23800262E+00 0.22587612E+04</pdfrwt>
<pdfrwt beam="2">  1       -2 0.12684466E+00 0.22587612E+04</pdfrwt>
<totfact> 0.50211054E+00</totfact>
</mgrwt>
</event>
<event>
 6    1  0.1028026E-006  0.3223582E+04  0.7818608E-02  0.8182617E-01
          1   -1    0    0  501    0  0.00000000000E+00  0.00000000000E+00  0.24786924905E+04  0.24786924905E+04  0.00000000000E+00 0. -1.
         -1   -1    0    0    0  501 -0.00000000000E+00 -0.00000000000E+00 -0.10480811180E+04  0.10480811180E+04  0.00000000000E+00 0.  1.
         23    2    1    2    0    0  0.51800340287E+03  0.11501966827E+03  0.23794779814E+04  0.24396191159E+04  0.90933584677E+02 0.  0.
         13    1    3    3    0    0  0.84059798199E+02  0.41371243584E+02  0.30981365065E+03  0.32366978172E+03  0.00000000000E+00 0. -1.
        -13    1    3    3    0    0  0.43394360467E+03  0.73648424691E+02  0.20696643308E+04  0.21159493341E+04  0.00000000000E+00 0.  1.
         22    1    1    2    0    0 -0.51800340287E+03 -0.11501966827E+03 -0.94886660886E+03  0.10871544926E+04  0.00000000000E+00 0.  1.
<mgrwt>
<rscale>  0 0.32235824E+04</rscale>
<asrwt>0</asrwt>
<pdfrwt beam="1">  1        1 0.38133730E+00 0.32235824E+04</pdfrwt>
<pdfrwt beam="2">  1       -1 0.16124325E+00 0.32235824E+04</pdfrwt>
<totfact> 0.33458888E-01</totfact>
</mgrwt>
</event>
<event>
 6    1  0.1028026E-006  0.1197290E+04  0.7818608E-02  0.9115232E-01
          1   -1    0    0  501    0  0.00000000000E+00  0.00000000000E+00  0.15916421346E+04  0.15916421346E+04  0.00000000000E+00 0. -1.
         -1   -1    0    0    0  501 -0.00000000000E+00 -0.00000000000E+00 -0.22516093076E+03  0.22516093076E+03  0.00000000000E+00 0.  1.
         23    2    1    2    0    0 -0.59178872105E+03  0.60836748534E+02  0.66170171257E+03  0.89450748819E+03  0.91539552450E+02 0.  0.
         13    1    3    3    0    0 -0.16671066547E+03  0.46632831630E+02  0.14939473908E+03  0.22866100462E+03  0.00000000000E+00 0.  1.
        -13    1    3    3    0    0 -0.42507805558E+03  0.14203916904E+02  0.51230697349E+03  0.66584648357E+03  0.00000000000E+00 0. -1.
         22    1    1    2    0    0  0.59178872105E+03 -0.60836748534E+02  0.70477949124E+03  0.92229557714E+03  0.00000000000E+00 0.  1.
<mgrwt>
<rscale>  0 0.11972896E+04</rscale>
<asrwt>0</asrwt>
<pdfrwt beam="1">  1        1 0.24486801E+00 0.11972896E+04</pdfrwt>
<pdfrwt beam="2">  1       -1 0.34640144E-01 0.11972896E+04</pdfrwt>
<totfact> 0.44247006E+01</totfact>
</mgrwt>
</event>
<event>
 6    1  0.1028026E-006  0.1871061E+04  0.7818608E-02  0.8669397E-01
          1   -1    0    0  501    0  0.00000000000E+00  0.00000000000E+00  0.25047738167E+04  0.25047738167E+04  0.00000000000E+00 0. -1.
         -1   -1    0    0    0  501 -0.00000000000E+00 -0.00000000000E+00 -0.34941953981E+03  0.34941953981E+03  0.00000000000E+00 0.  1.
         23    2    1    2    0    0  0.15060651498E+03  0.10783183753E+03  0.24756324681E+04  0.24842093741E+04  0.90719731850E+02 0.  0.
         11    1    3    3    0    0  0.77159122691E+02  0.10575487747E+03  0.17394547147E+04  0.17443739074E+04  0.00000000000E+00 0. -1.
        -11    1    3    3    0    0  0.73447392289E+02  0.20769600673E+01  0.73617775340E+03  0.73983546671E+03  0.00000000000E+00 0.  1.
         22    1    1    2    0    0 -0.15060651498E+03 -0.10783183753E+03 -0.32027819116E+03  0.36998398246E+03  0.00000000000E+00 0.  1.
<mgrwt>
<rscale>  0 0.18710606E+04</rscale>
<asrwt>0</asrwt>
<pdfrwt beam="1">  1        1 0.38534981E+00 0.18710606E+04</pdfrwt>
<pdfrwt beam="2">  1       -1 0.53756854E-01 0.18710606E+04</pdfrwt>
<totfact> 0.44077342E+00</totfact>
</mgrwt>
</event>
<event>
 6    1  0.1028026E-006  0.4150812E+04  0.7818608E-02  0.7974795E-01
         -2   -1    0    0    0  501 -0.00000000000E+00  0.00000000000E+00  0.19718595068E+04  0.19718595068E+04  0.00000000000E+00 0.  1.
          2   -1    0    0  501    0  0.00000000000E+00 -0.00000000000E+00 -0.21843901991E+04  0.21843901991E+04  0.00000000000E+00 0. -1.
         23    2    1    2    0    0 -0.17742512263E+04  0.10419000139E+04 -0.37037966729E+03  0.20926510648E+04  0.92110413587E+02 0.  0.
         11    1    3    3    0    0 -0.91882987919E+03  0.49326771715E+03 -0.21090135724E+03  0.10639740458E+04  0.00000000000E+00 0. -1.
        -11    1    3    3    0    0 -0.85542134708E+03  0.54863229670E+03 -0.15947831005E+03  0.10286770190E+04  0.00000000000E+00 0.  1.
         22    1    1    2    0    0  0.17742512263E+04 -0.10419000139E+04  0.15784897505E+03  0.20635986411E+04  0.00000000000E+00 0. -1.
<mgrwt>
<rscale>  0 0.41508122E+04</rscale>
<asrwt>0</asrwt>
<pdfrwt beam="1">  1        2 0.33606003E+00 0.41508122E+04</pdfrwt>
<pdfrwt beam="2">  1       -2 0.30336300E+00 0.41508122E+04</pdfrwt>
<totfact> 0.12447861E-01</totfact>
</mgrwt>
</event>
<event>
 6    1  0.1028026E-006  0.6305758E+04  0.7818608E-02  0.7653606E-01
         -2   -1    0    0    0  501 -0.00000000000E+00  0.00000000000E+00  0.30763197093E+04  0.30763197093E+04  0.00000000000E+00 0.  1.
          2   -1    0    0  501    0  0.00000000000E+00 -0.00000000000E+00 -0.32313434577E+04  0.32313434577E+04  0.00000000000E+00 0. -1.
         23    2    1    2    0    0 -0.26875468650E+04 -0.16453230810E+04  0.14954504331E+02  0.31518924531E+04  0.64855269197E+02 0.  0.
         11    1    3    3    0    0 -0.92232655340E+03 -0.55397773152E+03 -0.24269762298E+02  0.10761814993E+04  0.00000000000E+00 0. -1.
        -11    1    3    3    0    0 -0.17652203116E+04 -0.10913453495E+04  0.39224266629E+02  0.20757109538E+04  0.00000000000E+00 0.  1.
         22    1    1    2    0    0  0.26875468650E+04  0.16453230810E+04 -0.16997825270E+03  0.31557707140E+04  0.00000000000E+00 0. -1.
<mgrwt>
<rscale>  0 0.63057579E+04</rscale>
<asrwt>0</asrwt>
<pdfrwt beam="1">  1        2 0.49712976E+00 0.63057579E+04</pdfrwt>
<pdfrwt beam="2">  1       -2 0.47327996E+00 0.63057579E+04</pdfrwt>
<totfact> 0.19993919E-03</totfact>
</mgrwt>
</event>
<event>
 6    1  0.1028026E-006  0.1161358E+04  0.7818608E-02  0.9147368E-01
         -2   -1    0    0    0  501 -0.00000000000E+00  0.00000000000E+00  0.76452010027E+03  0.76452010027E+03  0.00000000000E+00 0.  1.
          2   -1    0    0  501    0  0.00000000000E+00 -0.00000000000E+00 -0.44104569215E+03  0.44104569215E+03  0.00000000000E+00 0. -1.
         23    2    1    2    0    0  0.47848355226E+03  0.14251879553E+02  0.49727940660E+03  0.69629395602E+03  0.91590605964E+02 0.  0.
         13    1    3    3    0    0  0.11645062345E+03  0.26024793310E+02  0.17275637329E+03  0.20995904858E+03  0.00000000000E+00 0.  1.
        -13    1    3    3    0    0  0.36203292881E+03 -0.11772913758E+02  0.32452303331E+03  0.48633490744E+03  0.00000000000E+00 0. -1.
         22    1    1    2    0    0 -0.47848355226E+03 -0.14251879553E+02 -0.17380499847E+03  0.50927183640E+03  0.00000000000E+00 0. -1.
<mgrwt>
<rscale>  0 0.11613583E+04</rscale>
<asrwt>0</asrwt>
<pdfrwt beam="1">  1        2 0.67853184E-01 0.11613583E+04</pdfrwt>
<pdfrwt beam="2">  1       -2 0.11761848E+00 0.11613583E+04</pdfrwt>
<totfact> 0.39270101E+01</totfact>
</mgrwt>
</event>
<event>
 6    1  0.1028026E-006  0.4016000E+04  0.7818608E-02  0.8001327E-01
          2   -1    0    0  501    0  0.00000000000E+00  0.00000000000E+00  0.16163661860E+04  0.16163661860E+04  0.00000000000E+00 0. -1.
         -2   -1    0    0    0  501 -0.00000000000E+00 -0.00000000000E+00 -0.24945236021E+04  0.24945236021E+04  0.00000000000E+00 0.  1.
         23    2    1    2    0    0  0.11002654257E+04  0.10498223727E+04 -0.17799247107E+04  0.23428696313E+04  0.90526858014E+02 0.  0.
         11    1    3    3    0    0  0.68177171695E+03  0.59519924322E+03 -0.10278837313E+04  0.13695326861E+04  0.00000000000E+00 0. -1.
        -11    1    3    3    0    0  0.41849370873E+03  0.45462312953E+03 -0.75204097942E+03  0.97333694519E+03  0.00000000000E+00 0.  1.
         22    1    1    2    0    0 -0.11002654257E+04 -0.10498223727E+04  0.90176729468E+03  0.17680201569E+04  0.00000000000E+00 0. -1.
<mgrwt>
<rscale>  0 0.40159998E+04</rscale>
<asrwt>0</asrwt>
<pdfrwt beam="1">  1        2 0.24867172E+00 0.40159998E+04</pdfrwt>
<pdfrwt beam="2">  1       -2 0.38377286E+00 0.40159998E+04</pdfrwt>
<totfact> 0.81395326E-02</totfact>
</mgrwt>
</event>
<event>
 6    1  0.1048710E-006  0.1863586E+04  0.7818608E-02  0.8673197E-01
          1   -1    0    0  501    0  0.00000000000E+00  0.00000000000E+00  0.11959639899E+04  0.11959639899E+04  0.00000000000E+00 0. -1.
         -1   -1    0    0    0  501 -0.00000000000E+00 -0.00000000000E+00 -0.72597338031E+03  0.72597338031E+03  0.00000000000E+00 0.  1.
         23    2    1    2    0    0 -0.41464827705E+02 -0.92147284049E+03  0.36004649398E+03  0.99300290736E+03  0.74764754431E+02 0.  0.
         11    1    3    3    0    0  0.24057118662E+01 -0.67225027097E+03  0.26872836617E+03  0.72397593127E+03  0.00000000000E+00 0. -1.
        -11    1    3    3    0    0 -0.43870539571E+02 -0.24922256952E+03  0.91318127808E+02  0.26902697610E+03  0.00000000000E+00 0.  1.
         22    1    1    2    0    0  0.41464827705E+02  0.92147284049E+03  0.10994411560E+03  0.92893446284E+03  0.00000000000E+00 0. -1.
<mgrwt>
<rscale>  0 0.18635858E+04</rscale>
<asrwt>0</asrwt>
<pdfrwt beam="1">  1        1 0.18399446E+00 0.18635858E+04</pdfrwt>
<pdfrwt beam="2">  1       -1 0.11168821E+00 0.18635858E+04</pdfrwt>
<totfact> 0.74331035E+00</totfact>
</mgrwt>
</event>
<event>
 6    1  0.1028026E-006  0.2021463E+04  0.7818608E-02  0.8596651E-01
          3   -1    0    0  501    0  0.00000000000E+00  0.00000000000E+00  0.24711194235E+04  0.24711194235E+04  0.00000000000E+00 0. -1.
         -3   -1    0    0    0  501 -0.00000000000E+00 -0.00000000000E+00 -0.41340718320E+03  0.41340718320E+03  0.00000000000E+00 0.  1.
         23    2    1    2    0    0 -0.47711993733E+02 -0.39318145917E+03  0.23546562675E+04  0.23895075673E+04  0.92044456359E+02 0.  0.
         13    1    3    3    0    0 -0.70638041969E+01 -0.19464203526E+03  0.90244485801E+03  0.92322377622E+03  0.00000000000E+00 0.  1.
        -13    1    3    3    0    0 -0.40648189536E+02 -0.19853942391E+03  0.14522114095E+04  0.14662837911E+04  0.00000000000E+00 0. -1.
         22    1    1    2    0    0  0.47711993733E+02  0.39318145917E+03 -0.29694402714E+03  0.49501903946E+03  0.00000000000E+00 0.  1.
<mgrwt>
<rscale>  0 0.20214634E+04</rscale>
<asrwt>0</asrwt>
<pdfrwt beam="1">  1        3 0.38017221E+00 0.20214634E+04</pdfrwt>
<pdfrwt beam="2">  1       -3 0.63601107E-01 0.20214634E+04</pdfrwt>
<totfact> 0.82723647E-02</totfact>
</mgrwt>
</event>
<event>
 6    1  0.1028026E-006  0.2150740E+04  0.7818608E-02  0.8539216E-01
          1   -1    0    0  501    0  0.00000000000E+00  0.00000000000E+00  0.10794619077E+04  0.10794619077E+04  0.00000000000E+00 0. -1.
         -1   -1    0    0    0  501 -0.00000000000E+00 -0.00000000000E+00 -0.10712936944E+04  0.10712936944E+04  0.00000000000E+00 0.  1.
         23    2    1    2    0    0  0.57009089629E+03  0.22354982538E+03 -0.87754990060E+03  0.10739665180E+04  0.91280332935E+02 0.  0.
         13    1    3    3    0    0  0.53191734816E+03  0.21269458717E+03 -0.85228498791E+03  0.10269200326E+04  0.00000000000E+00 0.  1.
        -13    1    3    3    0    0  0.38173548125E+02  0.10855238218E+02 -0.25264912692E+02  0.47046485379E+02  0.00000000000E+00 0. -1.
         22    1    1    2    0    0 -0.57009089629E+03 -0.22354982538E+03  0.88571811389E+03  0.10767890841E+04  0.00000000000E+00 0. -1.
<mgrwt>
<rscale>  0 0.21507401E+04</rscale>
<asrwt>0</asrwt>
<pdfrwt beam="1">  1        1 0.16607106E+00 0.21507401E+04</pdfrwt>
<pdfrwt beam="2">  1       -1 0.16481441E+00 0.21507401E+04</pdfrwt>
<totfact> 0.32349413E+00</totfact>
</mgrwt>
</event>
<event>
 6    1  0.1028026E-006  0.4946595E+04  0.7818608E-02  0.7836799E-01
          2   -1    0    0  501    0  0.00000000000E+00  0.00000000000E+00  0.40049104809E+04  0.40049104809E+04  0.00000000000E+00 0. -1.
         -2   -1    0    0    0  501 -0.00000000000E+00 -0.00000000000E+00 -0.15274247471E+04  0.15274247471E+04  0.00000000000E+00 0.  1.
         23    2    1    2    0    0 -0.39708481144E+03  0.24402721051E+04  0.12173611345E+04  0.27573544533E+04  0.91821319721E+02 0.  0.
         11    1    3    3    0    0 -0.42779324903E+02  0.43308730898E+03  0.19011412664E+03  0.47490848486E+03  0.00000000000E+00 0.  1.
        -11    1    3    3    0    0 -0.35430548654E+03  0.20071847961E+04  0.10272470079E+04  0.22824459684E+04  0.00000000000E+00 0. -1.
         22    1    1    2    0    0  0.39708481144E+03 -0.24402721051E+04  0.12601245992E+04  0.27749807747E+04  0.00000000000E+00 0.  1.
<mgrwt>
<rscale>  0 0.49465945E+04</rscale>
<asrwt>0</asrwt>
<pdfrwt beam="1">  1        2 0.61614007E+00 0.49465945E+04</pdfrwt>
<pdfrwt beam="2">  1       -2 0.23498842E+00 0.49465945E+04</pdfrwt>
<totfact> 0.19632175E-02</totfact>
</mgrwt>
</event>
<event>
 6    1  0.1028026E-006  0.7317764E+03  0.7818608E-02  0.9664382E-01
         -2   -1    0    0    0  501 -0.00000000000E+00  0.00000000000E+00  0.22704186344E+03  0.22704186344E+03  0.00000000000E+00 0.  1.
          2   -1    0    0  501    0  0.00000000000E+00 -0.00000000000E+00 -0.58964532842E+03  0.58964532842E+03  0.00000000000E+00 0. -1.
         23    2    1    2    0    0 -0.22882711735E+03 -0.27835975137E+03 -0.18511450256E+03  0.41500531200E+03  0.90089006627E+02 0.  0.
         13    1    3    3    0    0 -0.19311795955E+03 -0.25175094365E+03 -0.19059819280E+03  0.37013613040E+03  0.00000000000E+00 0.  1.
        -13    1    3    3    0    0 -0.35709157802E+02 -0.26608807725E+02  0.54836902388E+01  0.44869181607E+02  0.00000000000E+00 0. -1.
         22    1    1    2    0    0  0.22882711735E+03  0.27835975137E+03 -0.17748896243E+03  0.40168187985E+03  0.00000000000E+00 0. -1.
<mgrwt>
<rscale>  0 0.73177640E+03</rscale>
<asrwt>0</asrwt>
<pdfrwt beam="1">  1        2 0.90714665E-01 0.73177640E+03</pdfrwt>
<pdfrwt beam="2">  1       -2 0.34929518E-01 0.73177640E+03</pdfrwt>
<totfact> 0.39212298E+02</totfact>
</mgrwt>
</event>
<event>
 6    1  0.1028026E-006  0.1914401E+04  0.7818608E-02  0.8647721E-01
         -2   -1    0    0    0  501 -0.00000000000E+00  0.00000000000E+00  0.42887453875E+03  0.42887453875E+03  0.00000000000E+00 0.  1.
          2   -1    0    0  501    0  0.00000000000E+00 -0.00000000000E+00 -0.21363649380E+04  0.21363649380E+04  0.00000000000E+00 0. -1.
         23    2    1    2    0    0 -0.14267710637E+03 -0.48631075120E+03  0.22842313465E+03  0.56408578097E+03  0.95711736161E+02 0.  0.
         13    1    3    3    0    0 -0.38730989967E+02 -0.23667198933E+03  0.14863404630E+03  0.28214499789E+03  0.00000000000E+00 0. -1.
        -13    1    3    3    0    0 -0.10394611640E+03 -0.24963876187E+03  0.79789088343E+02  0.28194078308E+03  0.00000000000E+00 0.  1.
         22    1    1    2    0    0  0.14267710637E+03  0.48631075120E+03 -0.19359135339E+04  0.20011536958E+04  0.00000000000E+00 0. -1.
<mgrwt>
<rscale>  0 0.19144007E+04</rscale>
<asrwt>0</asrwt>
<pdfrwt beam="1">  1        2 0.32867154E+00 0.19144007E+04</pdfrwt>
<pdfrwt beam="2">  1       -2 0.65980697E-01 0.19144007E+04</pdfrwt>
<totfact> 0.11087411E+01</totfact>
</mgrwt>
</event>
<event>
 6    1  0.1028026E-006  0.3742556E+04  0.7818608E-02  0.8058596E-01
         -1   -1    0    0    0  501 -0.00000000000E+00  0.00000000000E+00  0.11516557260E+04  0.11516557260E+04  0.00000000000E+00 0.  1.
          1   -1    0    0  501    0  0.00000000000E+00 -0.00000000000E+00 -0.30405618925E+04  0.30405618925E+04  0.00000000000E+00 0. -1.
         23    2    1    2    0    0 -0.78507497639E+03 -0.90112564732E+03  0.66623212212E+03  0.13713840849E+04  0.91972370170E+02 0.  0.
         11    1    3    3    0    0 -0.67175716879E+03 -0.81600217698E+03  0.58943474752E+03  0.12101861709E+04  0.00000000000E+00 0. -1.
        -11    1    3    3    0    0 -0.11331780760E+03 -0.85123470341E+02  0.76797374603E+02  0.16119791397E+03  0.00000000000E+00 0.  1.
         22    1    1    2    0    0  0.78507497639E+03  0.90112564732E+03 -0.25551382886E+04  0.28208335337E+04  0.00000000000E+00 0. -1.
<mgrwt>
<rscale>  0 0.37425556E+04</rscale>
<asrwt>0</asrwt>
<pdfrwt beam="1">  1        1 0.46777875E+00 0.37425556E+04</pdfrwt>
<pdfrwt beam="2">  1       -1 0.17717781E+00 0.37425556E+04</pdfrwt>
<totfact> 0.97268422E-02</totfact>
</mgrwt>
</event>
<event>
 6    1  0.1028026E-006  0.3042436E+04  0.7818608E-02  0.8231716E-01
          1   -1    0    0  501    0  0.00000000000E+00  0.00000000000E+00  0.20274098194E+04  0.20274098194E+04  0.00000000000E+00 0. -1.
         -1   -1    0    0    0  501 -0.00000000000E+00 -0.00000000000E+00 -0.11414091951E+04  0.11414091951E+04  0.00000000000E+00 0.  1.
         23    2    1    2    0    0 -0.82632553999E+02 -0.68641981931E+03  0.18531666080E+04  0.19799496579E+04  0.89296491482E+02 0.  0.
         13    1    3    3    0    0 -0.53824212447E+02 -0.34413610001E+03  0.81105561994E+03  0.88268789491E+03  0.00000000000E+00 0.  1.
        -13    1    3    3    0    0 -0.28808341552E+02 -0.34228371930E+03  0.10421109880E+04  0.10972617630E+04  0.00000000000E+00 0. -1.
         22    1    1    2    0    0  0.82632553999E+02  0.68641981931E+03 -0.96716598368E+03  0.11888693567E+04  0.00000000000E+00 0.  1.
<mgrwt>
<rscale>  0 0.30424360E+04</rscale>
<asrwt>0</asrwt>
<pdfrwt beam="1">  1        1 0.31190920E+00 0.30424360E+04</pdfrwt>
<pdfrwt beam="2">  1       -1 0.17560142E+00 0.30424360E+04</pdfrwt>
<totfact> 0.54209603E-01</totfact>
</mgrwt>
</event>
<event>
 6    1  0.1028026E-006  0.3028380E+04  0.7818608E-02  0.8235673E-01
          2   -1    0    0  501    0  0.00000000000E+00  0.00000000000E+00  0.23961876903E+04  0.23961876903E+04  0.00000000000E+00 0. -1.
         -2   -1    0    0    0  501 -0.00000000000E+00 -0.00000000000E+00 -0.95684156526E+03  0.95684156526E+03  0.00000000000E+00 0.  1.
         23    2    1    2    0    0  0.23983422724E+01 -0.12352739367E+04 -0.24694299146E+03  0.12626995124E+04  0.86728120541E+02 0.  0.
         13    1    3    3    0    0  0.15369526670E+02 -0.11424904437E+04 -0.24712751804E+03  0.11690135357E+04  0.00000000000E+00 0. -1.
        -13    1    3    3    0    0 -0.12971184398E+02 -0.92783492945E+02  0.18452658489E+00  0.93685976740E+02  0.00000000000E+00 0.  1.
         22    1    1    2    0    0 -0.23983422724E+01  0.12352739367E+04  0.16862891165E+04  0.20903297432E+04  0.00000000000E+00 0. -1.
<mgrwt>
<rscale>  0 0.30283804E+04</rscale>
<asrwt>0</asrwt>
<pdfrwt beam="1">  1        2 0.36864426E+00 0.30283804E+04</pdfrwt>
<pdfrwt beam="2">  1       -2 0.14720640E+00 0.30283804E+04</pdfrwt>
<totfact> 0.10743926E+00</totfact>
</mgrwt>
</event>
<event>
 6    1  0.1071916E-006  0.2088874E+04  0.7818608E-02  0.8566161E-01
          1   -1    0    0  501    0  0.00000000000E+00  0.00000000000E+00  0.11217961424E+04  0.11217961424E+04  0.00000000000E+00 0. -1.
         -1   -1    0    0    0  501 -0.00000000000E+00 -0.00000000000E+00 -0.97241218125E+03  0.97241218125E+03  0.00000000000E+00 0.  1.
         23    2    1    2    0    0 -0.33296935933E+03  0.12946617323E+03  0.10566634534E+04  0.11191256804E+04  0.90964556573E+02 0.  0.
         11    1    3    3    0    0 -0.98573535514E+02  0.80491220676E+02  0.42289455050E+03  0.44162810073E+03  0.00000000000E+00 0. -1.
        -11    1    3    3    0    0 -0.23439582382E+03  0.48974952549E+02  0.63376890286E+03  0.67749757965E+03  0.00000000000E+00 0.  1.
         22    1    1    2    0    0  0.33296935933E+03 -0.12946617323E+03 -0.90727949220E+03  0.97508264328E+03  0.00000000000E+00 0.  1.
<mgrwt>
<rscale>  0 0.20888736E+04</rscale>
<asrwt>0</asrwt>
<pdfrwt beam="1">  1        1 0.17258402E+00 0.20888736E+04</pdfrwt>
<pdfrwt beam="2">  1       -1 0.14960187E+00 0.20888736E+04</pdfrwt>
<totfact> 0.39500632E+00</totfact>
</mgrwt>
</event>
<event>
 6    1  0.1028026E-006  0.1919370E+04  0.7818608E-02  0.8645274E-01
          2   -1    0    0  501    0  0.00000000000E+00  0.00000000000E+00  0.97745315195E+03  0.97745315195E+03  0.00000000000E+00 0. -1.
         -2   -1    0    0    0  501 -0.00000000000E+00 -0.00000000000E+00 -0.94224000172E+03  0.94224000172E+03  0.00000000000E+00 0.  1.
         23    2    1    2    0    0 -0.24003681592E+03 -0.89775963214E+03 -0.21517367402E+03  0.95725687429E+03  0.80318013527E+02 0.  0.
         11    1    3    3    0    0 -0.36361734509E+02 -0.25840652129E+03 -0.78091591342E+02  0.27238649493E+03  0.00000000000E+00 0. -1.
        -11    1    3    3    0    0 -0.20367508141E+03 -0.63935311085E+03 -0.13708208268E+03  0.68487037937E+03  0.00000000000E+00 0.  1.
         22    1    1    2    0    0  0.24003681592E+03  0.89775963214E+03  0.25038682426E+03  0.96243627937E+03  0.00000000000E+00 0. -1.
<mgrwt>
<rscale>  0 0.19193702E+04</rscale>
<asrwt>0</asrwt>
<pdfrwt beam="1">  1        2 0.15037741E+00 0.19193702E+04</pdfrwt>
<pdfrwt beam="2">  1       -2 0.14496000E+00 0.19193702E+04</pdfrwt>
<totfact> 0.79867109E+00</totfact>
</mgrwt>
</event>
<event>
 6    1  0.1028026E-006  0.2406740E+04  0.7818608E-02  0.8436985E-01
          1   -1    0    0  501    0  0.00000000000E+00  0.00000000000E+00  0.86105325530E+03  0.86105325530E+03  0.00000000000E+00 0. -1.
         -1   -1    0    0    0  501 -0.00000000000E+00 -0.00000000000E+00 -0.16817767330E+04  0.16817767330E+04  0.00000000000E+00 0.  1.
         23    2    1    2    0    0  0.11580152307E+04  0.88028936007E+02 -0.73683449167E+03  0.13784478646E+04  0.91897111306E+02 0.  0.
         13    1    3    3    0    0  0.22001494048E+03 -0.15126800311E+02 -0.15987332746E+03  0.27238736196E+03  0.00000000000E+00 0. -1.
        -13    1    3    3    0    0  0.93800029024E+03  0.10315573632E+03 -0.57696116420E+03  0.11060605026E+04  0.00000000000E+00 0.  1.
         22    1    1    2    0    0 -0.11580152307E+04 -0.88028936007E+02 -0.83888986073E+02  0.11643821238E+04  0.00000000000E+00 0. -1.
<mgrwt>
<rscale>  0 0.24067400E+04</rscale>
<asrwt>0</asrwt>
<pdfrwt beam="1">  1        1 0.13246973E+00 0.24067400E+04</pdfrwt>
<pdfrwt beam="2">  1       -1 0.25873488E+00 0.24067400E+04</pdfrwt>
<totfact> 0.10735300E+00</totfact>
</mgrwt>
</event>
<event>
 6    1  0.1028026E-006  0.1445215E+04  0.7818608E-02  0.8921724E-01
         -2   -1    0    0    0  501 -0.00000000000E+00  0.00000000000E+00  0.94973723085E+03  0.94973723085E+03  0.00000000000E+00 0.  1.
          2   -1    0    0  501    0  0.00000000000E+00 -0.00000000000E+00 -0.54979605499E+03  0.54979605499E+03  0.00000000000E+00 0. -1.
         23    2    1    2    0    0 -0.13237320930E+03 -0.67664879711E+03  0.41505496822E+03  0.80989230105E+03  0.90987095140E+02 0.  0.
         13    1    3    3    0    0 -0.50480649924E+02 -0.32450497423E+03  0.24850883932E+03  0.41183542530E+03  0.00000000000E+00 0. -1.
        -13    1    3    3    0    0 -0.81892559380E+02 -0.35214382289E+03  0.16654612890E+03  0.39805687575E+03  0.00000000000E+00 0.  1.
         22    1    1    2    0    0  0.13237320930E+03  0.67664879711E+03 -0.15113792357E+02  0.68964098479E+03  0.00000000000E+00 0. -1.
<mgrwt>
<rscale>  0 0.14452153E+04</rscale>
<asrwt>0</asrwt>
<pdfrwt beam="1">  1        2 0.84584008E-01 0.14452153E+04</pdfrwt>
<pdfrwt beam="2">  1       -2 0.14611342E+00 0.14452153E+04</pdfrwt>
<totfact> 0.17146077E+01</totfact>
</mgrwt>
</event>
<event>
 6    1  0.1028026E-006  0.7555242E+03  0.7818608E-02  0.9626723E-01
          2   -1    0    0  501    0  0.00000000000E+00  0.00000000000E+00  0.84450655514E+03  0.84450655514E+03  0.00000000000E+00 0. -1.
         -2   -1    0    0    0  501 -0.00000000000E+00 -0.00000000000E+00 -0.16897939465E+03  0.16897939465E+03  0.00000000000E+00 0.  1.
         23    2    1    2    0    0  0.18238751926E+03  0.24312500992E+03  0.63085255708E+03  0.70628764605E+03  0.92153744114E+02 0.  0.
         11    1    3    3    0    0  0.12686524065E+03  0.96599429704E+02  0.28447915561E+03  0.32612057445E+03  0.00000000000E+00 0.  1.
        -11    1    3    3    0    0  0.55522278613E+02  0.14652558022E+03  0.34637340147E+03  0.38016707160E+03  0.00000000000E+00 0. -1.
         22    1    1    2    0    0 -0.18238751926E+03 -0.24312500992E+03  0.44674603418E+02  0.30719830374E+03  0.00000000000E+00 0.  1.
<mgrwt>
<rscale>  0 0.75552421E+03</rscale>
<asrwt>0</asrwt>
<pdfrwt beam="1">  1        2 0.12992408E+00 0.75552421E+03</pdfrwt>
<pdfrwt beam="2">  1       -2 0.25996831E-01 0.75552421E+03</pdfrwt>
<totfact> 0.42978777E+02</totfact>
</mgrwt>
</event>
<event>
 6    1  0.1028026E-006  0.2554963E+04  0.7818608E-02  0.8383662E-01
         -1   -1    0    0    0  501 -0.00000000000E+00  0.00000000000E+00  0.57678657678E+03  0.57678657678E+03  0.00000000000E+00 0.  1.
          1   -1    0    0  501    0  0.00000000000E+00 -0.00000000000E+00 -0.28293992930E+04  0.28293992930E+04  0.00000000000E+00 0. -1.
         23    2    1    2    0    0  0.93523518077E+03  0.56534633231E+03 -0.25000429319E+03  0.11247999281E+04  0.91604655532E+02 0.  0.
         11    1    3    3    0    0  0.53830791266E+03  0.28921864073E+03 -0.10533747919E+03  0.62009581155E+03  0.00000000000E+00 0. -1.
        -11    1    3    3    0    0  0.39692726811E+03  0.27612769158E+03 -0.14466681401E+03  0.50470411658E+03  0.00000000000E+00 0.  1.
         22    1    1    2    0    0 -0.93523518077E+03 -0.56534633231E+03 -0.20026084230E+04  0.22813859417E+04  0.00000000000E+00 0. -1.
<mgrwt>
<rscale>  0 0.25549634E+04</rscale>
<asrwt>0</asrwt>
<pdfrwt beam="1">  1        1 0.43529220E+00 0.25549634E+04</pdfrwt>
<pdfrwt beam="2">  1       -1 0.88736397E-01 0.25549634E+04</pdfrwt>
<totfact> 0.87467864E-01</totfact>
</mgrwt>
</event>
<event>
 6    1  0.1028026E-006  0.1364161E+04  0.7818608E-02  0.8980177E-01
         -2   -1    0    0    0  501 -0.00000000000E+00  0.00000000000E+00  0.11599705152E+04  0.11599705152E+04  0.00000000000E+00 0.  1.
          2   -1    0    0  501    0  0.00000000000E+00 -0.00000000000E+00 -0.40107375120E+03  0.40107375120E+03  0.00000000000E+00 0. -1.
         23    2    1    2    0    0 -0.14747011308E+03  0.60281859513E+03  0.65644981295E+02  0.63059505923E+03  0.90571365611E+02 0.  0.
         11    1    3    3    0    0 -0.10579447541E+03  0.28645852898E+03  0.61354737072E+02  0.31147289386E+03  0.00000000000E+00 0.  1.
        -11    1    3    3    0    0 -0.41675637671E+02  0.31636006616E+03  0.42902442232E+01  0.31912216537E+03  0.00000000000E+00 0. -1.
         22    1    1    2    0    0  0.14747011308E+03 -0.60281859513E+03  0.69325178272E+03  0.93044920718E+03  0.00000000000E+00 0.  1.
<mgrwt>
<rscale>  0 0.13641609E+04</rscale>
<asrwt>0</asrwt>
<pdfrwt beam="1">  1        2 0.61703655E-01 0.13641609E+04</pdfrwt>
<pdfrwt beam="2">  1       -2 0.17845700E+00 0.13641609E+04</pdfrwt>
<totfact> 0.14360248E+01</totfact>
</mgrwt>
</event>
<event>
 6    1  0.1028026E-006  0.1741975E+04  0.7818608E-02  0.8737780E-01
         -2   -1    0    0    0  501 -0.00000000000E+00  0.00000000000E+00  0.27435037775E+04  0.27435037775E+04  0.00000000000E+00 0.  1.
          2   -1    0    0  501    0  0.00000000000E+00 -0.00000000000E+00 -0.27651461380E+03  0.27651461380E+03  0.00000000000E+00 0. -1.
         23    2    1    2    0    0 -0.24156986357E+03  0.14948859181E+03  0.26599483029E+04  0.26766001806E+04  0.90336674836E+02 0.  0.
         13    1    3    3    0    0 -0.34687783184E+02  0.64583900406E+02  0.55995430160E+03  0.56473280618E+03  0.00000000000E+00 0.  1.
        -13    1    3    3    0    0 -0.20688208039E+03  0.84904691400E+02  0.20999940013E+04  0.21118673744E+04  0.00000000000E+00 0. -1.
         22    1    1    2    0    0  0.24156986357E+03 -0.14948859181E+03 -0.19295913916E+03  0.34341821071E+03  0.00000000000E+00 0. -1.
<mgrwt>
<rscale>  0 0.17419746E+04</rscale>
<asrwt>0</asrwt>
<pdfrwt beam="1">  1        2 0.42540712E-01 0.17419746E+04</pdfrwt>
<pdfrwt beam="2">  1       -2 0.42207748E+00 0.17419746E+04</pdfrwt>
<totfact> 0.60911789E-01</totfact>
</mgrwt>
</event>
<event>
 6    1  0.1028026E-006  0.1946518E+04  0.7818608E-02  0.8632042E-01
         -2   -1    0    0    0  501 -0.00000000000E+00  0.00000000000E+00  0.26044679165E+03  0.26044679165E+03  0.00000000000E+00 0.  1.
          2   -1    0    0  501    0  0.00000000000E+00 -0.00000000000E+00 -0.36369527291E+04  0.36369527291E+04  0.00000000000E+00 0. -1.
         23    2    1    2    0    0 -0.29852103122E+03  0.53420433281E+03 -0.32016096680E+04  0.32609423106E+04  0.94610842983E+02 0.  0.
         11    1    3    3    0    0 -0.13471037811E+03  0.17769468334E+03 -0.99005623728E+03  0.10148564625E+04  0.00000000000E+00 0.  1.
        -11    1    3    3    0    0 -0.16381065311E+03  0.35650964948E+03 -0.22115534307E+04  0.22460858481E+04  0.00000000000E+00 0. -1.
         22    1    1    2    0    0  0.29852103122E+03 -0.53420433281E+03 -0.17489626945E+03  0.63645721014E+03  0.00000000000E+00 0.  1.
<mgrwt>
<rscale>  0 0.19465176E+04</rscale>
<asrwt>0</asrwt>
<pdfrwt beam="1">  1        2 0.55953116E+00 0.19465176E+04</pdfrwt>
<pdfrwt beam="2">  1       -2 0.40068740E-01 0.19465176E+04</pdfrwt>
<totfact> 0.35976309E+00</totfact>
</mgrwt>
</event>
<event>
 6    1  0.1028026E-006  0.3511470E+04  0.7818608E-02  0.8111077E-01
          2   -1    0    0  501    0  0.00000000000E+00  0.00000000000E+00  0.22263564489E+04  0.22263564489E+04  0.00000000000E+00 0. -1.
         -2   -1    0    0    0  501 -0.00000000000E+00 -0.00000000000E+00 -0.13845964708E+04  0.13845964708E+04  0.00000000000E+00 0.  1.
         23    2    1    2    0    0 -0.10636869447E+03  0.17515128537E+04  0.40430133299E+03  0.18025056183E+04  0.80345258700E+02 0.  0.
         13    1    3    3    0    0 -0.94870468525E+02  0.12896682358E+04  0.26560982634E+03  0.13201489098E+04  0.00000000000E+00 0. -1.
        -13    1    3    3    0    0 -0.11498225947E+02  0.46184461784E+03  0.13869150665E+03  0.48235670851E+03  0.00000000000E+00 0.  1.
         22    1    1    2    0    0  0.10636869447E+03 -0.17515128537E+04  0.43745864505E+03  0.18084473014E+04  0.00000000000E+00 0.  1.
<mgrwt>
<rscale>  0 0.35114699E+04</rscale>
<asrwt>0</asrwt>
<pdfrwt beam="1">  1        2 0.34251638E+00 0.35114699E+04</pdfrwt>
<pdfrwt beam="2">  1       -2 0.21301484E+00 0.35114699E+04</pdfrwt>
<totfact> 0.44863750E-01</totfact>
</mgrwt>
</event>
<event>
 6    1  0.1346089E-006  0.2376483E+04  0.7818608E-02  0.8448361E-01
          1   -1    0    0  501    0  0.00000000000E+00  0.00000000000E+00  0.12830518681E+04  0.12830518681E+04  0.00000000000E+00 0. -1.
         -1   -1    0    0    0  501 -0.00000000000E+00 -0.00000000000E+00 -0.11004370138E+04  0.11004370138E+04  0.00000000000E+00 0.  1.
         23    2    1    2    0    0  0.44575330980E+03  0.71065985596E+02 -0.10096582259E+04  0.11086314448E+04  0.76860651377E+02 0.  0.
         13    1    3    3    0    0  0.66103409141E+02  0.21793414327E+02 -0.22574023896E+03  0.23622715571E+03  0.00000000000E+00 0. -1.
        -13    1    3    3    0    0  0.37964990066E+03  0.49272571269E+02 -0.78391798691E+03  0.87240428905E+03  0.00000000000E+00 0.  1.
         22    1    1    2    0    0 -0.44575330980E+03 -0.71065985596E+02  0.11922730802E+04  0.12748574372E+04  0.00000000000E+00 0. -1.
<mgrwt>
<rscale>  0 0.23764829E+04</rscale>
<asrwt>0</asrwt>
<pdfrwt beam="1">  1        1 0.19739259E+00 0.23764829E+04</pdfrwt>
<pdfrwt beam="2">  1       -1 0.16929800E+00 0.23764829E+04</pdfrwt>
<totfact> 0.20801078E+00</totfact>
</mgrwt>
</event>
<event>
 6    1  0.1028026E-006  0.1473737E+04  0.7818608E-02  0.8902108E-01
          2   -1    0    0  501    0  0.00000000000E+00  0.00000000000E+00  0.19473198826E+04  0.19473198826E+04  0.00000000000E+00 0. -1.
         -2   -1    0    0    0  501 -0.00000000000E+00 -0.00000000000E+00 -0.27883219042E+03  0.27883219042E+03  0.00000000000E+00 0.  1.
         23    2    1    2    0    0 -0.60364232773E+03  0.25500878066E+02  0.20779174151E+03  0.64543482604E+03  0.91511486764E+02 0.  0.
         13    1    3    3    0    0 -0.18905111543E+03 -0.25808167276E+02  0.38321280977E+02  0.19461476388E+03  0.00000000000E+00 0. -1.
        -13    1    3    3    0    0 -0.41459121230E+03  0.51309045341E+02  0.16947046053E+03  0.45082006216E+03  0.00000000000E+00 0.  1.
         22    1    1    2    0    0  0.60364232773E+03 -0.25500878066E+02  0.14606959507E+04  0.15807172470E+04  0.00000000000E+00 0. -1.
<mgrwt>
<rscale>  0 0.14737374E+04</rscale>
<asrwt>0</asrwt>
<pdfrwt beam="1">  1        2 0.29958767E+00 0.14737374E+04</pdfrwt>
<pdfrwt beam="2">  1       -2 0.42897261E-01 0.14737374E+04</pdfrwt>
<totfact> 0.35659579E+01</totfact>
</mgrwt>
</event>
<event>
 6    1  0.1028026E-006  0.4232657E+04  0.7818608E-02  0.7959189E-01
         -1   -1    0    0    0  501 -0.00000000000E+00  0.00000000000E+00  0.14112870779E+04  0.14112870779E+04  0.00000000000E+00 0.  1.
          1   -1    0    0  501    0  0.00000000000E+00 -0.00000000000E+00 -0.31735899459E+04  0.31735899459E+04  0.00000000000E+00 0. -1.
         23    2    1    2    0    0  0.85021792145E+03  0.16434111994E+04  0.22894052048E+03  0.18666568127E+04  0.91230532950E+02 0.  0.
         11    1    3    3    0    0  0.62440071469E+03  0.11446281773E+04  0.19164030546E+03  0.13178679462E+04  0.00000000000E+00 0.  1.
        -11    1    3    3    0    0  0.22581720675E+03  0.49878302207E+03  0.37300215014E+02  0.54878886652E+03  0.00000000000E+00 0. -1.
         22    1    1    2    0    0 -0.85021792145E+03 -0.16434111994E+04 -0.19912433885E+04  0.27182202112E+04  0.00000000000E+00 0. -1.
<mgrwt>
<rscale>  0 0.42326571E+04</rscale>
<asrwt>0</asrwt>
<pdfrwt beam="1">  1        1 0.48824460E+00 0.42326571E+04</pdfrwt>
<pdfrwt beam="2">  1       -1 0.21712109E+00 0.42326571E+04</pdfrwt>
<totfact> 0.39284058E-02</totfact>
</mgrwt>
</event>
<event>
 6    1  0.1028026E-006  0.2105442E+04  0.7818608E-02  0.8558850E-01
          2   -1    0    0  501    0  0.00000000000E+00  0.00000000000E+00  0.86027634361E+03  0.86027634361E+03  0.00000000000E+00 0. -1.
         -2   -1    0    0    0  501 -0.00000000000E+00 -0.00000000000E+00 -0.12882151802E+04  0.12882151802E+04  0.00000000000E+00 0.  1.
         23    2    1    2    0    0  0.65410303796E+03  0.82072763576E+03 -0.26709923902E+03  0.10867410764E+04  0.90661608916E+02 0.  0.
         11    1    3    3    0    0  0.21330961292E+03  0.33398228018E+03 -0.11582717453E+03  0.41286933623E+03  0.00000000000E+00 0.  1.
        -11    1    3    3    0    0  0.44079342504E+03  0.48674535558E+03 -0.15127206449E+03  0.67387174019E+03  0.00000000000E+00 0. -1.
         22    1    1    2    0    0 -0.65410303796E+03 -0.82072763576E+03 -0.16083959756E+03  0.10617504474E+04  0.00000000000E+00 0. -1.
<mgrwt>
<rscale>  0 0.21054416E+04</rscale>
<asrwt>0</asrwt>
<pdfrwt beam="1">  1        2 0.13235021E+00 0.21054416E+04</pdfrwt>
<pdfrwt beam="2">  1       -2 0.19818695E+00 0.21054416E+04</pdfrwt>
<totfact> 0.39297806E+00</totfact>
</mgrwt>
</event>
<event>
 6    1  0.1028026E-006  0.1419900E+04  0.7818608E-02  0.8939539E-01
          1   -1    0    0  501    0  0.00000000000E+00  0.00000000000E+00  0.77087781002E+03  0.77087781002E+03  0.00000000000E+00 0. -1.
         -1   -1    0    0    0  501 -0.00000000000E+00 -0.00000000000E+00 -0.65383760913E+03  0.65383760913E+03  0.00000000000E+00 0.  1.
         23    2    1    2    0    0  0.26998952711E+03  0.50625521632E+03 -0.35577241341E+03  0.68125025046E+03  0.91319246653E+02 0.  0.
         13    1    3    3    0    0  0.17313562184E+03  0.23907233428E+03 -0.15602178099E+03  0.33387770322E+03  0.00000000000E+00 0. -1.
        -13    1    3    3    0    0  0.96853905278E+02  0.26718288204E+03 -0.19975063242E+03  0.34737254724E+03  0.00000000000E+00 0.  1.
         22    1    1    2    0    0 -0.26998952711E+03 -0.50625521632E+03  0.47281261430E+03  0.74346516868E+03  0.00000000000E+00 0. -1.
<mgrwt>
<rscale>  0 0.14198999E+04</rscale>
<asrwt>0</asrwt>
<pdfrwt beam="1">  1        1 0.11859659E+00 0.14198999E+04</pdfrwt>
<pdfrwt beam="2">  1       -1 0.10059040E+00 0.14198999E+04</pdfrwt>
<totfact> 0.21482901E+01</totfact>
</mgrwt>
</event>
<event>
 6    1  0.1028026E-006  0.2814859E+04  0.7818608E-02  0.8298670E-01
          4   -1    0    0  501    0  0.00000000000E+00  0.00000000000E+00  0.16972524288E+04  0.16972524288E+04  0.00000000000E+00 0. -1.
         -4   -1    0    0    0  501 -0.00000000000E+00 -0.00000000000E+00 -0.11670963773E+04  0.11670963773E+04  0.00000000000E+00 0.  1.
         23    2    1    2    0    0  0.11328180103E+04  0.64628785039E+03  0.79970586119E+03  0.15325749026E+04  0.91058979266E+02 0.  0.
         13    1    3    3    0    0  0.87745785587E+03  0.48828245453E+03  0.65783393443E+03  0.12004572169E+04  0.00000000000E+00 0.  1.
        -13    1    3    3    0    0  0.25536015446E+03  0.15800539586E+03  0.14187192676E+03  0.33211768578E+03  0.00000000000E+00 0. -1.
         22    1    1    2    0    0 -0.11328180103E+04 -0.64628785039E+03 -0.26954980968E+03  0.13317739035E+04  0.00000000000E+00 0.  1.
<mgrwt>
<rscale>  0 0.28148585E+04</rscale>
<asrwt>0</asrwt>
<pdfrwt beam="1">  1        4 0.26111576E+00 0.28148585E+04</pdfrwt>
<pdfrwt beam="2">  1       -4 0.17955329E+00 0.28148585E+04</pdfrwt>
<totfact> 0.16856118E-02</totfact>
</mgrwt>
</event>
<event>
 6    1  0.1028026E-006  0.2757024E+04  0.7818608E-02  0.8316736E-01
         -1   -1    0    0    0  501 -0.00000000000E+00  0.00000000000E+00  0.11626623299E+04  0.11626623299E+04  0.00000000000E+00 0.  1.
          1   -1    0    0  501    0  0.00000000000E+00 -0.00000000000E+00 -0.16344340315E+04  0.16344340315E+04  0.00000000000E+00 0. -1.
         23    2    1    2    0    0 -0.11063952242E+04  0.49049775420E+03 -0.90245933127E+03  0.15124990419E+04  0.92315048590E+02 0.  0.
         11    1    3    3    0    0 -0.28655624209E+03  0.85410420943E+02 -0.23677951555E+03  0.38141048605E+03  0.00000000000E+00 0. -1.
        -11    1    3    3    0    0 -0.81983898212E+03  0.40508733326E+03 -0.66567981573E+03  0.11310885559E+04  0.00000000000E+00 0.  1.
         22    1    1    2    0    0  0.11063952242E+04 -0.49049775420E+03  0.43068762965E+03  0.12845973195E+04  0.00000000000E+00 0.  1.
<mgrwt>
<rscale>  0 0.27570237E+04</rscale>
<asrwt>0</asrwt>
<pdfrwt beam="1">  1        1 0.25145139E+00 0.27570237E+04</pdfrwt>
<pdfrwt beam="2">  1       -1 0.17887113E+00 0.27570237E+04</pdfrwt>
<totfact> 0.97369876E-01</totfact>
</mgrwt>
</event>
<event>
 6    1  0.1028026E-006  0.3228577E+04  0.7818608E-02  0.8181311E-01
          2   -1    0    0  501    0  0.00000000000E+00  0.00000000000E+00  0.21010827929E+04  0.21010827929E+04  0.00000000000E+00 0. -1.
         -2   -1    0    0    0  501 -0.00000000000E+00 -0.00000000000E+00 -0.12402779260E+04  0.12402779260E+04  0.00000000000E+00 0.  1.
         23    2    1    2    0    0  0.12094231579E+04  0.77424893085E+03  0.11910542233E+04  0.18678511603E+04  0.89955612295E+02 0.  0.
         11    1    3    3    0    0  0.27367617526E+03  0.13977450492E+03  0.28311906050E+03  0.41784203181E+03  0.00000000000E+00 0.  1.
        -11    1    3    3    0    0  0.93574698265E+03  0.63447442593E+03  0.90793516283E+03  0.14500091285E+04  0.00000000000E+00 0. -1.
         22    1    1    2    0    0 -0.12094231579E+04 -0.77424893085E+03 -0.33024935640E+03  0.14735095586E+04  0.00000000000E+00 0.  1.
<mgrwt>
<rscale>  0 0.32285765E+04</rscale>
<asrwt>0</asrwt>
<pdfrwt beam="1">  1        2 0.32324351E+00 0.32285765E+04</pdfrwt>
<pdfrwt beam="2">  1       -2 0.19081199E+00 0.32285765E+04</pdfrwt>
<totfact> 0.75456185E-01</totfact>
</mgrwt>
</event>
<event>
 6    1  0.1028026E-006  0.1737113E+04  0.7818608E-02  0.8740476E-01
          2   -1    0    0  501    0  0.00000000000E+00  0.00000000000E+00  0.12446966996E+04  0.12446966996E+04  0.00000000000E+00 0. -1.
         -2   -1    0    0    0  501 -0.00000000000E+00 -0.00000000000E+00 -0.60608361491E+03  0.60608361491E+03  0.00000000000E+00 0.  1.
         23    2    1    2    0    0 -0.83322784718E+03 -0.14063502325E+03  0.11724137992E+03  0.85786777574E+03  0.90248126847E+02 0.  0.
         13    1    3    3    0    0 -0.66001535600E+03 -0.81439676522E+02  0.11445574380E+03  0.67479834644E+03  0.00000000000E+00 0. -1.
        -13    1    3    3    0    0 -0.17321249118E+03 -0.59195346723E+02  0.27856361261E+01  0.18306942930E+03  0.00000000000E+00 0.  1.
         22    1    1    2    0    0  0.83322784718E+03  0.14063502325E+03  0.52137170473E+03  0.99291253874E+03  0.00000000000E+00 0. -1.
<mgrwt>
<rscale>  0 0.17371129E+04</rscale>
<asrwt>0</asrwt>
<pdfrwt beam="1">  1        2 0.19149180E+00 0.17371129E+04</pdfrwt>
<pdfrwt beam="2">  1       -2 0.93243633E-01 0.17371129E+04</pdfrwt>
<totfact> 0.16457909E+01</totfact>
</mgrwt>
</event>
<event>
 6    1  0.1028026E-006  0.7508990E+03  0.7818608E-02  0.9633941E-01
         -2   -1    0    0    0  501 -0.00000000000E+00  0.00000000000E+00  0.30187396146E+03  0.30187396146E+03  0.00000000000E+00 0.  1.
          2   -1    0    0  501    0  0.00000000000E+00 -0.00000000000E+00 -0.46695758350E+03  0.46695758350E+03  0.00000000000E+00 0. -1.
         23    2    1    2    0    0 -0.98568955277E+02  0.27086329420E+03 -0.32101156724E+03  0.44111781747E+03  0.91944219468E+02 0.  0.
         11    1    3    3    0    0  0.15972760433E+02  0.21686404020E+02 -0.41995553758E+02  0.49890437266E+02  0.00000000000E+00 0. -1.
        -11    1    3    3    0    0 -0.11454171571E+03  0.24917689018E+03 -0.27901601348E+03  0.39122738020E+03  0.00000000000E+00 0.  1.
         22    1    1    2    0    0  0.98568955277E+02 -0.27086329420E+03  0.15592794521E+03  0.32771372749E+03  0.00000000000E+00 0.  1.
<mgrwt>
<rscale>  0 0.75089902E+03</rscale>
<asrwt>0</asrwt>
<pdfrwt beam="1">  1        2 0.71839628E-01 0.75089902E+03</pdfrwt>
<pdfrwt beam="2">  1       -2 0.46442148E-01 0.75089902E+03</pdfrwt>
<totfact> 0.29534104E+02</totfact>
</mgrwt>
</event>
<event>
 6    1  0.1028026E-006  0.3887155E+04  0.7818608E-02  0.8027706E-01
          2   -1    0    0  501    0  0.00000000000E+00  0.00000000000E+00  0.27595737136E+04  0.27595737136E+04  0.00000000000E+00 0. -1.
         -2   -1    0    0    0  501 -0.00000000000E+00 -0.00000000000E+00 -0.13688687073E+04  0.13688687073E+04  0.00000000000E+00 0.  1.
         23    2    1    2    0    0 -0.18309803552E+04  0.37914330427E+03  0.13683776580E+03  0.18771268582E+04  0.92962149766E+02 0.  0.
         13    1    3    3    0    0 -0.10472702820E+04  0.19519548048E+03  0.11888078097E+03  0.10719183548E+04  0.00000000000E+00 0. -1.
        -13    1    3    3    0    0 -0.78371007314E+03  0.18394782379E+03  0.17956984829E+02  0.80520850339E+03  0.00000000000E+00 0.  1.
         22    1    1    2    0    0  0.18309803552E+04 -0.37914330427E+03  0.12538672406E+04  0.22513155628E+04  0.00000000000E+00 0. -1.
<mgrwt>
<rscale>  0 0.38871553E+04</rscale>
<asrwt>0</asrwt>
<pdfrwt beam="1">  1        2 0.42454980E+00 0.38871553E+04</pdfrwt>
<pdfrwt beam="2">  1       -2 0.21059519E+00 0.38871553E+04</pdfrwt>
<totfact> 0.22097342E-01</totfact>
</mgrwt>
</event>
<event>
 6    1  0.1028026E-006  0.1939788E+04  0.7818608E-02  0.8635301E-01
         -1   -1    0    0    0  501 -0.00000000000E+00  0.00000000000E+00  0.76757011526E+03  0.76757011526E+03  0.00000000000E+00 0.  1.
          1   -1    0    0  501    0  0.00000000000E+00 -0.00000000000E+00 -0.12255483130E+04  0.12255483130E+04  0.00000000000E+00 0. -1.
         23    2    1    2    0    0 -0.16321113202E+03  0.51427996969E+03 -0.10549618179E+04  0.11884376198E+04  0.91201853174E+02 0.  0.
         11    1    3    3    0    0 -0.14095353718E+03  0.32069540505E+03 -0.62753885682E+03  0.71869218674E+03  0.00000000000E+00 0.  1.
        -11    1    3    3    0    0 -0.22257594841E+02  0.19358456465E+03 -0.42742296109E+03  0.46974543304E+03  0.00000000000E+00 0. -1.
         22    1    1    2    0    0  0.16321113202E+03 -0.51427996969E+03  0.59698362014E+03  0.80468080850E+03  0.00000000000E+00 0.  1.
<mgrwt>
<rscale>  0 0.19397879E+04</rscale>
<asrwt>0</asrwt>
<pdfrwt beam="1">  1        1 0.18854589E+00 0.19397879E+04</pdfrwt>
<pdfrwt beam="2">  1       -1 0.11808771E+00 0.19397879E+04</pdfrwt>
<totfact> 0.61463905E+00</totfact>
</mgrwt>
</event>
<event>
 6    1  0.1028026E-006  0.2131308E+04  0.7818608E-02  0.8547576E-01
         -2   -1    0    0    0  501 -0.00000000000E+00  0.00000000000E+00  0.11246881598E+04  0.11246881598E+04  0.00000000000E+00 0.  1.
          2   -1    0    0  501    0  0.00000000000E+00 -0.00000000000E+00 -0.10097183812E+04  0.10097183812E+04  0.00000000000E+00 0. -1.
         23    2    1    2    0    0 -0.26632837681E+03  0.59991622849E+03 -0.78072894867E+03  0.10239532571E+04  0.90068285116E+02 0.  0.
         11    1    3    3    0    0 -0.74444058822E+02  0.27713750112E+03 -0.33146682344E+03  0.43842601139E+03  0.00000000000E+00 0. -1.
        -11    1    3    3    0    0 -0.19188431799E+03  0.32277872737E+03 -0.44926212523E+03  0.58552724574E+03  0.00000000000E+00 0.  1.
         22    1    1    2    0    0  0.26632837681E+03 -0.59991622849E+03  0.89569872732E+03  0.11104532839E+04  0.00000000000E+00 0.  1.
<mgrwt>
<rscale>  0 0.21313079E+04</rscale>
<asrwt>0</asrwt>
<pdfrwt beam="1">  1        2 0.15534129E+00 0.21313079E+04</pdfrwt>
<pdfrwt beam="2">  1       -2 0.17302895E+00 0.21313079E+04</pdfrwt>
<totfact> 0.46290101E+00</totfact>
</mgrwt>
</event>
<event>
 6    1  0.1028026E-006  0.3090309E+04  0.7818608E-02  0.8218402E-01
         -2   -1    0    0    0  501 -0.00000000000E+00  0.00000000000E+00  0.13947319703E+04  0.13947319703E+04  0.00000000000E+00 0.  1.
          2   -1    0    0  501    0  0.00000000000E+00 -0.00000000000E+00 -0.17118005904E+04  0.17118005904E+04  0.00000000000E+00 0. -1.
         23    2    1    2    0    0 -0.87110187766E+03 -0.12323469968E+04 -0.48559699748E+03  0.15880137377E+04  0.92117236710E+02 0.  0.
         13    1    3    3    0    0 -0.34252457707E+03 -0.46126906906E+03 -0.22984148481E+03  0.61880477383E+03  0.00000000000E+00 0. -1.
        -13    1    3    3    0    0 -0.52857730059E+03 -0.77107792778E+03 -0.25575551267E+03  0.96920896388E+03  0.00000000000E+00 0.  1.
         22    1    1    2    0    0  0.87110187766E+03  0.12323469968E+04  0.16852837733E+03  0.15185188230E+04  0.00000000000E+00 0. -1.
<mgrwt>
<rscale>  0 0.30903094E+04</rscale>
<asrwt>0</asrwt>
<pdfrwt beam="1">  1        2 0.26335394E+00 0.30903094E+04</pdfrwt>
<pdfrwt beam="2">  1       -2 0.21457415E+00 0.30903094E+04</pdfrwt>
<totfact> 0.87847796E-01</totfact>
</mgrwt>
</event>
<event>
 6    1  0.1028026E-006  0.2187553E+04  0.7818608E-02  0.8523627E-01
          2   -1    0    0  501    0  0.00000000000E+00  0.00000000000E+00  0.89015608490E+03  0.89015608490E+03  0.00000000000E+00 0. -1.
         -2   -1    0    0    0  501 -0.00000000000E+00 -0.00000000000E+00 -0.13439743237E+04  0.13439743237E+04  0.00000000000E+00 0.  1.
         23    2    1    2    0    0  0.25223307294E+03 -0.43497812802E+03 -0.12170221909E+04  0.13201786771E+04  0.94346337601E+02 0.  0.
         13    1    3    3    0    0  0.13254023368E+02 -0.88740045643E+02 -0.24969102359E+03  0.26532258121E+03  0.00000000000E+00 0. -1.
        -13    1    3    3    0    0  0.23897904957E+03 -0.34623808238E+03 -0.96733116731E+03  0.10548560959E+04  0.00000000000E+00 0.  1.
         22    1    1    2    0    0 -0.25223307294E+03  0.43497812802E+03  0.76320395211E+03  0.91395173147E+03  0.00000000000E+00 0. -1.
<mgrwt>
<rscale>  0 0.21875529E+04</rscale>
<asrwt>0</asrwt>
<pdfrwt beam="1">  1        2 0.13694709E+00 0.21875529E+04</pdfrwt>
<pdfrwt beam="2">  1       -2 0.20676528E+00 0.21875529E+04</pdfrwt>
<totfact> 0.32723089E+00</totfact>
</mgrwt>
</event>
<event>
 6    1  0.1028026E-006  0.1692821E+04  0.7818608E-02  0.8765469E-01
          1   -1    0    0  501    0  0.00000000000E+00  0.00000000000E+00  0.13151123118E+04  0.13151123118E+04  0.00000000000E+00 0. -1.
         -1   -1    0    0    0  501 -0.00000000000E+00 -0.00000000000E+00 -0.54475267926E+03  0.54475267926E+03  0.00000000000E+00 0.  1.
         23    2    1    2    0    0  0.67041577718E+03 -0.39939565282E+03  0.32722103999E+02  0.78604781607E+03  0.88465989330E+02 0.  0.
         13    1    3    3    0    0  0.59286464996E+03 -0.34756843609E+03  0.57208308669E+02  0.68961228347E+03  0.00000000000E+00 0.  1.
        -13    1    3    3    0    0  0.77551127226E+02 -0.51827216726E+02 -0.24486204670E+02  0.96435532595E+02  0.00000000000E+00 0. -1.
         22    1    1    2    0    0 -0.67041577718E+03  0.39939565282E+03  0.73763752850E+03  0.10738171750E+04  0.00000000000E+00 0. -1.
<mgrwt>
<rscale>  0 0.16928213E+04</rscale>
<asrwt>0</asrwt>
<pdfrwt beam="1">  1        1 0.20232497E+00 0.16928213E+04</pdfrwt>
<pdfrwt beam="2">  1       -1 0.83808105E-01 0.16928213E+04</pdfrwt>
<totfact> 0.11860394E+01</totfact>
</mgrwt>
</event>
<event>
 6    1  0.1028026E-006  0.2794769E+04  0.7818608E-02  0.8304894E-01
         -2   -1    0    0    0  501 -0.00000000000E+00  0.00000000000E+00  0.86468956156E+03  0.86468956156E+03  0.00000000000E+00 0.  1.
          2   -1    0    0  501    0  0.00000000000E+00 -0.00000000000E+00 -0.22582483120E+04  0.22582483120E+04  0.00000000000E+00 0. -1.
         23    2    1    2    0    0 -0.31619870860E+03 -0.96066895932E+03  0.37750715267E+03  0.10834426159E+04  0.92031402153E+02 0.  0.
         11    1    3    3    0    0 -0.18136741085E+03 -0.43492876072E+03  0.20545443779E+03  0.51407070586E+03  0.00000000000E+00 0.  1.
        -11    1    3    3    0    0 -0.13483129774E+03 -0.52574019861E+03  0.17205271488E+03  0.56937191007E+03  0.00000000000E+00 0. -1.
         22    1    1    2    0    0  0.31619870860E+03  0.96066895932E+03 -0.17710659031E+04  0.20394952576E+04  0.00000000000E+00 0. -1.
<mgrwt>
<rscale>  0 0.27947692E+04</rscale>
<asrwt>0</asrwt>
<pdfrwt beam="1">  1        2 0.34742281E+00 0.27947692E+04</pdfrwt>
<pdfrwt beam="2">  1       -2 0.13302917E+00 0.27947692E+04</pdfrwt>
<totfact> 0.17069353E+00</totfact>
</mgrwt>
</event>
<event>
 6    1  0.1028026E-006  0.1973874E+04  0.7818608E-02  0.8618934E-01
         -1   -1    0    0    0  501 -0.00000000000E+00  0.00000000000E+00  0.61290304661E+03  0.61290304661E+03  0.00000000000E+00 0.  1.
          1   -1    0    0  501    0  0.00000000000E+00 -0.00000000000E+00 -0.15892313107E+04  0.15892313107E+04  0.00000000000E+00 0. -1.
         23    2    1    2    0    0 -0.55378797919E+03  0.49868430321E+03  0.22945847974E+03  0.78464050132E+03  0.87420605277E+02 0.  0.
         11    1    3    3    0    0 -0.25509707190E+03  0.21382194296E+03  0.58852102793E+02  0.33802057539E+03  0.00000000000E+00 0. -1.
        -11    1    3    3    0    0 -0.29869090729E+03  0.28486236024E+03  0.17060637695E+03  0.44661992593E+03  0.00000000000E+00 0.  1.
         22    1    1    2    0    0  0.55378797919E+03 -0.49868430321E+03 -0.12057867438E+04  0.14174938559E+04  0.00000000000E+00 0. -1.
<mgrwt>
<rscale>  0 0.19738741E+04</rscale>
<asrwt>0</asrwt>
<pdfrwt beam="1">  1        1 0.24449712E+00 0.19738741E+04</pdfrwt>
<pdfrwt beam="2">  1       -1 0.94292777E-01 0.19738741E+04</pdfrwt>
<totfact> 0.57458956E+00</totfact>
</mgrwt>
</event>
<event>
 6    1  0.1028026E-006  0.1249489E+04  0.7818608E-02  0.9070609E-01
         -4   -1    0    0    0  501 -0.00000000000E+00  0.00000000000E+00  0.20266969546E+03  0.20266969546E+03  0.00000000000E+00 0.  1.
          4   -1    0    0  501    0  0.00000000000E+00 -0.00000000000E+00 -0.19258203171E+04  0.19258203171E+04  0.00000000000E+00 0. -1.
         23    2    1    2    0    0  0.14776966410E+03  0.60105330630E+03 -0.77165588821E+03  0.99339390280E+03  0.90981787484E+02 0.  0.
         13    1    3    3    0    0  0.11459408222E+03  0.49869680059E+03 -0.57881134189E+03  0.77256253604E+03  0.00000000000E+00 0.  1.
        -13    1    3    3    0    0  0.33175581878E+02  0.10235650571E+03 -0.19284454633E+03  0.22083136675E+03  0.00000000000E+00 0. -1.
         22    1    1    2    0    0 -0.14776966410E+03 -0.60105330630E+03 -0.95149473343E+03  0.11350961098E+04  0.00000000000E+00 0.  1.
<mgrwt>
<rscale>  0 0.12494886E+04</rscale>
<asrwt>0</asrwt>
<pdfrwt beam="1">  1        4 0.29628005E+00 0.12494886E+04</pdfrwt>
<pdfrwt beam="2">  1       -4 0.31179953E-01 0.12494886E+04</pdfrwt>
<totfact> 0.64608874E-01</totfact>
</mgrwt>
</event>
<event>
 6    1  0.1028026E-006  0.6314431E+04  0.7818608E-02  0.7652593E-01
          1   -1    0    0  501    0  0.00000000000E+00  0.00000000000E+00  0.31776500964E+04  0.31776500964E+04  0.00000000000E+00 0. -1.
         -1   -1    0    0    0  501 -0.00000000000E+00 -0.00000000000E+00 -0.31369120607E+04  0.31369120607E+04  0.00000000000E+00 0.  1.
         23    2    1    2    0    0 -0.72100871750E+03 -0.10090986808E+04  0.29231769890E+04  0.31766348098E+04  0.88945420008E+02 0.  0.
         13    1    3    3    0    0 -0.51905826379E+02 -0.39591095271E+02  0.16427074661E+03  0.17676693081E+03  0.00000000000E+00 0. -1.
        -13    1    3    3    0    0 -0.66910289112E+03 -0.96950758548E+03  0.27589062424E+04  0.29998678790E+04  0.00000000000E+00 0.  1.
         22    1    1    2    0    0  0.72100871750E+03  0.10090986808E+04 -0.28824389532E+04  0.31379273473E+04  0.00000000000E+00 0.  1.
<mgrwt>
<rscale>  0 0.63144307E+04</rscale>
<asrwt>0</asrwt>
<pdfrwt beam="1">  1        1 0.48886924E+00 0.63144307E+04</pdfrwt>
<pdfrwt beam="2">  1       -1 0.48260186E+00 0.63144307E+04</pdfrwt>
<totfact> 0.56374479E-04</totfact>
</mgrwt>
</event>
<event>
 6    1  0.1028026E-006  0.3435670E+04  0.7818608E-02  0.8129207E-01
         -1   -1    0    0    0  501 -0.00000000000E+00  0.00000000000E+00  0.97209392612E+03  0.97209392612E+03  0.00000000000E+00 0.  1.
          1   -1    0    0  501    0  0.00000000000E+00 -0.00000000000E+00 -0.30356705342E+04  0.30356705342E+04  0.00000000000E+00 0. -1.
         23    2    1    2    0    0 -0.92826646026E+03  0.67164647783E+03 -0.25237399858E+04  0.27730426509E+04  0.87831745441E+02 0.  0.
         11    1    3    3    0    0 -0.58225796650E+03  0.46431624059E+03 -0.16925942759E+04  0.18491861165E+04  0.00000000000E+00 0.  1.
        -11    1    3    3    0    0 -0.34600849376E+03  0.20733023724E+03 -0.83114570994E+03  0.92385653442E+03  0.00000000000E+00 0. -1.
         22    1    1    2    0    0  0.92826646026E+03 -0.67164647783E+03  0.46016337771E+03  0.12347218094E+04  0.00000000000E+00 0.  1.
<mgrwt>
<rscale>  0 0.34356699E+04</rscale>
<asrwt>0</asrwt>
<pdfrwt beam="1">  1        1 0.46702624E+00 0.34356699E+04</pdfrwt>
<pdfrwt beam="2">  1       -1 0.14955291E+00 0.34356699E+04</pdfrwt>
<totfact> 0.16224954E-01</totfact>
</mgrwt>
</event>
<event>
 6    1  0.1028026E-006  0.2489984E+04  0.7818608E-02  0.8406562E-01
          1   -1    0    0  501    0  0.00000000000E+00  0.00000000000E+00  0.82006017128E+03  0.82006017128E+03  0.00000000000E+00 0. -1.
         -1   -1    0    0    0  501 -0.00000000000E+00 -0.00000000000E+00 -0.18901116391E+04  0.18901116391E+04  0.00000000000E+00 0.  1.
         23    2    1    2    0    0 -0.95603447106E+03 -0.43158176372E+03 -0.12623365043E+04  0.16437580708E+04  0.90456711644E+02 0.  0.
         13    1    3    3    0    0 -0.34792883915E+03 -0.17383636396E+03 -0.40499956705E+03  0.56151420985E+03  0.00000000000E+00 0.  1.
        -13    1    3    3    0    0 -0.60810563191E+03 -0.25774539977E+03 -0.85733693720E+03  0.10822438609E+04  0.00000000000E+00 0. -1.
         22    1    1    2    0    0  0.95603447106E+03  0.43158176372E+03  0.19228503648E+03  0.10664137395E+04  0.00000000000E+00 0. -1.
<mgrwt>
<rscale>  0 0.24899842E+04</rscale>
<asrwt>0</asrwt>
<pdfrwt beam="1">  1        1 0.12616310E+00 0.24899842E+04</pdfrwt>
<pdfrwt beam="2">  1       -1 0.29078641E+00 0.24899842E+04</pdfrwt>
<totfact> 0.71573651E-01</totfact>
</mgrwt>
</event>
<event>
 6    1  0.1028026E-006  0.2253033E+04  0.7818608E-02  0.8496673E-01
          1   -1    0    0  501    0  0.00000000000E+00  0.00000000000E+00  0.78794958501E+03  0.78794958501E+03  0.00000000000E+00 0. -1.
         -1   -1    0    0    0  501 -0.00000000000E+00 -0.00000000000E+00 -0.16105585787E+04  0.16105585787E+04  0.00000000000E+00 0.  1.
         23    2    1    2    0    0  0.92879888203E+02  0.54530369618E+03  0.63042711861E+03  0.84374234907E+03  0.92086942823E+02 0.  0.
         13    1    3    3    0    0  0.15330532441E+02  0.35327159834E+03  0.40381143526E+03  0.53674903136E+03  0.00000000000E+00 0. -1.
        -13    1    3    3    0    0  0.77549355762E+02  0.19203209784E+03  0.22661568335E+03  0.30699331771E+03  0.00000000000E+00 0.  1.
         22    1    1    2    0    0 -0.92879888203E+02 -0.54530369618E+03 -0.14530361123E+04  0.15547658146E+04  0.00000000000E+00 0.  1.
<mgrwt>
<rscale>  0 0.22530326E+04</rscale>
<asrwt>0</asrwt>
<pdfrwt beam="1">  1        1 0.12122301E+00 0.22530326E+04</pdfrwt>
<pdfrwt beam="2">  1       -1 0.24777824E+00 0.22530326E+04</pdfrwt>
<totfact> 0.14821094E+00</totfact>
</mgrwt>
</event>
<event>
 6    1  0.1028026E-006  0.2163444E+04  0.7818608E-02  0.8533800E-01
          2   -1    0    0  501    0  0.00000000000E+00  0.00000000000E+00  0.12107313045E+04  0.12107313045E+04  0.00000000000E+00 0. -1.
         -2   -1    0    0    0  501 -0.00000000000E+00 -0.00000000000E+00 -0.96645898160E+03  0.96645898160E+03  0.00000000000E+00 0.  1.
         23    2    1    2    0    0 -0.29709092565E+03  0.73435499308E+03 -0.61611985558E+03  0.10076540640E+04  0.90679448363E+02 0.  0.
         11    1    3    3    0    0 -0.59887736288E+02  0.81011867427E+02 -0.58064373472E+02  0.11627955576E+03  0.00000000000E+00 0. -1.
        -11    1    3    3    0    0 -0.23720318936E+03  0.65334312565E+03 -0.55805548211E+03  0.89137450827E+03  0.00000000000E+00 0.  1.
         22    1    1    2    0    0  0.29709092565E+03 -0.73435499308E+03  0.86039217848E+03  0.11695362221E+04  0.00000000000E+00 0. -1.
<mgrwt>
<rscale>  0 0.21634437E+04</rscale>
<asrwt>0</asrwt>
<pdfrwt beam="1">  1        2 0.18626636E+00 0.21634437E+04</pdfrwt>
<pdfrwt beam="2">  1       -2 0.14868600E+00 0.21634437E+04</pdfrwt>
<totfact> 0.52479384E+00</totfact>
</mgrwt>
</event>
<event>
 6    1  0.1028026E-006  0.3999480E+04  0.7818608E-02  0.8004652E-01
         -2   -1    0    0    0  501 -0.00000000000E+00  0.00000000000E+00  0.17816301295E+04  0.17816301295E+04  0.00000000000E+00 0.  1.
          2   -1    0    0  501    0  0.00000000000E+00 -0.00000000000E+00 -0.22445507857E+04  0.22445507857E+04  0.00000000000E+00 0. -1.
         23    2    1    2    0    0 -0.16541125216E+04 -0.72867468320E+03 -0.10903141344E+04  0.21128911817E+04  0.92028288998E+02 0.  0.
         13    1    3    3    0    0 -0.56673364984E+03 -0.29326802393E+03 -0.36304360208E+03  0.73416198535E+03  0.00000000000E+00 0. -1.
        -13    1    3    3    0    0 -0.10873788717E+04 -0.43540665927E+03 -0.72727053229E+03  0.13787291963E+04  0.00000000000E+00 0.  1.
         22    1    1    2    0    0  0.16541125216E+04  0.72867468320E+03  0.62739347812E+03  0.19132897335E+04  0.00000000000E+00 0.  1.
<mgrwt>
<rscale>  0 0.39994796E+04</rscale>
<asrwt>0</asrwt>
<pdfrwt beam="1">  1        2 0.34531551E+00 0.39994796E+04</pdfrwt>
<pdfrwt beam="2">  1       -2 0.27409694E+00 0.39994796E+04</pdfrwt>
<totfact> 0.17592812E-01</totfact>
</mgrwt>
</event>
<event>
 6    1  0.1028026E-006  0.2619808E+04  0.7818608E-02  0.8361504E-01
         -2   -1    0    0    0  501 -0.00000000000E+00  0.00000000000E+00  0.97032328577E+03  0.97032328577E+03  0.00000000000E+00 0.  1.
          2   -1    0    0  501    0  0.00000000000E+00 -0.00000000000E+00 -0.17683266427E+04  0.17683266427E+04  0.00000000000E+00 0. -1.
         23    2    1    2    0    0  0.84525159470E+03  0.18319012273E+02 -0.14432015035E+04  0.16751338294E+04  0.91961526092E+02 0.  0.
         13    1    3    3    0    0  0.22925698933E+03 -0.84818948258E+00 -0.31525967887E+03  0.38980527409E+03  0.00000000000E+00 0. -1.
        -13    1    3    3    0    0  0.61599460536E+03  0.19167201756E+02 -0.11279418246E+04  0.12853285554E+04  0.00000000000E+00 0.  1.
         22    1    1    2    0    0 -0.84525159470E+03 -0.18319012273E+02  0.64519814657E+03  0.10635160990E+04  0.00000000000E+00 0.  1.
<mgrwt>
<rscale>  0 0.26198080E+04</rscale>
<asrwt>0</asrwt>
<pdfrwt beam="1">  1        2 0.27205025E+00 0.26198080E+04</pdfrwt>
<pdfrwt beam="2">  1       -2 0.14928051E+00 0.26198080E+04</pdfrwt>
<totfact> 0.24083890E+00</totfact>
</mgrwt>
</event>
<event>
 6    1  0.1028026E-006  0.1810247E+04  0.7818608E-02  0.8700869E-01
          1   -1    0    0  501    0  0.00000000000E+00  0.00000000000E+00  0.16859067219E+04  0.16859067219E+04  0.00000000000E+00 0. -1.
         -1   -1    0    0    0  501 -0.00000000000E+00 -0.00000000000E+00 -0.48593951777E+03  0.48593951777E+03  0.00000000000E+00 0.  1.
         23    2    1    2    0    0  0.77127527411E+03  0.27008595923E+03  0.14136952084E+03  0.83452016541E+03  0.92879444603E+02 0.  0.
         13    1    3    3    0    0  0.50551257336E+03  0.21769245630E+03  0.73593417112E+02  0.55529177772E+03  0.00000000000E+00 0. -1.
        -13    1    3    3    0    0  0.26576270075E+03  0.52393502928E+02  0.67776103731E+02  0.27922838770E+03  0.00000000000E+00 0.  1.
         22    1    1    2    0    0 -0.77127527411E+03 -0.27008595923E+03  0.10585976833E+04  0.13373260743E+04  0.00000000000E+00 0. -1.
<mgrwt>
<rscale>  0 0.18102472E+04</rscale>
<asrwt>0</asrwt>
<pdfrwt beam="1">  1        1 0.25937026E+00 0.18102472E+04</pdfrwt>
<pdfrwt beam="2">  1       -1 0.74759927E-01 0.18102472E+04</pdfrwt>
<totfact> 0.82683974E+00</totfact>
</mgrwt>
</event>
<event>
 6    1  0.1028026E-006  0.2411679E+04  0.7818608E-02  0.8435144E-01
         -1   -1    0    0    0  501 -0.00000000000E+00  0.00000000000E+00  0.63900366715E+03  0.63900366715E+03  0.00000000000E+00 0.  1.
          1   -1    0    0  501    0  0.00000000000E+00 -0.00000000000E+00 -0.22754935692E+04  0.22754935692E+04  0.00000000000E+00 0. -1.
         23    2    1    2    0    0 -0.29457497090E+03 -0.70972566788E+03 -0.19397461525E+04  0.20883923455E+04  0.91008327990E+02 0.  0.
         13    1    3    3    0    0 -0.10161899774E+03 -0.33967374241E+03 -0.81819790168E+03  0.89171322649E+03  0.00000000000E+00 0.  1.
        -13    1    3    3    0    0 -0.19295597315E+03 -0.37005192547E+03 -0.11215482508E+04  0.11966791191E+04  0.00000000000E+00 0. -1.
         22    1    1    2    0    0  0.29457497090E+03  0.70972566788E+03  0.30325625045E+03  0.82610489077E+03  0.00000000000E+00 0.  1.
<mgrwt>
<rscale>  0 0.24116789E+04</rscale>
<asrwt>0</asrwt>
<pdfrwt beam="1">  1        1 0.35007593E+00 0.24116789E+04</pdfrwt>
<pdfrwt beam="2">  1       -1 0.98308258E-01 0.24116789E+04</pdfrwt>
<totfact> 0.17157272E+00</totfact>
</mgrwt>
</event>
<event>
 6    1  0.1028026E-006  0.4157929E+04  0.7818608E-02  0.7973424E-01
         -2   -1    0    0    0  501 -0.00000000000E+00  0.00000000000E+00  0.18916458320E+04  0.18916458320E+04  0.00000000000E+00 0.  1.
          2   -1    0    0  501    0  0.00000000000E+00 -0.00000000000E+00 -0.22848324294E+04  0.22848324294E+04  0.00000000000E+00 0. -1.
         23    2    1    2    0    0 -0.98921151146E+03  0.17975413910E+04 -0.52721787279E+03  0.21203511132E+04  0.90750708555E+02 0.  0.
         11    1    3    3    0    0 -0.77629466619E+03  0.13867974521E+04 -0.44541541671E+03  0.16505258179E+04  0.00000000000E+00 0.  1.
        -11    1    3    3    0    0 -0.21291684526E+03  0.41074393890E+03 -0.81802456076E+02  0.46982529536E+03  0.00000000000E+00 0. -1.
         22    1    1    2    0    0  0.98921151146E+03 -0.17975413910E+04  0.13403127540E+03  0.20561271482E+04  0.00000000000E+00 0.  1.
<mgrwt>
<rscale>  0 0.41579292E+04</rscale>
<asrwt>0</asrwt>
<pdfrwt beam="1">  1        2 0.35151268E+00 0.41579292E+04</pdfrwt>
<pdfrwt beam="2">  1       -2 0.29102244E+00 0.41579292E+04</pdfrwt>
<totfact> 0.12991687E-01</totfact>
</mgrwt>
</event>
<event>
 6    1  0.1028026E-006  0.4265258E+03  0.7818608E-02  0.1034963E+00
         -1   -1    0    0    0  501 -0.00000000000E+00  0.00000000000E+00  0.51608902315E+02  0.51608902315E+02  0.00000000000E+00 0.  1.
          1   -1    0    0  501    0  0.00000000000E+00 -0.00000000000E+00 -0.88126378205E+03  0.88126378205E+03  0.00000000000E+00 0. -1.
         23    2    1    2    0    0  0.14704720755E+03  0.13569173430E+03 -0.35416768804E+03  0.41700138503E+03  0.91762061142E+02 0.  0.
         11    1    3    3    0    0  0.53797441651E+02  0.90805136219E+02 -0.11331031581E+03  0.15485142932E+03  0.00000000000E+00 0. -1.
        -11    1    3    3    0    0  0.93249765899E+02  0.44886598080E+02 -0.24085737222E+03  0.26214995572E+03  0.00000000000E+00 0.  1.
         22    1    1    2    0    0 -0.14704720755E+03 -0.13569173430E+03 -0.47548719170E+03  0.51587129933E+03  0.00000000000E+00 0. -1.
<mgrwt>
<rscale>  0 0.42652576E+03</rscale>
<asrwt>0</asrwt>
<pdfrwt beam="1">  1        1 0.13557904E+00 0.42652576E+03</pdfrwt>
<pdfrwt beam="2">  1       -1 0.79398313E-02 0.42652576E+03</pdfrwt>
<totfact> 0.17232242E+03</totfact>
</mgrwt>
</event>
<event>
 6    1  0.1028026E-006  0.1004341E+04  0.7818608E-02  0.9303796E-01
          2   -1    0    0  501    0  0.00000000000E+00  0.00000000000E+00  0.16937114744E+04  0.16937114744E+04  0.00000000000E+00 0. -1.
         -2   -1    0    0    0  501 -0.00000000000E+00 -0.00000000000E+00 -0.14888925357E+03  0.14888925357E+03  0.00000000000E+00 0.  1.
         23    2    1    2    0    0 -0.22931885893E+02 -0.44028673919E+03  0.35470667951E+03  0.57344617246E+03  0.92980643836E+02 0.  0.
         13    1    3    3    0    0 -0.58873023248E+02 -0.29986094474E+03  0.23685194478E+03  0.38662832643E+03  0.00000000000E+00 0. -1.
        -13    1    3    3    0    0  0.35941137354E+02 -0.14042579444E+03  0.11785473473E+03  0.18681784604E+03  0.00000000000E+00 0.  1.
         22    1    1    2    0    0  0.22931885893E+02  0.44028673919E+03  0.11901155414E+04  0.12691545555E+04  0.00000000000E+00 0. -1.
<mgrwt>
<rscale>  0 0.10043415E+04</rscale>
<asrwt>0</asrwt>
<pdfrwt beam="1">  1        2 0.26057098E+00 0.10043415E+04</pdfrwt>
<pdfrwt beam="2">  1       -2 0.22906040E-01 0.10043415E+04</pdfrwt>
<totfact> 0.16583135E+02</totfact>
</mgrwt>
</event>
<event>
 6    1  0.1028026E-006  0.1918193E+04  0.7818608E-02  0.8645853E-01
         -1   -1    0    0    0  501 -0.00000000000E+00  0.00000000000E+00  0.90370026749E+03  0.90370026749E+03  0.00000000000E+00 0.  1.
          1   -1    0    0  501    0  0.00000000000E+00 -0.00000000000E+00 -0.10178889733E+04  0.10178889733E+04  0.00000000000E+00 0. -1.
         23    2    1    2    0    0  0.29972001759E+02  0.73094513404E+03  0.56074779790E+03  0.92624086264E+03  0.91131404638E+02 0.  0.
         11    1    3    3    0    0  0.49388638774E+02  0.28697373434E+03  0.19217266297E+03  0.34888894255E+03  0.00000000000E+00 0.  1.
        -11    1    3    3    0    0 -0.19416637014E+02  0.44397139970E+03  0.36857513493E+03  0.57735192009E+03  0.00000000000E+00 0. -1.
         22    1    1    2    0    0 -0.29972001759E+02 -0.73094513404E+03 -0.67493650371E+03  0.99534837816E+03  0.00000000000E+00 0. -1.
<mgrwt>
<rscale>  0 0.19181935E+04</rscale>
<asrwt>0</asrwt>
<pdfrwt beam="1">  1        1 0.15659830E+00 0.19181935E+04</pdfrwt>
<pdfrwt beam="2">  1       -1 0.13903081E+00 0.19181935E+04</pdfrwt>
<totfact> 0.58432995E+00</totfact>
</mgrwt>
</event>
<event>
 6    1  0.1028026E-006  0.4688773E+03  0.7818608E-02  0.1022238E+00
          1   -1    0    0  501    0  0.00000000000E+00  0.00000000000E+00  0.78962837400E+02  0.78962837400E+02  0.00000000000E+00 0. -1.
         -1   -1    0    0    0  501 -0.00000000000E+00 -0.00000000000E+00 -0.69604223100E+03  0.69604223100E+03  0.00000000000E+00 0.  1.
         23    2    1    2    0    0  0.38009319206E+02 -0.14374212381E+03 -0.60079965042E+03  0.62543389290E+03  0.90004599570E+02 0.  0.
         11    1    3    3    0    0  0.22736723335E+02 -0.13378648259E+03 -0.37323179811E+03  0.39713694947E+03  0.00000000000E+00 0.  1.
        -11    1    3    3    0    0  0.15272595871E+02 -0.99556412129E+01 -0.22756785231E+03  0.22829694343E+03  0.00000000000E+00 0. -1.
         22    1    1    2    0    0 -0.38009319206E+02  0.14374212381E+03 -0.16279743184E+02  0.14957117550E+03  0.00000000000E+00 0. -1.
<mgrwt>
<rscale>  0 0.46887725E+03</rscale>
<asrwt>0</asrwt>
<pdfrwt beam="1">  1        1 0.12148129E-01 0.46887725E+03</pdfrwt>
<pdfrwt beam="2">  1       -1 0.10708342E+00 0.46887725E+03</pdfrwt>
<totfact> 0.42486843E+02</totfact>
</mgrwt>
</event>
<event>
 6    1  0.1028026E-006  0.4683106E+04  0.7818608E-02  0.7879342E-01
         -2   -1    0    0    0  501 -0.00000000000E+00  0.00000000000E+00  0.26869968361E+04  0.26869968361E+04  0.00000000000E+00 0.  1.
          2   -1    0    0  501    0  0.00000000000E+00 -0.00000000000E+00 -0.20405198741E+04  0.20405198741E+04  0.00000000000E+00 0. -1.
         23    2    1    2    0    0  0.10553477244E+04 -0.47220017073E+03  0.23779227366E+04  0.26455377740E+04  0.87302645901E+02 0.  0.
         11    1    3    3    0    0  0.10329914257E+03 -0.73433931587E+02  0.28598547083E+03  0.31281135640E+03  0.00000000000E+00 0.  1.
        -11    1    3    3    0    0  0.95204858179E+03 -0.39876623915E+03  0.20919372658E+04  0.23327264176E+04  0.00000000000E+00 0. -1.
         22    1    1    2    0    0 -0.10553477244E+04  0.47220017073E+03 -0.17314457746E+04  0.20819789362E+04  0.00000000000E+00 0. -1.
<mgrwt>
<rscale>  0 0.46831060E+04</rscale>
<asrwt>0</asrwt>
<pdfrwt beam="1">  1        2 0.31392614E+00 0.46831060E+04</pdfrwt>
<pdfrwt beam="2">  1       -2 0.41338413E+00 0.46831060E+04</pdfrwt>
<totfact> 0.28727345E-02</totfact>
</mgrwt>
</event>
<event>
 6    1  0.1028026E-006  0.4217056E+04  0.7818608E-02  0.7962136E-01
         -2   -1    0    0    0  501 -0.00000000000E+00  0.00000000000E+00  0.12156646607E+04  0.12156646607E+04  0.00000000000E+00 0.  1.
          2   -1    0    0  501    0  0.00000000000E+00 -0.00000000000E+00 -0.36571677817E+04  0.36571677817E+04  0.00000000000E+00 0. -1.
         23    2    1    2    0    0 -0.16223158997E+04 -0.28419545270E+03  0.29821139851E+03  0.16761604884E+04  0.88926997903E+02 0.  0.
         11    1    3    3    0    0 -0.12969131743E+04 -0.21768161502E+03  0.20282867361E+03  0.13306045761E+04  0.00000000000E+00 0. -1.
        -11    1    3    3    0    0 -0.32540272539E+03 -0.66513837680E+02  0.95382724897E+02  0.34555591226E+03  0.00000000000E+00 0.  1.
         22    1    1    2    0    0  0.16223158997E+04  0.28419545270E+03 -0.27397145195E+04  0.31966719541E+04  0.00000000000E+00 0. -1.
<mgrwt>
<rscale>  0 0.42170557E+04</rscale>
<asrwt>0</asrwt>
<pdfrwt beam="1">  1        2 0.56264119E+00 0.42170557E+04</pdfrwt>
<pdfrwt beam="2">  1       -2 0.18702533E+00 0.42170557E+04</pdfrwt>
<totfact> 0.78781453E-02</totfact>
</mgrwt>
</event>
<event>
 6    1  0.1028026E-006  0.1234576E+04  0.7818608E-02  0.9083119E-01
          1   -1    0    0  501    0  0.00000000000E+00  0.00000000000E+00  0.64416866228E+03  0.64416866228E+03  0.00000000000E+00 0. -1.
         -1   -1    0    0    0  501 -0.00000000000E+00 -0.00000000000E+00 -0.59152939864E+03  0.59152939864E+03  0.00000000000E+00 0.  1.
         23    2    1    2    0    0  0.15036754726E+03 -0.17393388475E+03  0.59621140352E+03  0.64549973258E+03  0.91315231658E+02 0.  0.
         11    1    3    3    0    0  0.10409359775E+03 -0.16755536976E+03  0.51945319849E+03  0.55564548450E+03  0.00000000000E+00 0. -1.
        -11    1    3    3    0    0  0.46273949511E+02 -0.63785149852E+01  0.76758205036E+02  0.89854248075E+02  0.00000000000E+00 0.  1.
         22    1    1    2    0    0 -0.15036754726E+03  0.17393388475E+03 -0.54357213988E+03  0.59019832835E+03  0.00000000000E+00 0.  1.
<mgrwt>
<rscale>  0 0.12345764E+04</rscale>
<asrwt>0</asrwt>
<pdfrwt beam="1">  1        1 0.99102871E-01 0.12345764E+04</pdfrwt>
<pdfrwt beam="2">  1       -1 0.91004523E-01 0.12345764E+04</pdfrwt>
<totfact> 0.35935761E+01</totfact>
</mgrwt>
</event>
<event>
 6    1  0.1028026E-006  0.1520413E+04  0.7818608E-02  0.8870991E-01
         -2   -1    0    0    0  501 -0.00000000000E+00  0.00000000000E+00  0.33153938939E+03  0.33153938939E+03  0.00000000000E+00 0.  1.
          2   -1    0    0  501    0  0.00000000000E+00 -0.00000000000E+00 -0.17431237923E+04  0.17431237923E+04  0.00000000000E+00 0. -1.
         23    2    1    2    0    0 -0.73141263614E+03 -0.18090987801E+01 -0.44099869544E+03  0.85934251095E+03  0.94984128163E+02 0.  0.
         13    1    3    3    0    0 -0.24182449874E+03 -0.59733380735E+01 -0.19879409364E+03  0.31310359408E+03  0.00000000000E+00 0.  1.
        -13    1    3    3    0    0 -0.48958813740E+03  0.41642392934E+01 -0.24220460180E+03  0.54623891687E+03  0.00000000000E+00 0. -1.
         22    1    1    2    0    0  0.73141263614E+03  0.18090987801E+01 -0.97058570745E+03  0.12153206707E+04  0.00000000000E+00 0.  1.
<mgrwt>
<rscale>  0 0.15204134E+04</rscale>
<asrwt>0</asrwt>
<pdfrwt beam="1">  1        2 0.26817289E+00 0.15204134E+04</pdfrwt>
<pdfrwt beam="2">  1       -2 0.51006059E-01 0.15204134E+04</pdfrwt>
<totfact> 0.32521431E+01</totfact>
</mgrwt>
</event>
<event>
 6    1  0.1028026E-006  0.5709514E+03  0.7818608E-02  0.9967576E-01
         -1   -1    0    0    0  501 -0.00000000000E+00  0.00000000000E+00  0.57784503293E+03  0.57784503293E+03  0.00000000000E+00 0.  1.
          1   -1    0    0  501    0  0.00000000000E+00 -0.00000000000E+00 -0.14103499172E+03  0.14103499172E+03  0.00000000000E+00 0. -1.
         23    2    1    2    0    0  0.27816797574E+03  0.37303533506E+01  0.23182507932E+03  0.37332225399E+03  0.90748551821E+02 0.  0.
         11    1    3    3    0    0  0.22504840005E+03 -0.26093888657E+02  0.15164280850E+03  0.27262284343E+03  0.00000000000E+00 0.  1.
        -11    1    3    3    0    0  0.53119575692E+02  0.29824242008E+02  0.80182270822E+02  0.10069941056E+03  0.00000000000E+00 0. -1.
         22    1    1    2    0    0 -0.27816797574E+03 -0.37303533506E+01  0.20498496189E+03  0.34555777066E+03  0.00000000000E+00 0.  1.
<mgrwt>
<rscale>  0 0.57095138E+03</rscale>
<asrwt>0</asrwt>
<pdfrwt beam="1">  1        1 0.21697691E-01 0.57095138E+03</pdfrwt>
<pdfrwt beam="2">  1       -1 0.88899235E-01 0.57095138E+03</pdfrwt>
<totfact> 0.29700498E+02</totfact>
</mgrwt>
</event>
<event>
 6    1  0.1028026E-006  0.2995399E+04  0.7818608E-02  0.8245046E-01
          3   -1    0    0  501    0  0.00000000000E+00  0.00000000000E+00  0.67719626998E+03  0.67719626998E+03  0.00000000000E+00 0. -1.
         -3   -1    0    0    0  501 -0.00000000000E+00 -0.00000000000E+00 -0.33123381825E+04  0.33123381825E+04  0.00000000000E+00 0.  1.
         23    2    1    2    0    0 -0.53252869446E+03  0.93164431207E+03 -0.27076164540E+04  0.29139878501E+04  0.92684379591E+02 0.  0.
         11    1    3    3    0    0 -0.60099550410E+02  0.69426401818E+02 -0.18451839058E+03  0.20610438542E+03  0.00000000000E+00 0.  1.
        -11    1    3    3    0    0 -0.47242914405E+03  0.86221791025E+03 -0.25230980634E+04  0.27078834647E+04  0.00000000000E+00 0. -1.
         22    1    1    2    0    0  0.53252869446E+03 -0.93164431207E+03  0.72474541467E+02  0.10755466023E+04  0.00000000000E+00 0. -1.
<mgrwt>
<rscale>  0 0.29953985E+04</rscale>
<asrwt>0</asrwt>
<pdfrwt beam="1">  1        3 0.10418404E+00 0.29953985E+04</pdfrwt>
<pdfrwt beam="2">  1       -3 0.50959049E+00 0.29953985E+04</pdfrwt>
<totfact> 0.47702108E-03</totfact>
</mgrwt>
</event>
<event>
 6    1  0.1028026E-006  0.2256904E+04  0.7818608E-02  0.8495110E-01
          1   -1    0    0  501    0  0.00000000000E+00  0.00000000000E+00  0.13313254920E+04  0.13313254920E+04  0.00000000000E+00 0. -1.
         -1   -1    0    0    0  501 -0.00000000000E+00 -0.00000000000E+00 -0.95649315493E+03  0.95649315493E+03  0.00000000000E+00 0.  1.
         23    2    1    2    0    0 -0.11159461129E+04  0.12783047643E+03  0.27950840893E+03  0.11605374003E+04  0.83938961754E+02 0.  0.
         11    1    3    3    0    0 -0.15285485285E+03 -0.41261583239E+01  0.18559638715E+02  0.15403276084E+03  0.00000000000E+00 0. -1.
        -11    1    3    3    0    0 -0.96309126004E+03  0.13195663475E+03  0.26094877021E+03  0.10065046395E+04  0.00000000000E+00 0.  1.
         22    1    1    2    0    0  0.11159461129E+04 -0.12783047643E+03  0.95323928092E+02  0.11272812466E+04  0.00000000000E+00 0.  1.
<mgrwt>
<rscale>  0 0.22569038E+04</rscale>
<asrwt>0</asrwt>
<pdfrwt beam="1">  1        1 0.20481931E+00 0.22569038E+04</pdfrwt>
<pdfrwt beam="2">  1       -1 0.14715279E+00 0.22569038E+04</pdfrwt>
<totfact> 0.28636464E+00</totfact>
</mgrwt>
</event>
<event>
 6    1  0.1028026E-006  0.1967076E+04  0.7818608E-02  0.8622170E-01
         -2   -1    0    0    0  501 -0.00000000000E+00  0.00000000000E+00  0.88500658023E+03  0.88500658023E+03  0.00000000000E+00 0.  1.
          2   -1    0    0  501    0  0.00000000000E+00 -0.00000000000E+00 -0.10930395358E+04  0.10930395358E+04  0.00000000000E+00 0. -1.
         23    2    1    2    0    0 -0.94938481698E+02 -0.28839680028E+03  0.83415652766E+03  0.89253013334E+03  0.92773361234E+02 0.  0.
         13    1    3    3    0    0 -0.82190626629E+02 -0.25608884441E+03  0.62358465080E+03  0.67911310696E+03  0.00000000000E+00 0.  1.
        -13    1    3    3    0    0 -0.12747855070E+02 -0.32307955878E+02  0.21057187686E+03  0.21341702638E+03  0.00000000000E+00 0. -1.
         22    1    1    2    0    0  0.94938481698E+02  0.28839680028E+03 -0.10421894833E+04  0.10855159827E+04  0.00000000000E+00 0. -1.
<mgrwt>
<rscale>  0 0.19670762E+04</rscale>
<asrwt>0</asrwt>
<pdfrwt beam="1">  1        2 0.16815993E+00 0.19670762E+04</pdfrwt>
<pdfrwt beam="2">  1       -2 0.13615486E+00 0.19670762E+04</pdfrwt>
<totfact> 0.79121990E+00</totfact>
</mgrwt>
</event>
<event>
 6    1  0.1028026E-006  0.3152664E+04  0.7818608E-02  0.8201431E-01
          2   -1    0    0  501    0  0.00000000000E+00  0.00000000000E+00  0.20201440129E+04  0.20201440129E+04  0.00000000000E+00 0. -1.
         -2   -1    0    0    0  501 -0.00000000000E+00 -0.00000000000E+00 -0.12300227862E+04  0.12300227862E+04  0.00000000000E+00 0.  1.
         23    2    1    2    0    0 -0.18325410994E+03  0.16685742000E+03  0.19989730614E+04  0.20161707595E+04  0.87337069111E+02 0.  0.
         11    1    3    3    0    0 -0.97957127279E+02  0.86300361239E+02  0.13811622342E+04  0.13873184452E+04  0.00000000000E+00 0.  1.
        -11    1    3    3    0    0 -0.85296982661E+02  0.80557058758E+02  0.61781082719E+03  0.62885231427E+03  0.00000000000E+00 0. -1.
         22    1    1    2    0    0  0.18325410994E+03 -0.16685742000E+03 -0.12088518347E+04  0.12339960396E+04  0.00000000000E+00 0.  1.
<mgrwt>
<rscale>  0 0.31526644E+04</rscale>
<asrwt>0</asrwt>
<pdfrwt beam="1">  1        2 0.31079139E+00 0.31526644E+04</pdfrwt>
<pdfrwt beam="2">  1       -2 0.18923428E+00 0.31526644E+04</pdfrwt>
<totfact> 0.86335356E-01</totfact>
</mgrwt>
</event>
<event>
 6    1  0.1028026E-006  0.2052368E+04  0.7818608E-02  0.8582521E-01
          1   -1    0    0  501    0  0.00000000000E+00  0.00000000000E+00  0.26331211517E+04  0.26331211517E+04  0.00000000000E+00 0. -1.
         -1   -1    0    0    0  501 -0.00000000000E+00 -0.00000000000E+00 -0.39992613413E+03  0.39992613413E+03  0.00000000000E+00 0.  1.
         23    2    1    2    0    0  0.62309146301E+03  0.22290617797E+02  0.23195232713E+04  0.24036091155E+04  0.91699133371E+02 0.  0.
         13    1    3    3    0    0  0.39543939868E+03 -0.20633918099E+02  0.13565257756E+04  0.14131384420E+04  0.00000000000E+00 0.  1.
        -13    1    3    3    0    0  0.22765206434E+03  0.42924535895E+02  0.96299749570E+03  0.99047067342E+03  0.00000000000E+00 0. -1.
         22    1    1    2    0    0 -0.62309146301E+03 -0.22290617797E+02 -0.86328253709E+02  0.62943817036E+03  0.00000000000E+00 0.  1.
<mgrwt>
<rscale>  0 0.20523684E+04</rscale>
<asrwt>0</asrwt>
<pdfrwt beam="1">  1        1 0.40509555E+00 0.20523684E+04</pdfrwt>
<pdfrwt beam="2">  1       -1 0.61527099E-01 0.20523684E+04</pdfrwt>
<totfact> 0.27078770E+00</totfact>
</mgrwt>
</event>
<event>
 6    1  0.1028026E-006  0.2484631E+04  0.7818608E-02  0.8408482E-01
          2   -1    0    0  501    0  0.00000000000E+00  0.00000000000E+00  0.32541991686E+04  0.32541991686E+04  0.00000000000E+00 0. -1.
         -2   -1    0    0    0  501 -0.00000000000E+00 -0.00000000000E+00 -0.47426329633E+03  0.47426329633E+03  0.00000000000E+00 0.  1.
         23    2    1    2    0    0  0.58161847975E+02 -0.11124467592E+04  0.57189402233E+03  0.12553329892E+04  0.88755554633E+02 0.  0.
         13    1    3    3    0    0  0.46415565190E+02 -0.48336729524E+03  0.29266804348E+03  0.56696819177E+03  0.00000000000E+00 0. -1.
        -13    1    3    3    0    0  0.11746282786E+02 -0.62907946393E+03  0.27922597885E+03  0.68836479745E+03  0.00000000000E+00 0.  1.
         22    1    1    2    0    0 -0.58161847975E+02  0.11124467592E+04  0.22080418499E+04  0.24731294757E+04  0.00000000000E+00 0. -1.
<mgrwt>
<rscale>  0 0.24846305E+04</rscale>
<asrwt>0</asrwt>
<pdfrwt beam="1">  1        2 0.50064601E+00 0.24846305E+04</pdfrwt>
<pdfrwt beam="2">  1       -2 0.72963586E-01 0.24846305E+04</pdfrwt>
<totfact> 0.18118365E+00</totfact>
</mgrwt>
</event>
<event>
 6    1  0.1028026E-006  0.2417862E+04  0.7818608E-02  0.8432846E-01
         -2   -1    0    0    0  501 -0.00000000000E+00  0.00000000000E+00  0.11784602905E+04  0.11784602905E+04  0.00000000000E+00 0.  1.
          2   -1    0    0  501    0  0.00000000000E+00 -0.00000000000E+00 -0.12401900049E+04  0.12401900049E+04  0.00000000000E+00 0. -1.
         23    2    1    2    0    0  0.37224227941E+03  0.76061619796E+03  0.82971942030E+03  0.11891044951E+04  0.91836097006E+02 0.  0.
         11    1    3    3    0    0  0.23198726898E+03  0.54252718611E+03  0.53402931684E+03  0.79582733799E+03  0.00000000000E+00 0.  1.
        -11    1    3    3    0    0  0.14025501044E+03  0.21808901184E+03  0.29569010346E+03  0.39327715714E+03  0.00000000000E+00 0. -1.
         22    1    1    2    0    0 -0.37224227941E+03 -0.76061619796E+03 -0.89144913475E+03  0.12295458003E+04  0.00000000000E+00 0. -1.
<mgrwt>
<rscale>  0 0.24178624E+04</rscale>
<asrwt>0</asrwt>
<pdfrwt beam="1">  1        2 0.19079846E+00 0.24178624E+04</pdfrwt>
<pdfrwt beam="2">  1       -2 0.18130158E+00 0.24178624E+04</pdfrwt>
<totfact> 0.28589187E+00</totfact>
</mgrwt>
</event>
<event>
 6    1  0.1028026E-006  0.2437387E+04  0.7818608E-02  0.8425638E-01
         -1   -1    0    0    0  501 -0.00000000000E+00  0.00000000000E+00  0.13118412151E+04  0.13118412151E+04  0.00000000000E+00 0.  1.
          1   -1    0    0  501    0  0.00000000000E+00 -0.00000000000E+00 -0.11321597052E+04  0.11321597052E+04  0.00000000000E+00 0. -1.
         23    2    1    2    0    0 -0.61984414073E+03  0.86280991848E+03 -0.50538825065E+03  0.11798932148E+04  0.89905507584E+02 0.  0.
         11    1    3    3    0    0 -0.40742275316E+03  0.57973263364E+03 -0.38266438632E+03  0.80530445104E+03  0.00000000000E+00 0. -1.
        -11    1    3    3    0    0 -0.21242138756E+03  0.28307728484E+03 -0.12272386433E+03  0.37458876379E+03  0.00000000000E+00 0.  1.
         22    1    1    2    0    0  0.61984414073E+03 -0.86280991848E+03  0.68506976053E+03  0.12641077055E+04  0.00000000000E+00 0.  1.
<mgrwt>
<rscale>  0 0.24373869E+04</rscale>
<asrwt>0</asrwt>
<pdfrwt beam="1">  1        1 0.17417842E+00 0.24373869E+04</pdfrwt>
<pdfrwt beam="2">  1       -1 0.20182173E+00 0.24373869E+04</pdfrwt>
<totfact> 0.15664104E+00</totfact>
</mgrwt>
</event>
<event>
 6    1  0.1028026E-006  0.7789771E+03  0.7818608E-02  0.9590956E-01
          2   -1    0    0  501    0  0.00000000000E+00  0.00000000000E+00  0.36075070328E+03  0.36075070328E+03  0.00000000000E+00 0. -1.
         -2   -1    0    0    0  501 -0.00000000000E+00 -0.00000000000E+00 -0.42051564595E+03  0.42051564595E+03  0.00000000000E+00 0.  1.
         23    2    1    2    0    0  0.24849928624E+03  0.21192518882E+03 -0.23331141101E+03  0.41142508925E+03  0.90400269030E+02 0.  0.
         11    1    3    3    0    0  0.51121759859E+02  0.24738629804E+02 -0.83189609307E+02  0.10072708291E+03  0.00000000000E+00 0. -1.
        -11    1    3    3    0    0  0.19737752638E+03  0.18718655901E+03 -0.15012180170E+03  0.31069800634E+03  0.00000000000E+00 0.  1.
         22    1    1    2    0    0 -0.24849928624E+03 -0.21192518882E+03  0.17354646834E+03  0.36984125999E+03  0.00000000000E+00 0. -1.
<mgrwt>
<rscale>  0 0.77897706E+03</rscale>
<asrwt>0</asrwt>
<pdfrwt beam="1">  1        2 0.55500108E-01 0.77897706E+03</pdfrwt>
<pdfrwt beam="2">  1       -2 0.64694715E-01 0.77897706E+03</pdfrwt>
<totfact> 0.19863398E+02</totfact>
</mgrwt>
</event>
<event>
 6    1  0.1028026E-006  0.6123873E+03  0.7818608E-02  0.9880035E-01
         -2   -1    0    0    0  501 -0.00000000000E+00  0.00000000000E+00  0.31829765438E+03  0.31829765438E+03  0.00000000000E+00 0.  1.
          2   -1    0    0  501    0  0.00000000000E+00 -0.00000000000E+00 -0.29454989283E+03  0.29454989283E+03  0.00000000000E+00 0. -1.
         23    2    1    2    0    0 -0.75336774817E+02 -0.97654309508E+02  0.28503734846E+03  0.32391114930E+03  0.91979067290E+02 0.  0.
         13    1    3    3    0    0 -0.25442075690E+02 -0.10008157624E+03  0.20552781500E+03  0.23001152984E+03  0.00000000000E+00 0.  1.
        -13    1    3    3    0    0 -0.49894699127E+02  0.24272667353E+01  0.79509533461E+02  0.93899619467E+02  0.00000000000E+00 0. -1.
         22    1    1    2    0    0  0.75336774817E+02  0.97654309508E+02 -0.26128958692E+03  0.28893639791E+03  0.00000000000E+00 0. -1.
<mgrwt>
<rscale>  0 0.61238726E+03</rscale>
<asrwt>0</asrwt>
<pdfrwt beam="1">  1        2 0.45315368E-01 0.61238726E+03</pdfrwt>
<pdfrwt beam="2">  1       -2 0.48968870E-01 0.61238726E+03</pdfrwt>
<totfact> 0.44643057E+02</totfact>
</mgrwt>
</event>
<event>
 6    1  0.1028026E-006  0.3053479E+04  0.7818608E-02  0.8228622E-01
         -1   -1    0    0    0  501 -0.00000000000E+00  0.00000000000E+00  0.26617478065E+04  0.26617478065E+04  0.00000000000E+00 0.  1.
          1   -1    0    0  501    0  0.00000000000E+00 -0.00000000000E+00 -0.87571559893E+03  0.87571559893E+03  0.00000000000E+00 0. -1.
         23    2    1    2    0    0  0.15199596733E+04  0.12458130621E+03  0.92830994485E+03  0.17877533179E+04  0.92220722602E+02 0.  0.
         11    1    3    3    0    0  0.42357316160E+03  0.17523630679E+02  0.21459301551E+03  0.47515414674E+03  0.00000000000E+00 0.  1.
        -11    1    3    3    0    0  0.10963865117E+04  0.10705767553E+03  0.71371692934E+03  0.13125991712E+04  0.00000000000E+00 0. -1.
         22    1    1    2    0    0 -0.15199596733E+04 -0.12458130621E+03  0.85772226270E+03  0.17497100875E+04  0.00000000000E+00 0. -1.
<mgrwt>
<rscale>  0 0.30534794E+04</rscale>
<asrwt>0</asrwt>
<pdfrwt beam="1">  1        1 0.13472548E+00 0.30534794E+04</pdfrwt>
<pdfrwt beam="2">  1       -1 0.40949966E+00 0.30534794E+04</pdfrwt>
<totfact> 0.99339355E-02</totfact>
</mgrwt>
</event>
<event>
 6    1  0.1028026E-006  0.2814510E+04  0.7818608E-02  0.8298778E-01
         -2   -1    0    0    0  501 -0.00000000000E+00  0.00000000000E+00  0.71118443198E+03  0.71118443198E+03  0.00000000000E+00 0.  1.
          2   -1    0    0  501    0  0.00000000000E+00 -0.00000000000E+00 -0.27846040000E+04  0.27846040000E+04  0.00000000000E+00 0. -1.
         23    2    1    2    0    0 -0.15353122199E+03 -0.51828322383E+03  0.57415416601E+03  0.79359746661E+03  0.89188544316E+02 0.  0.
         11    1    3    3    0    0 -0.14605965268E+02 -0.18010250843E+03  0.16232808296E+03  0.24290050284E+03  0.00000000000E+00 0.  1.
        -11    1    3    3    0    0 -0.13892525672E+03 -0.33818071540E+03  0.41182608305E+03  0.55069696376E+03  0.00000000000E+00 0. -1.
         22    1    1    2    0    0  0.15353122199E+03  0.51828322383E+03 -0.26475737340E+04  0.27021909654E+04  0.00000000000E+00 0. -1.
<mgrwt>
<rscale>  0 0.28145103E+04</rscale>
<asrwt>0</asrwt>
<pdfrwt beam="1">  1        2 0.42840061E+00 0.28145103E+04</pdfrwt>
<pdfrwt beam="2">  1       -2 0.10941299E+00 0.28145103E+04</pdfrwt>
<totfact> 0.13661590E+00</totfact>
</mgrwt>
</event>
<event>
 6    1  0.1028026E-006  0.1633625E+04  0.7818608E-02  0.8800153E-01
         -2   -1    0    0    0  501 -0.00000000000E+00  0.00000000000E+00  0.32662901337E+03  0.32662901337E+03  0.00000000000E+00 0.  1.
          2   -1    0    0  501    0  0.00000000000E+00 -0.00000000000E+00 -0.20426315965E+04  0.20426315965E+04  0.00000000000E+00 0. -1.
         23    2    1    2    0    0 -0.44004618343E+03 -0.29710966772E+03  0.34907294756E+02  0.53961578130E+03  0.89732235004E+02 0.  0.
         13    1    3    3    0    0 -0.24745079151E+03 -0.13430884208E+03 -0.17308385804E+02  0.28208215026E+03  0.00000000000E+00 0.  1.
        -13    1    3    3    0    0 -0.19259539192E+03 -0.16280082564E+03  0.52215680560E+02  0.25753363104E+03  0.00000000000E+00 0. -1.
         22    1    1    2    0    0  0.44004618343E+03  0.29710966772E+03 -0.17509098779E+04  0.18296448286E+04  0.00000000000E+00 0. -1.
<mgrwt>
<rscale>  0 0.16336251E+04</rscale>
<asrwt>0</asrwt>
<pdfrwt beam="1">  1        2 0.31425101E+00 0.16336251E+04</pdfrwt>
<pdfrwt beam="2">  1       -2 0.50250619E-01 0.16336251E+04</pdfrwt>
<totfact> 0.22668959E+01</totfact>
</mgrwt>
</event>
<event>
 6    1  0.1028026E-006  0.4452674E+04  0.7818608E-02  0.7918975E-01
         -2   -1    0    0    0  501 -0.00000000000E+00  0.00000000000E+00  0.14780494180E+04  0.14780494180E+04  0.00000000000E+00 0.  1.
          2   -1    0    0  501    0  0.00000000000E+00 -0.00000000000E+00 -0.33534580067E+04  0.33534580067E+04  0.00000000000E+00 0. -1.
         23    2    1    2    0    0 -0.20765767750E+04 -0.53843866095E+03 -0.29740689367E+03  0.21683933371E+04  0.10673101684E+03 0.  0.
         11    1    3    3    0    0 -0.12064360269E+04 -0.33544923779E+03 -0.12521651758E+03  0.12584487492E+04  0.00000000000E+00 0.  1.
        -11    1    3    3    0    0 -0.87014074816E+03 -0.20298942316E+03 -0.17219037609E+03  0.90994458795E+03  0.00000000000E+00 0. -1.
         22    1    1    2    0    0  0.20765767750E+04  0.53843866095E+03 -0.15780016950E+04  0.26631140876E+04  0.00000000000E+00 0. -1.
<mgrwt>
<rscale>  0 0.44526741E+04</rscale>
<asrwt>0</asrwt>
<pdfrwt beam="1">  1        2 0.51591661E+00 0.44526741E+04</pdfrwt>
<pdfrwt beam="2">  1       -2 0.22739222E+00 0.44526741E+04</pdfrwt>
<totfact> 0.69145916E-02</totfact>
</mgrwt>
</event>
<event>
 6    1  0.1028026E-006  0.1812474E+04  0.7818608E-02  0.8699694E-01
          2   -1    0    0  501    0  0.00000000000E+00  0.00000000000E+00  0.77826573021E+03  0.77826573021E+03  0.00000000000E+00 0. -1.
         -2   -1    0    0    0  501 -0.00000000000E+00 -0.00000000000E+00 -0.10552508412E+04  0.10552508412E+04  0.00000000000E+00 0.  1.
         23    2    1    2    0    0 -0.41408133337E+02  0.29868858742E+03 -0.10009792826E+04  0.10492353295E+04  0.89474839029E+02 0.  0.
         11    1    3    3    0    0  0.77465857938E+01  0.22507216731E+03 -0.75142269137E+03  0.78444474069E+03  0.00000000000E+00 0.  1.
        -11    1    3    3    0    0 -0.49154719130E+02  0.73616420113E+02 -0.24955659121E+03  0.26479058884E+03  0.00000000000E+00 0. -1.
         22    1    1    2    0    0  0.41408133337E+02 -0.29868858742E+03  0.72399417163E+03  0.78428124185E+03  0.00000000000E+00 0. -1.
<mgrwt>
<rscale>  0 0.18124741E+04</rscale>
<asrwt>0</asrwt>
<pdfrwt beam="1">  1        2 0.11973319E+00 0.18124741E+04</pdfrwt>
<pdfrwt beam="2">  1       -2 0.16234628E+00 0.18124741E+04</pdfrwt>
<totfact> 0.81524506E+00</totfact>
</mgrwt>
</event>
<event>
 6    1  0.1028026E-006  0.1629672E+04  0.7818608E-02  0.8802524E-01
          2   -1    0    0  501    0  0.00000000000E+00  0.00000000000E+00  0.19386652048E+04  0.19386652048E+04  0.00000000000E+00 0. -1.
         -2   -1    0    0    0  501 -0.00000000000E+00 -0.00000000000E+00 -0.34248195853E+03  0.34248195853E+03  0.00000000000E+00 0.  1.
         23    2    1    2    0    0  0.75648197950E+02  0.11293044856E+03  0.19215925323E+04  0.19284899083E+04  0.89886205149E+02 0.  0.
         13    1    3    3    0    0  0.95977780185E+02  0.83823813274E+02  0.14884605731E+04  0.14939052994E+04  0.00000000000E+00 0. -1.
        -13    1    3    3    0    0 -0.20329582236E+02  0.29106635282E+02  0.43313195923E+03  0.43458460884E+03  0.00000000000E+00 0.  1.
         22    1    1    2    0    0 -0.75648197950E+02 -0.11293044856E+03 -0.32540928609E+03  0.35265725505E+03  0.00000000000E+00 0.  1.
<mgrwt>
<rscale>  0 0.16296722E+04</rscale>
<asrwt>0</asrwt>
<pdfrwt beam="1">  1        2 0.29825618E+00 0.16296722E+04</pdfrwt>
<pdfrwt beam="2">  1       -2 0.52689533E-01 0.16296722E+04</pdfrwt>
<totfact> 0.23499172E+01</totfact>
</mgrwt>
</event>
<event>
 6    1  0.1028026E-006  0.7081896E+03  0.7818608E-02  0.9703328E-01
         -1   -1    0    0    0  501 -0.00000000000E+00  0.00000000000E+00  0.84244772979E+02  0.84244772979E+02  0.00000000000E+00 0.  1.
          1   -1    0    0  501    0  0.00000000000E+00 -0.00000000000E+00 -0.14883195650E+04  0.14883195650E+04  0.00000000000E+00 0. -1.
         23    2    1    2    0    0 -0.23089951549E+03  0.16285571000E+03 -0.25882049848E+03  0.39296950694E+03  0.87180355719E+02 0.  0.
         11    1    3    3    0    0 -0.17258592355E+03  0.73708883381E+02 -0.18378053758E+03  0.26266744467E+03  0.00000000000E+00 0. -1.
        -11    1    3    3    0    0 -0.58313591937E+02  0.89146826619E+02 -0.75039960898E+02  0.13030206227E+03  0.00000000000E+00 0.  1.
         22    1    1    2    0    0  0.23089951549E+03 -0.16285571000E+03 -0.11452542936E+04  0.11795948311E+04  0.00000000000E+00 0. -1.
<mgrwt>
<rscale>  0 0.70818965E+03</rscale>
<asrwt>0</asrwt>
<pdfrwt beam="1">  1        1 0.22897223E+00 0.70818965E+03</pdfrwt>
<pdfrwt beam="2">  1       -1 0.12960735E-01 0.70818965E+03</pdfrwt>
<totfact> 0.28360868E+02</totfact>
</mgrwt>
</event>
<event>
 6    1  0.1028026E-006  0.3444518E+04  0.7818608E-02  0.8127066E-01
          2   -1    0    0  501    0  0.00000000000E+00  0.00000000000E+00  0.13547082277E+04  0.13547082277E+04  0.00000000000E+00 0. -1.
         -2   -1    0    0    0  501 -0.00000000000E+00 -0.00000000000E+00 -0.21895307558E+04  0.21895307558E+04  0.00000000000E+00 0.  1.
         23    2    1    2    0    0 -0.93416989299E+02  0.45630251493E+03  0.12871100965E+04  0.13717894945E+04  0.90638278641E+02 0.  0.
         11    1    3    3    0    0 -0.75014552620E+02  0.25051060326E+03  0.82842708284E+03  0.86871984957E+03  0.00000000000E+00 0.  1.
        -11    1    3    3    0    0 -0.18402436678E+02  0.20579191167E+03  0.45868301368E+03  0.50306964491E+03  0.00000000000E+00 0. -1.
         22    1    1    2    0    0  0.93416989299E+02 -0.45630251493E+03 -0.21219326246E+04  0.21724494890E+04  0.00000000000E+00 0.  1.
<mgrwt>
<rscale>  0 0.34445176E+04</rscale>
<asrwt>0</asrwt>
<pdfrwt beam="1">  1        2 0.20841665E+00 0.34445176E+04</pdfrwt>
<pdfrwt beam="2">  1       -2 0.33685088E+00 0.34445176E+04</pdfrwt>
<totfact> 0.23855505E-01</totfact>
</mgrwt>
</event>
<event>
 6    1  0.1028026E-006  0.3339613E+04  0.7818608E-02  0.8152888E-01
         -1   -1    0    0    0  501 -0.00000000000E+00  0.00000000000E+00  0.10222819493E+04  0.10222819493E+04  0.00000000000E+00 0.  1.
          1   -1    0    0  501    0  0.00000000000E+00 -0.00000000000E+00 -0.27274800752E+04  0.27274800752E+04  0.00000000000E+00 0. -1.
         23    2    1    2    0    0 -0.12037633102E+04  0.14399034257E+03  0.43403177659E+03  0.12908834384E+04  0.90648455777E+02 0.  0.
         11    1    3    3    0    0 -0.92437814472E+03  0.12397604202E+03  0.29515540383E+03  0.97824420563E+03  0.00000000000E+00 0.  1.
        -11    1    3    3    0    0 -0.27938516550E+03  0.20014300549E+02  0.13887637276E+03  0.31263923273E+03  0.00000000000E+00 0. -1.
         22    1    1    2    0    0  0.12037633102E+04 -0.14399034257E+03 -0.21392299025E+04  0.24588785861E+04  0.00000000000E+00 0. -1.
<mgrwt>
<rscale>  0 0.33396129E+04</rscale>
<asrwt>0</asrwt>
<pdfrwt beam="1">  1        1 0.41961232E+00 0.33396129E+04</pdfrwt>
<pdfrwt beam="2">  1       -1 0.15727415E+00 0.33396129E+04</pdfrwt>
<totfact> 0.23775420E-01</totfact>
</mgrwt>
</event>
<event>
 6    1  0.1028026E-006  0.2555388E+04  0.7818608E-02  0.8383515E-01
         -1   -1    0    0    0  501 -0.00000000000E+00  0.00000000000E+00  0.55374747648E+03  0.55374747648E+03  0.00000000000E+00 0.  1.
          1   -1    0    0  501    0  0.00000000000E+00 -0.00000000000E+00 -0.29480976283E+04  0.29480976283E+04  0.00000000000E+00 0. -1.
         23    2    1    2    0    0 -0.37493013832E+03  0.11429586097E+04 -0.61447674330E+03  0.13536187800E+04  0.88176761863E+02 0.  0.
         13    1    3    3    0    0 -0.21881779151E+03  0.72223402782E+03 -0.42878372038E+03  0.86796238150E+03  0.00000000000E+00 0. -1.
        -13    1    3    3    0    0 -0.15611234681E+03  0.42072458189E+03 -0.18569302292E+03  0.48565639849E+03  0.00000000000E+00 0.  1.
         22    1    1    2    0    0  0.37493013832E+03 -0.11429586097E+04 -0.17798734085E+04  0.21482263248E+04  0.00000000000E+00 0. -1.
<mgrwt>
<rscale>  0 0.25553877E+04</rscale>
<asrwt>0</asrwt>
<pdfrwt beam="1">  1        1 0.45355348E+00 0.25553877E+04</pdfrwt>
<pdfrwt beam="2">  1       -1 0.85191919E-01 0.25553877E+04</pdfrwt>
<totfact> 0.78531254E-01</totfact>
</mgrwt>
</event>
<event>
 6    1  0.1028026E-006  0.2084711E+04  0.7818608E-02  0.8568008E-01
          1   -1    0    0  501    0  0.00000000000E+00  0.00000000000E+00  0.98330998093E+03  0.98330998093E+03  0.00000000000E+00 0. -1.
         -1   -1    0    0    0  501 -0.00000000000E+00 -0.00000000000E+00 -0.11049470287E+04  0.11049470287E+04  0.00000000000E+00 0.  1.
         23    2    1    2    0    0 -0.13827634772E+03 -0.68336008589E+03  0.71255731740E+03  0.10010672404E+04  0.91084213590E+02 0.  0.
         11    1    3    3    0    0 -0.23897682207E+01 -0.15593498511E+03  0.19540090624E+03  0.25000588940E+03  0.00000000000E+00 0. -1.
        -11    1    3    3    0    0 -0.13588657950E+03 -0.52742510078E+03  0.51715641116E+03  0.75106135104E+03  0.00000000000E+00 0.  1.
         22    1    1    2    0    0  0.13827634772E+03  0.68336008589E+03 -0.83419436518E+03  0.10871897692E+04  0.00000000000E+00 0.  1.
<mgrwt>
<rscale>  0 0.20847114E+04</rscale>
<asrwt>0</asrwt>
<pdfrwt beam="1">  1        1 0.15127846E+00 0.20847114E+04</pdfrwt>
<pdfrwt beam="2">  1       -1 0.16999185E+00 0.20847114E+04</pdfrwt>
<totfact> 0.35343566E+00</totfact>
</mgrwt>
</event>
<event>
 6    1  0.1028026E-006  0.3883958E+04  0.7818608E-02  0.8028374E-01
          2   -1    0    0  501    0  0.00000000000E+00  0.00000000000E+00  0.19931146971E+04  0.19931146971E+04  0.00000000000E+00 0. -1.
         -2   -1    0    0    0  501 -0.00000000000E+00 -0.00000000000E+00 -0.18921552478E+04  0.18921552478E+04  0.00000000000E+00 0.  1.
         23    2    1    2    0    0 -0.17625283163E+04  0.55935213942E+03 -0.53943633624E+03  0.19283622711E+04  0.90601359545E+02 0.  0.
         11    1    3    3    0    0 -0.13779148783E+04  0.39926786608E+03 -0.40675503132E+03  0.14911451627E+04  0.00000000000E+00 0. -1.
        -11    1    3    3    0    0 -0.38461343801E+03  0.16008427335E+03 -0.13268130492E+03  0.43721710848E+03  0.00000000000E+00 0.  1.
         22    1    1    2    0    0  0.17625283163E+04 -0.55935213942E+03  0.64039578553E+03  0.19569076738E+04  0.00000000000E+00 0. -1.
<mgrwt>
<rscale>  0 0.38839580E+04</rscale>
<asrwt>0</asrwt>
<pdfrwt beam="1">  1        2 0.30663303E+00 0.38839580E+04</pdfrwt>
<pdfrwt beam="2">  1       -2 0.29110081E+00 0.38839580E+04</pdfrwt>
<totfact> 0.19338587E-01</totfact>
</mgrwt>
</event>
<event>
 6    1  0.1393575E-006  0.4600226E+04  0.7818608E-02  0.7893321E-01
          1   -1    0    0  501    0  0.00000000000E+00  0.00000000000E+00  0.24267238567E+04  0.24267238567E+04  0.00000000000E+00 0. -1.
         -1   -1    0    0    0  501 -0.00000000000E+00 -0.00000000000E+00 -0.21801075680E+04  0.21801075680E+04  0.00000000000E+00 0.  1.
         23    2    1    2    0    0 -0.16087763095E+03  0.85936579056E+03  0.22525213806E+04  0.24186709159E+04  0.10828321863E+03 0.  0.
         11    1    3    3    0    0 -0.34661882160E+02  0.35758073990E+03  0.10424896420E+04  0.11026559233E+04  0.00000000000E+00 0. -1.
        -11    1    3    3    0    0 -0.12621574879E+03  0.50178505065E+03  0.12100317386E+04  0.13160149926E+04  0.00000000000E+00 0.  1.
         22    1    1    2    0    0  0.16087763095E+03 -0.85936579056E+03 -0.20059050919E+04  0.21881605087E+04  0.00000000000E+00 0.  1.
<mgrwt>
<rscale>  0 0.46002257E+04</rscale>
<asrwt>0</asrwt>
<pdfrwt beam="1">  1        1 0.37334213E+00 0.46002257E+04</pdfrwt>
<pdfrwt beam="2">  1       -1 0.33540116E+00 0.46002257E+04</pdfrwt>
<totfact> 0.22018368E-02</totfact>
</mgrwt>
</event>
<event>
 6    1  0.1028026E-006  0.3037426E+04  0.7818608E-02  0.8233124E-01
          1   -1    0    0  501    0  0.00000000000E+00  0.00000000000E+00  0.17371966779E+04  0.17371966779E+04  0.00000000000E+00 0. -1.
         -1   -1    0    0    0  501 -0.00000000000E+00 -0.00000000000E+00 -0.13277077092E+04  0.13277077092E+04  0.00000000000E+00 0.  1.
         23    2    1    2    0    0  0.24093145818E+03 -0.77934265013E+03  0.14959008320E+04  0.17063339360E+04  0.91832827865E+02 0.  0.
         13    1    3    3    0    0  0.13136751473E+03 -0.30972836576E+03  0.67725932806E+03  0.75622039243E+03  0.00000000000E+00 0. -1.
        -13    1    3    3    0    0  0.10956394345E+03 -0.46961428438E+03  0.81864150392E+03  0.95011354360E+03  0.00000000000E+00 0.  1.
         22    1    1    2    0    0 -0.24093145818E+03  0.77934265013E+03 -0.10864118633E+04  0.13585704511E+04  0.00000000000E+00 0.  1.
<mgrwt>
<rscale>  0 0.30374262E+04</rscale>
<asrwt>0</asrwt>
<pdfrwt beam="1">  1        1 0.26726103E+00 0.30374262E+04</pdfrwt>
<pdfrwt beam="2">  1       -1 0.20426272E+00 0.30374262E+04</pdfrwt>
<totfact> 0.53654287E-01</totfact>
</mgrwt>
</event>
<event>
 6    1  0.1028026E-006  0.4414196E+04  0.7818608E-02  0.7925833E-01
          2   -1    0    0  501    0  0.00000000000E+00  0.00000000000E+00  0.45039662255E+04  0.45039662255E+04  0.00000000000E+00 0. -1.
         -2   -1    0    0    0  501 -0.00000000000E+00 -0.00000000000E+00 -0.10815536814E+04  0.10815536814E+04  0.00000000000E+00 0.  1.
         23    2    1    2    0    0 -0.16582818353E+03 -0.19829882816E+04  0.50658433821E+03  0.20553930484E+04  0.90947128490E+02 0.  0.
         13    1    3    3    0    0 -0.86554051490E+02 -0.90980015887E+03  0.27819614036E+03  0.95531200423E+03  0.00000000000E+00 0. -1.
        -13    1    3    3    0    0 -0.79274132036E+02 -0.10731881227E+04  0.22838819785E+03  0.11000810442E+04  0.00000000000E+00 0.  1.
         22    1    1    2    0    0  0.16582818353E+03  0.19829882816E+04  0.29158282059E+04  0.35301268586E+04  0.00000000000E+00 0.  1.
<mgrwt>
<rscale>  0 0.44141959E+04</rscale>
<asrwt>0</asrwt>
<pdfrwt beam="1">  1        2 0.69291787E+00 0.44141959E+04</pdfrwt>
<pdfrwt beam="2">  1       -2 0.16639288E+00 0.44141959E+04</pdfrwt>
<totfact> 0.20875482E-02</totfact>
</mgrwt>
</event>
<event>
 6    1  0.1028026E-006  0.3224652E+04  0.7818608E-02  0.8182337E-01
         -2   -1    0    0    0  501 -0.00000000000E+00  0.00000000000E+00  0.34228965087E+04  0.34228965087E+04  0.00000000000E+00 0.  1.
          2   -1    0    0  501    0  0.00000000000E+00 -0.00000000000E+00 -0.75947248780E+03  0.75947248780E+03  0.00000000000E+00 0. -1.
         23    2    1    2    0    0 -0.93429550636E+03  0.67572763473E+03 -0.12664937620E+03  0.11634245633E+04  0.89446746385E+02 0.  0.
         11    1    3    3    0    0 -0.80442516850E+03  0.54823445688E+03 -0.12461174761E+03  0.98142190676E+03  0.00000000000E+00 0. -1.
        -11    1    3    3    0    0 -0.12987033786E+03  0.12749317786E+03 -0.20376285882E+01  0.18200265653E+03  0.00000000000E+00 0.  1.
         22    1    1    2    0    0  0.93429550636E+03 -0.67572763473E+03  0.27900733972E+04  0.30189444332E+04  0.00000000000E+00 0.  1.
<mgrwt>
<rscale>  0 0.32246524E+04</rscale>
<asrwt>0</asrwt>
<pdfrwt beam="1">  1        2 0.11684192E+00 0.32246524E+04</pdfrwt>
<pdfrwt beam="2">  1       -2 0.52659945E+00 0.32246524E+04</pdfrwt>
<totfact> 0.35331936E-02</totfact>
</mgrwt>
</event>
<event>
 6    1  0.1028026E-006  0.8519070E+03  0.7818608E-02  0.9487781E-01
          1   -1    0    0  501    0  0.00000000000E+00  0.00000000000E+00  0.13302037301E+03  0.13302037301E+03  0.00000000000E+00 0. -1.
         -1   -1    0    0    0  501 -0.00000000000E+00 -0.00000000000E+00 -0.13639745240E+04  0.13639745240E+04  0.00000000000E+00 0.  1.
         23    2    1    2    0    0 -0.14747344662E+03 -0.27503871063E+03 -0.11198332699E+04  0.11657207507E+04  0.86507839861E+02 0.  0.
         13    1    3    3    0    0 -0.11853375189E+02 -0.45644482326E+02 -0.29947034773E+03  0.30316070069E+03  0.00000000000E+00 0. -1.
        -13    1    3    3    0    0 -0.13562007143E+03 -0.22939422831E+03 -0.82036292219E+03  0.86256005001E+03  0.00000000000E+00 0.  1.
         22    1    1    2    0    0  0.14747344662E+03  0.27503871063E+03 -0.11112088104E+03  0.33127414630E+03  0.00000000000E+00 0. -1.
<mgrwt>
<rscale>  0 0.85190704E+03</rscale>
<asrwt>0</asrwt>
<pdfrwt beam="1">  1        1 0.20464673E-01 0.85190704E+03</pdfrwt>
<pdfrwt beam="2">  1       -1 0.20984223E+00 0.85190704E+03</pdfrwt>
<totfact> 0.33333197E+01</totfact>
</mgrwt>
</event>
<event>
 6    1  0.1281391E-006  0.4409582E+04  0.7818608E-02  0.7926660E-01
         -1   -1    0    0    0  501 -0.00000000000E+00  0.00000000000E+00  0.15122577865E+04  0.15122577865E+04  0.00000000000E+00 0.  1.
          1   -1    0    0  501    0  0.00000000000E+00 -0.00000000000E+00 -0.32144672630E+04  0.32144672630E+04  0.00000000000E+00 0. -1.
         23    2    1    2    0    0  0.17039936825E+04 -0.92472636113E+03 -0.19748253009E+04  0.27689118049E+04  0.90687934429E+02 0.  0.
         13    1    3    3    0    0  0.53881757784E+03 -0.28131629469E+03 -0.56147517186E+03  0.82747665131E+03  0.00000000000E+00 0.  1.
        -13    1    3    3    0    0  0.11651761047E+04 -0.64341006644E+03 -0.14133501290E+04  0.19414351536E+04  0.00000000000E+00 0. -1.
         22    1    1    2    0    0 -0.17039936825E+04  0.92472636113E+03  0.27261582431E+03  0.19578132446E+04  0.00000000000E+00 0.  1.
<mgrwt>
<rscale>  0 0.44095819E+04</rscale>
<asrwt>0</asrwt>
<pdfrwt beam="1">  1        1 0.49453342E+00 0.44095819E+04</pdfrwt>
<pdfrwt beam="2">  1       -1 0.23265504E+00 0.44095819E+04</pdfrwt>
<totfact> 0.28426048E-02</totfact>
</mgrwt>
</event>
<event>
 6    1  0.1028026E-006  0.4358873E+04  0.7818608E-02  0.7935821E-01
         -2   -1    0    0    0  501 -0.00000000000E+00  0.00000000000E+00  0.21441241939E+04  0.21441241939E+04  0.00000000000E+00 0.  1.
          2   -1    0    0  501    0  0.00000000000E+00 -0.00000000000E+00 -0.22153307460E+04  0.22153307460E+04  0.00000000000E+00 0. -1.
         23    2    1    2    0    0  0.11657985101E+04  0.80544733077E+03  0.16194091313E+04  0.21535508265E+04  0.86392471674E+02 0.  0.
         11    1    3    3    0    0  0.57919563606E+03  0.39526398177E+03  0.73616781960E+03  0.10166829686E+04  0.00000000000E+00 0. -1.
        -11    1    3    3    0    0  0.58660287405E+03  0.41018334900E+03  0.88324131167E+03  0.11368678579E+04  0.00000000000E+00 0.  1.
         22    1    1    2    0    0 -0.11657985101E+04 -0.80544733077E+03 -0.16906156834E+04  0.22059041134E+04  0.00000000000E+00 0. -1.
<mgrwt>
<rscale>  0 0.43588734E+04</rscale>
<asrwt>0</asrwt>
<pdfrwt beam="1">  1        2 0.34082012E+00 0.43588734E+04</pdfrwt>
<pdfrwt beam="2">  1       -2 0.32986526E+00 0.43588734E+04</pdfrwt>
<totfact> 0.80688079E-02</totfact>
</mgrwt>
</event>
<event>
 6    1  0.1028026E-006  0.5041929E+04  0.7818608E-02  0.7822072E-01
         -3   -1    0    0    0  501 -0.00000000000E+00  0.00000000000E+00  0.18756458273E+04  0.18756458273E+04  0.00000000000E+00 0.  1.
          3   -1    0    0  501    0  0.00000000000E+00 -0.00000000000E+00 -0.33883065412E+04  0.33883065412E+04  0.00000000000E+00 0. -1.
         23    2    1    2    0    0 -0.20154613261E+04  0.12581377573E+04 -0.16338754704E+04  0.28849424924E+04  0.91373727587E+02 0.  0.
         11    1    3    3    0    0 -0.14105306251E+04  0.91124679301E+03 -0.11148249714E+04  0.20156393723E+04  0.00000000000E+00 0.  1.
        -11    1    3    3    0    0 -0.60493070102E+03  0.34689096432E+03 -0.51905049898E+03  0.86930312012E+03  0.00000000000E+00 0. -1.
         22    1    1    2    0    0  0.20154613261E+04 -0.12581377573E+04  0.12121475645E+03  0.23790098761E+04  0.00000000000E+00 0. -1.
<mgrwt>
<rscale>  0 0.50419294E+04</rscale>
<asrwt>0</asrwt>
<pdfrwt beam="1">  1        3 0.52127793E+00 0.50419294E+04</pdfrwt>
<pdfrwt beam="2">  1       -3 0.28856090E+00 0.50419294E+04</pdfrwt>
<totfact> 0.22162904E-04</totfact>
</mgrwt>
</event>
<event>
 6    1  0.1028026E-006  0.2823795E+04  0.7818608E-02  0.8295919E-01
         -4   -1    0    0    0  501 -0.00000000000E+00  0.00000000000E+00  0.11018915417E+04  0.11018915417E+04  0.00000000000E+00 0.  1.
          4   -1    0    0  501    0  0.00000000000E+00 -0.00000000000E+00 -0.18091206937E+04  0.18091206937E+04  0.00000000000E+00 0. -1.
         23    2    1    2    0    0  0.92530347912E+03 -0.58822615278E+03  0.56073985117E+03  0.12347240954E+04  0.88982446845E+02 0.  0.
         13    1    3    3    0    0  0.11530130383E+03 -0.43748916901E+02  0.77487103342E+02  0.14564549282E+03  0.00000000000E+00 0. -1.
        -13    1    3    3    0    0  0.81000217529E+03 -0.54447723588E+03  0.48325274782E+03  0.10890786026E+04  0.00000000000E+00 0.  1.
         22    1    1    2    0    0 -0.92530347912E+03  0.58822615278E+03 -0.12679690032E+04  0.16762881400E+04  0.00000000000E+00 0. -1.
<mgrwt>
<rscale>  0 0.28237952E+04</rscale>
<asrwt>0</asrwt>
<pdfrwt beam="1">  1        4 0.27832626E+00 0.28237952E+04</pdfrwt>
<pdfrwt beam="2">  1       -4 0.16952178E+00 0.28237952E+04</pdfrwt>
<totfact> 0.15512054E-02</totfact>
</mgrwt>
</event>
<event>
 6    1  0.1028026E-006  0.1630008E+04  0.7818608E-02  0.8802322E-01
          1   -1    0    0  501    0  0.00000000000E+00  0.00000000000E+00  0.54162935125E+03  0.54162935125E+03  0.00000000000E+00 0. -1.
         -1   -1    0    0    0  501 -0.00000000000E+00 -0.00000000000E+00 -0.12263581628E+04  0.12263581628E+04  0.00000000000E+00 0.  1.
         23    2    1    2    0    0  0.24857239009E+03 -0.39643488018E+03 -0.10638600582E+04  0.11657505594E+04  0.90704443331E+02 0.  0.
         13    1    3    3    0    0  0.93489615312E+02 -0.76887904095E+02 -0.25022363376E+03  0.27796389129E+03  0.00000000000E+00 0.  1.
        -13    1    3    3    0    0  0.15508277478E+03 -0.31954697608E+03 -0.81363642442E+03  0.88778666812E+03  0.00000000000E+00 0. -1.
         22    1    1    2    0    0 -0.24857239009E+03  0.39643488018E+03  0.37913124665E+03  0.60223695463E+03  0.00000000000E+00 0. -1.
<mgrwt>
<rscale>  0 0.16300081E+04</rscale>
<asrwt>0</asrwt>
<pdfrwt beam="1">  1        1 0.83327593E-01 0.16300081E+04</pdfrwt>
<pdfrwt beam="2">  1       -1 0.18867049E+00 0.16300081E+04</pdfrwt>
<totfact> 0.68492047E+00</totfact>
</mgrwt>
</event>
<event>
 6    1  0.1028026E-006  0.9589050E+03  0.7818608E-02  0.9354802E-01
          2   -1    0    0  501    0  0.00000000000E+00  0.00000000000E+00  0.13275101867E+04  0.13275101867E+04  0.00000000000E+00 0. -1.
         -2   -1    0    0    0  501 -0.00000000000E+00 -0.00000000000E+00 -0.17316230019E+03  0.17316230019E+03  0.00000000000E+00 0.  1.
         23    2    1    2    0    0 -0.31931912571E+03  0.28084940704E+03  0.91382492710E+03  0.10121109376E+04  0.91931817540E+02 0.  0.
         13    1    3    3    0    0 -0.74402040965E+02  0.72462506894E+02  0.14159111780E+03  0.17559761743E+03  0.00000000000E+00 0. -1.
        -13    1    3    3    0    0 -0.24491708475E+03  0.20838690015E+03  0.77223380930E+03  0.83651332014E+03  0.00000000000E+00 0.  1.
         22    1    1    2    0    0  0.31931912571E+03 -0.28084940704E+03  0.24052295944E+03  0.48856154935E+03  0.00000000000E+00 0.  1.
<mgrwt>
<rscale>  0 0.95890504E+03</rscale>
<asrwt>0</asrwt>
<pdfrwt beam="1">  1        2 0.20423233E+00 0.95890504E+03</pdfrwt>
<pdfrwt beam="2">  1       -2 0.26640355E-01 0.95890504E+03</pdfrwt>
<totfact> 0.20333382E+02</totfact>
</mgrwt>
</event>
<event>
 6    1  0.1028026E-006  0.2271688E+04  0.7818608E-02  0.8489168E-01
         -2   -1    0    0    0  501 -0.00000000000E+00  0.00000000000E+00  0.93720057943E+03  0.93720057943E+03  0.00000000000E+00 0.  1.
          2   -1    0    0  501    0  0.00000000000E+00 -0.00000000000E+00 -0.13765912298E+04  0.13765912298E+04  0.00000000000E+00 0. -1.
         23    2    1    2    0    0 -0.56161157378E+03 -0.23999197176E+02  0.78312574193E+03  0.96823250146E+03  0.90579953299E+02 0.  0.
         13    1    3    3    0    0 -0.50513275364E+03 -0.11978866889E+02  0.74049422649E+03  0.89645651959E+03  0.00000000000E+00 0. -1.
        -13    1    3    3    0    0 -0.56478820142E+02 -0.12020330287E+02  0.42631515447E+02  0.71775981875E+02  0.00000000000E+00 0.  1.
         22    1    1    2    0    0  0.56161157378E+03  0.23999197176E+02 -0.12225163923E+04  0.13455593078E+04  0.00000000000E+00 0. -1.
<mgrwt>
<rscale>  0 0.22716884E+04</rscale>
<asrwt>0</asrwt>
<pdfrwt beam="1">  1        2 0.21178327E+00 0.22716884E+04</pdfrwt>
<pdfrwt beam="2">  1       -2 0.14418470E+00 0.22716884E+04</pdfrwt>
<totfact> 0.45112823E+00</totfact>
</mgrwt>
</event>
<event>
 6    1  0.1097251E-006  0.4972496E+04  0.7818608E-02  0.7832764E-01
         -1   -1    0    0    0  501 -0.00000000000E+00  0.00000000000E+00  0.25753834660E+04  0.25753834660E+04  0.00000000000E+00 0.  1.
          1   -1    0    0  501    0  0.00000000000E+00 -0.00000000000E+00 -0.24001974288E+04  0.24001974288E+04  0.00000000000E+00 0. -1.
         23    2    1    2    0    0 -0.75492075241E+03  0.22521265196E+04 -0.64451250883E+03  0.24628363975E+04  0.90485050164E+02 0.  0.
         13    1    3    3    0    0 -0.43160881715E+03  0.11970708911E+04 -0.30914007089E+03  0.13095161216E+04  0.00000000000E+00 0. -1.
        -13    1    3    3    0    0 -0.32331193526E+03  0.10550556285E+04 -0.33537243794E+03  0.11533202759E+04  0.00000000000E+00 0.  1.
         22    1    1    2    0    0  0.75492075241E+03 -0.22521265196E+04  0.81969854603E+03  0.25127444974E+04  0.00000000000E+00 0. -1.
<mgrwt>
<rscale>  0 0.49724959E+04</rscale>
<asrwt>0</asrwt>
<pdfrwt beam="1">  1        1 0.36926114E+00 0.49724959E+04</pdfrwt>
<pdfrwt beam="2">  1       -1 0.39621284E+00 0.49724959E+04</pdfrwt>
<totfact> 0.87283475E-03</totfact>
</mgrwt>
</event>
<event>
 6    1  0.1028026E-006  0.2746759E+04  0.7818608E-02  0.8319991E-01
         -2   -1    0    0    0  501 -0.00000000000E+00  0.00000000000E+00  0.80311071234E+03  0.80311071234E+03  0.00000000000E+00 0.  1.
          2   -1    0    0  501    0  0.00000000000E+00 -0.00000000000E+00 -0.23485814508E+04  0.23485814508E+04  0.00000000000E+00 0. -1.
         23    2    1    2    0    0  0.92203192938E+03  0.64028523237E+03 -0.16784160702E+04  0.20213017355E+04  0.92044248401E+02 0.  0.
         11    1    3    3    0    0  0.84450139107E+03  0.61404857538E+03 -0.15435186325E+04  0.18635149640E+04  0.00000000000E+00 0.  1.
        -11    1    3    3    0    0  0.77530538311E+02  0.26236656987E+02 -0.13489743776E+03  0.15778677148E+03  0.00000000000E+00 0. -1.
         22    1    1    2    0    0 -0.92203192938E+03 -0.64028523237E+03  0.13294533176E+03  0.11303904276E+04  0.00000000000E+00 0.  1.
<mgrwt>
<rscale>  0 0.27467588E+04</rscale>
<asrwt>0</asrwt>
<pdfrwt beam="1">  1        2 0.36132022E+00 0.27467588E+04</pdfrwt>
<pdfrwt beam="2">  1       -2 0.12355549E+00 0.27467588E+04</pdfrwt>
<totfact> 0.18350813E+00</totfact>
</mgrwt>
</event>
<event>
 6    1  0.1028026E-006  0.1473569E+04  0.7818608E-02  0.8902222E-01
          2   -1    0    0  501    0  0.00000000000E+00  0.00000000000E+00  0.10108478734E+04  0.10108478734E+04  0.00000000000E+00 0. -1.
         -2   -1    0    0    0  501 -0.00000000000E+00 -0.00000000000E+00 -0.53702610311E+03  0.53702610311E+03  0.00000000000E+00 0.  1.
         23    2    1    2    0    0 -0.69181061161E+03 -0.16206889160E+03  0.42994212171E+03  0.83597955213E+03  0.95620790590E+02 0.  0.
         13    1    3    3    0    0 -0.33185492122E+03 -0.11632223247E+03  0.17714577122E+03  0.39375014256E+03  0.00000000000E+00 0. -1.
        -13    1    3    3    0    0 -0.35995569039E+03 -0.45746659134E+02  0.25279635049E+03  0.44222940957E+03  0.00000000000E+00 0.  1.
         22    1    1    2    0    0  0.69181061161E+03  0.16206889160E+03  0.43879648616E+02  0.71189442442E+03  0.00000000000E+00 0. -1.
<mgrwt>
<rscale>  0 0.14735694E+04</rscale>
<asrwt>0</asrwt>
<pdfrwt beam="1">  1        2 0.15551506E+00 0.14735694E+04</pdfrwt>
<pdfrwt beam="2">  1       -2 0.82619401E-01 0.14735694E+04</pdfrwt>
<totfact> 0.30849799E+01</totfact>
</mgrwt>
</event>
<event>
 6    1  0.1028026E-006  0.2199184E+04  0.7818608E-02  0.8518768E-01
          2   -1    0    0  501    0  0.00000000000E+00  0.00000000000E+00  0.10048193413E+04  0.10048193413E+04  0.00000000000E+00 0. -1.
         -2   -1    0    0    0  501 -0.00000000000E+00 -0.00000000000E+00 -0.12033030327E+04  0.12033030327E+04  0.00000000000E+00 0.  1.
         23    2    1    2    0    0  0.23159160203E+03  0.23814482240E+03 -0.11498792116E+04  0.12004016476E+04  0.91620344982E+02 0.  0.
         13    1    3    3    0    0  0.21760793406E+03  0.22129454231E+03 -0.95197205567E+03  0.10012868132E+04  0.00000000000E+00 0. -1.
        -13    1    3    3    0    0  0.13983667968E+02  0.16850280085E+02 -0.19790715594E+03  0.19911483440E+03  0.00000000000E+00 0.  1.
         22    1    1    2    0    0 -0.23159160203E+03 -0.23814482240E+03  0.95139552026E+03  0.10077207265E+04  0.00000000000E+00 0. -1.
<mgrwt>
<rscale>  0 0.21991836E+04</rscale>
<asrwt>0</asrwt>
<pdfrwt beam="1">  1        2 0.15458759E+00 0.21991836E+04</pdfrwt>
<pdfrwt beam="2">  1       -2 0.18512354E+00 0.21991836E+04</pdfrwt>
<totfact> 0.38222149E+00</totfact>
</mgrwt>
</event>
<event>
 6    1  0.1028026E-006  0.2462141E+04  0.7818608E-02  0.8416599E-01
         -2   -1    0    0    0  501 -0.00000000000E+00  0.00000000000E+00  0.13083814226E+04  0.13083814226E+04  0.00000000000E+00 0.  1.
          2   -1    0    0  501    0  0.00000000000E+00 -0.00000000000E+00 -0.11583275173E+04  0.11583275173E+04  0.00000000000E+00 0. -1.
         23    2    1    2    0    0  0.38395040419E+03  0.46763824160E+03 -0.99685092531E+03  0.11699845558E+04  0.95124421503E+02 0.  0.
         11    1    3    3    0    0  0.30908554362E+03  0.38731425419E+03 -0.87795359119E+03  0.10081412168E+04  0.00000000000E+00 0.  1.
        -11    1    3    3    0    0  0.74864860563E+02  0.80323987402E+02 -0.11889733412E+03  0.16184333894E+03  0.00000000000E+00 0. -1.
         22    1    1    2    0    0 -0.38395040419E+03 -0.46763824160E+03  0.11469048306E+04  0.12967243841E+04  0.00000000000E+00 0.  1.
<mgrwt>
<rscale>  0 0.24621407E+04</rscale>
<asrwt>0</asrwt>
<pdfrwt beam="1">  1        2 0.17820423E+00 0.24621407E+04</pdfrwt>
<pdfrwt beam="2">  1       -2 0.20128945E+00 0.24621407E+04</pdfrwt>
<totfact> 0.23416013E+00</totfact>
</mgrwt>
</event>
<event>
 6    1  0.1028026E-006  0.3185547E+04  0.7818608E-02  0.8192645E-01
         -3   -1    0    0    0  501 -0.00000000000E+00  0.00000000000E+00  0.42005438645E+04  0.42005438645E+04  0.00000000000E+00 0.  1.
          3   -1    0    0  501    0  0.00000000000E+00 -0.00000000000E+00 -0.60395198639E+03  0.60395198639E+03  0.00000000000E+00 0. -1.
         23    2    1    2    0    0  0.12570975472E+04 -0.67974587693E+03  0.28559069009E+04  0.31948490151E+04  0.92235037767E+02 0.  0.
         13    1    3    3    0    0  0.85921515637E+03 -0.44521848777E+03  0.18430538380E+04  0.20816622292E+04  0.00000000000E+00 0.  1.
        -13    1    3    3    0    0  0.39788239087E+03 -0.23452738915E+03  0.10128530630E+04  0.11131867859E+04  0.00000000000E+00 0. -1.
         22    1    1    2    0    0 -0.12570975472E+04  0.67974587693E+03  0.74068497717E+03  0.16096468358E+04  0.00000000000E+00 0. -1.
<mgrwt>
<rscale>  0 0.31855466E+04</rscale>
<asrwt>0</asrwt>
<pdfrwt beam="1">  1        3 0.92915693E-01 0.31855466E+04</pdfrwt>
<pdfrwt beam="2">  1       -3 0.64623750E+00 0.31855466E+04</pdfrwt>
<totfact> 0.11403496E-03</totfact>
</mgrwt>
</event>
<event>
 6    1  0.1028026E-006  0.3872405E+04  0.7818608E-02  0.8030793E-01
          2   -1    0    0  501    0  0.00000000000E+00  0.00000000000E+00  0.38798196319E+04  0.38798196319E+04  0.00000000000E+00 0. -1.
         -2   -1    0    0    0  501 -0.00000000000E+00 -0.00000000000E+00 -0.96625090897E+03  0.96625090897E+03  0.00000000000E+00 0.  1.
         23    2    1    2    0    0 -0.13227710703E+04 -0.14071592822E+03  0.32163151070E+04  0.34818199590E+04  0.94143947848E+02 0.  0.
         13    1    3    3    0    0 -0.66167337095E+03 -0.33545603641E+02  0.15223123552E+04  0.16602324730E+04  0.00000000000E+00 0.  1.
        -13    1    3    3    0    0 -0.66109769938E+03 -0.10717032458E+03  0.16940027517E+04  0.18215874861E+04  0.00000000000E+00 0. -1.
         22    1    1    2    0    0  0.13227710703E+04  0.14071592822E+03 -0.30274638404E+03  0.13642505818E+04  0.00000000000E+00 0.  1.
<mgrwt>
<rscale>  0 0.38724045E+04</rscale>
<asrwt>0</asrwt>
<pdfrwt beam="1">  1        2 0.59689532E+00 0.38724045E+04</pdfrwt>
<pdfrwt beam="2">  1       -2 0.14865399E+00 0.38724045E+04</pdfrwt>
<totfact> 0.10395108E-01</totfact>
</mgrwt>
</event>
<event>
 6    1  0.1028026E-006  0.2243515E+04  0.7818608E-02  0.8500531E-01
          1   -1    0    0  501    0  0.00000000000E+00  0.00000000000E+00  0.20894871317E+04  0.20894871317E+04  0.00000000000E+00 0. -1.
         -1   -1    0    0    0  501 -0.00000000000E+00 -0.00000000000E+00 -0.60222452118E+03  0.60222452118E+03  0.00000000000E+00 0.  1.
         23    2    1    2    0    0  0.67686290807E+03 -0.37141462289E+03  0.17181817758E+04  0.18858482157E+04  0.90458053360E+02 0.  0.
         11    1    3    3    0    0  0.19896609026E+03 -0.15615755657E+03  0.58338440860E+03  0.63585380061E+03  0.00000000000E+00 0. -1.
        -11    1    3    3    0    0  0.47789681782E+03 -0.21525706632E+03  0.11347973672E+04  0.12499944151E+04  0.00000000000E+00 0.  1.
         22    1    1    2    0    0 -0.67686290807E+03  0.37141462289E+03 -0.23091916533E+03  0.80586343715E+03  0.00000000000E+00 0.  1.
<mgrwt>
<rscale>  0 0.22435154E+04</rscale>
<asrwt>0</asrwt>
<pdfrwt beam="1">  1        1 0.32145955E+00 0.22435154E+04</pdfrwt>
<pdfrwt beam="2">  1       -1 0.92649928E-01 0.22435154E+04</pdfrwt>
<totfact> 0.26645805E+00</totfact>
</mgrwt>
</event>
<event>
 6    1  0.1028026E-006  0.2416041E+04  0.7818608E-02  0.8433522E-01
         -2   -1    0    0    0  501 -0.00000000000E+00  0.00000000000E+00  0.39497962979E+03  0.39497962979E+03  0.00000000000E+00 0.  1.
          2   -1    0    0  501    0  0.00000000000E+00 -0.00000000000E+00 -0.36946552962E+04  0.36946552962E+04  0.00000000000E+00 0. -1.
         23    2    1    2    0    0  0.75259793069E+02 -0.10763680233E+04 -0.73984119212E+03  0.13116887973E+04  0.94500546654E+02 0.  0.
         13    1    3    3    0    0  0.81647544441E+02 -0.93786637143E+03 -0.67640649983E+03  0.11592175832E+04  0.00000000000E+00 0. -1.
        -13    1    3    3    0    0 -0.63877513720E+01 -0.13850165190E+03 -0.63434692286E+02  0.15247121411E+03  0.00000000000E+00 0.  1.
         22    1    1    2    0    0 -0.75259793069E+02  0.10763680233E+04 -0.25598344743E+04  0.27779461287E+04  0.00000000000E+00 0.  1.
<mgrwt>
<rscale>  0 0.24160410E+04</rscale>
<asrwt>0</asrwt>
<pdfrwt beam="1">  1        2 0.56840848E+00 0.24160410E+04</pdfrwt>
<pdfrwt beam="2">  1       -2 0.60766099E-01 0.24160410E+04</pdfrwt>
<totfact> 0.13372851E+00</totfact>
</mgrwt>
</event>
<event>
 6    1  0.1028026E-006  0.2123120E+04  0.7818608E-02  0.8551127E-01
         -1   -1    0    0    0  501 -0.00000000000E+00  0.00000000000E+00  0.71837613924E+03  0.71837613924E+03  0.00000000000E+00 0.  1.
          1   -1    0    0  501    0  0.00000000000E+00 -0.00000000000E+00 -0.15686903338E+04  0.15686903338E+04  0.00000000000E+00 0. -1.
         23    2    1    2    0    0 -0.70039044748E+03 -0.79096023459E+03 -0.51990690663E+03  0.11801184853E+04  0.78813553816E+02 0.  0.
         13    1    3    3    0    0 -0.20669901172E+03 -0.26013929809E+03 -0.19948659680E+03  0.38754591748E+03  0.00000000000E+00 0. -1.
        -13    1    3    3    0    0 -0.49369143576E+03 -0.53082093650E+03 -0.32042030983E+03  0.79257256786E+03  0.00000000000E+00 0.  1.
         22    1    1    2    0    0  0.70039044748E+03  0.79096023459E+03 -0.33040728797E+03  0.11069479877E+04  0.00000000000E+00 0.  1.
<mgrwt>
<rscale>  0 0.21231201E+04</rscale>
<asrwt>0</asrwt>
<pdfrwt beam="1">  1        1 0.24133697E+00 0.21231201E+04</pdfrwt>
<pdfrwt beam="2">  1       -1 0.11051941E+00 0.21231201E+04</pdfrwt>
<totfact> 0.40617702E+00</totfact>
</mgrwt>
</event>
<event>
 6    1  0.1293916E-006  0.3907082E+04  0.7818608E-02  0.8023558E-01
          1   -1    0    0  501    0  0.00000000000E+00  0.00000000000E+00  0.30180751549E+04  0.30180751549E+04  0.00000000000E+00 0. -1.
         -1   -1    0    0    0  501 -0.00000000000E+00 -0.00000000000E+00 -0.12644887592E+04  0.12644887592E+04  0.00000000000E+00 0.  1.
         23    2    1    2    0    0 -0.97921467593E+03 -0.16668001564E+04  0.57834252662E+03  0.20202018089E+04  0.98240152150E+02 0.  0.
         13    1    3    3    0    0 -0.61713557791E+03 -0.99270429919E+03  0.30967298880E+03  0.12092210332E+04  0.00000000000E+00 0. -1.
        -13    1    3    3    0    0 -0.36207909802E+03 -0.67409585724E+03  0.26866953782E+03  0.81098077569E+03  0.00000000000E+00 0.  1.
         22    1    1    2    0    0  0.97921467593E+03  0.16668001564E+04  0.11752438691E+04  0.22623621052E+04  0.00000000000E+00 0. -1.
<mgrwt>
<rscale>  0 0.39070818E+04</rscale>
<asrwt>0</asrwt>
<pdfrwt beam="1">  1        1 0.46431925E+00 0.39070818E+04</pdfrwt>
<pdfrwt beam="2">  1       -1 0.19453673E+00 0.39070818E+04</pdfrwt>
<totfact> 0.75052609E-02</totfact>
</mgrwt>
</event>
<event>
 6    1  0.1028026E-006  0.1972135E+04  0.7818608E-02  0.8619760E-01
          2   -1    0    0  501    0  0.00000000000E+00  0.00000000000E+00  0.10212784424E+04  0.10212784424E+04  0.00000000000E+00 0. -1.
         -2   -1    0    0    0  501 -0.00000000000E+00 -0.00000000000E+00 -0.95207093959E+03  0.95207093959E+03  0.00000000000E+00 0.  1.
         23    2    1    2    0    0 -0.61584026983E+03  0.63134786231E+03 -0.40190458807E+03  0.97344640500E+03  0.90615916405E+02 0.  0.
         11    1    3    3    0    0 -0.27913194115E+02  0.24146383407E+02 -0.38819813444E+02  0.53564653953E+02  0.00000000000E+00 0.  1.
        -11    1    3    3    0    0 -0.58792707572E+03  0.60720147890E+03 -0.36308477463E+03  0.91988175104E+03  0.00000000000E+00 0. -1.
         22    1    1    2    0    0  0.61584026983E+03 -0.63134786231E+03  0.47111209086E+03  0.99990297696E+03  0.00000000000E+00 0. -1.
<mgrwt>
<rscale>  0 0.19721354E+04</rscale>
<asrwt>0</asrwt>
<pdfrwt beam="1">  1        2 0.15711976E+00 0.19721354E+04</pdfrwt>
<pdfrwt beam="2">  1       -2 0.14647245E+00 0.19721354E+04</pdfrwt>
<totfact> 0.72521012E+00</totfact>
</mgrwt>
</event>
<event>
 6    1  0.1028026E-006  0.2175482E+04  0.7818608E-02  0.8528703E-01
          2   -1    0    0  501    0  0.00000000000E+00  0.00000000000E+00  0.26831596143E+04  0.26831596143E+04  0.00000000000E+00 0. -1.
         -2   -1    0    0    0  501 -0.00000000000E+00 -0.00000000000E+00 -0.44096553887E+03  0.44096553887E+03  0.00000000000E+00 0.  1.
         23    2    1    2    0    0 -0.87071926820E+03 -0.34602409921E+03  0.19109423327E+04  0.21303382352E+04  0.93571769838E+02 0.  0.
         11    1    3    3    0    0 -0.24568513918E+03 -0.60620146050E+02  0.46325974586E+03  0.52786890593E+03  0.00000000000E+00 0.  1.
        -11    1    3    3    0    0 -0.62503412902E+03 -0.28540395316E+03  0.14476825869E+04  0.16024693293E+04  0.00000000000E+00 0. -1.
         22    1    1    2    0    0  0.87071926820E+03  0.34602409921E+03  0.33125174269E+03  0.99378691795E+03  0.00000000000E+00 0.  1.
<mgrwt>
<rscale>  0 0.21754824E+04</rscale>
<asrwt>0</asrwt>
<pdfrwt beam="1">  1        2 0.41279378E+00 0.21754824E+04</pdfrwt>
<pdfrwt beam="2">  1       -2 0.67840854E-01 0.21754824E+04</pdfrwt>
<totfact> 0.49560086E+00</totfact>
</mgrwt>
</event>
<event>
 6    1  0.1028026E-006  0.1503867E+04  0.7818608E-02  0.8881885E-01
          3   -1    0    0  501    0  0.00000000000E+00  0.00000000000E+00  0.95611094610E+03  0.95611094610E+03  0.00000000000E+00 0. -1.
         -3   -1    0    0    0  501 -0.00000000000E+00 -0.00000000000E+00 -0.59135839710E+03  0.59135839710E+03  0.00000000000E+00 0.  1.
         23    2    1    2    0    0  0.55272932328E+03  0.42345911759E+03  0.46987107703E+03  0.84328383212E+03  0.74306550138E+02 0.  0.
         11    1    3    3    0    0  0.24407791548E+03  0.15003970057E+03  0.21904729721E+03  0.36064894147E+03  0.00000000000E+00 0. -1.
        -11    1    3    3    0    0  0.30865140780E+03  0.27341941702E+03  0.25082377982E+03  0.48263489064E+03  0.00000000000E+00 0.  1.
         22    1    1    2    0    0 -0.55272932328E+03 -0.42345911759E+03 -0.10511852803E+03  0.70418551109E+03  0.00000000000E+00 0.  1.
<mgrwt>
<rscale>  0 0.15038673E+04</rscale>
<asrwt>0</asrwt>
<pdfrwt beam="1">  1        3 0.14709399E+00 0.15038673E+04</pdfrwt>
<pdfrwt beam="2">  1       -3 0.90978215E-01 0.15038673E+04</pdfrwt>
<totfact> 0.93633636E-01</totfact>
</mgrwt>
</event>
<event>
 6    1  0.1028026E-006  0.1302743E+04  0.7818608E-02  0.9027392E-01
         -2   -1    0    0    0  501 -0.00000000000E+00  0.00000000000E+00  0.20210464870E+03  0.20210464870E+03  0.00000000000E+00 0.  1.
          2   -1    0    0  501    0  0.00000000000E+00 -0.00000000000E+00 -0.20993337701E+04  0.20993337701E+04  0.00000000000E+00 0. -1.
         23    2    1    2    0    0 -0.46109310399E+03  0.14122058039E+03 -0.17183978129E+04  0.17871128995E+04  0.91276334551E+02 0.  0.
         13    1    3    3    0    0 -0.18389994809E+03  0.14499065365E+02 -0.58065417084E+03  0.60925255840E+03  0.00000000000E+00 0. -1.
        -13    1    3    3    0    0 -0.27719315590E+03  0.12672151503E+03 -0.11377436421E+04  0.11778603411E+04  0.00000000000E+00 0.  1.
         22    1    1    2    0    0  0.46109310399E+03 -0.14122058039E+03 -0.17883130845E+03  0.51432551925E+03  0.00000000000E+00 0.  1.
<mgrwt>
<rscale>  0 0.13027434E+04</rscale>
<asrwt>0</asrwt>
<pdfrwt beam="1">  1        2 0.32297442E+00 0.13027434E+04</pdfrwt>
<pdfrwt beam="2">  1       -2 0.31093024E-01 0.13027434E+04</pdfrwt>
<totfact> 0.55345612E+01</totfact>
</mgrwt>
</event>
<event>
 6    1  0.1028026E-006  0.9650154E+03  0.7818608E-02  0.9347770E-01
          2   -1    0    0  501    0  0.00000000000E+00  0.00000000000E+00  0.42729026406E+03  0.42729026406E+03  0.00000000000E+00 0. -1.
         -2   -1    0    0    0  501 -0.00000000000E+00 -0.00000000000E+00 -0.54486068043E+03  0.54486068043E+03  0.00000000000E+00 0.  1.
         23    2    1    2    0    0  0.31970910856E+03 -0.16346972888E+03 -0.37778398386E+03  0.52870154820E+03  0.88703563932E+02 0.  0.
         11    1    3    3    0    0  0.13709866787E+03 -0.11396146961E+03 -0.15336041382E+03  0.23516521387E+03  0.00000000000E+00 0. -1.
        -11    1    3    3    0    0  0.18261044069E+03 -0.49508259274E+02 -0.22442357004E+03  0.29353633433E+03  0.00000000000E+00 0.  1.
         22    1    1    2    0    0 -0.31970910856E+03  0.16346972888E+03  0.26021356749E+03  0.44344939628E+03  0.00000000000E+00 0. -1.
<mgrwt>
<rscale>  0 0.96501537E+03</rscale>
<asrwt>0</asrwt>
<pdfrwt beam="1">  1        2 0.65736964E-01 0.96501537E+03</pdfrwt>
<pdfrwt beam="2">  1       -2 0.83824720E-01 0.96501537E+03</pdfrwt>
<totfact> 0.91843906E+01</totfact>
</mgrwt>
</event>
<event>
 6    1  0.1028026E-006  0.1309240E+04  0.7818608E-02  0.9022270E-01
         -2   -1    0    0    0  501 -0.00000000000E+00  0.00000000000E+00  0.51730096239E+03  0.51730096239E+03  0.00000000000E+00 0.  1.
          2   -1    0    0  501    0  0.00000000000E+00 -0.00000000000E+00 -0.82839024147E+03  0.82839024147E+03  0.00000000000E+00 0. -1.
         23    2    1    2    0    0  0.39529108697E+03 -0.29227482939E+03 -0.59528454090E+03  0.77784741709E+03  0.94885722305E+02 0.  0.
         11    1    3    3    0    0  0.23311448113E+03 -0.20747355576E+03 -0.31744595926E+03  0.44515118185E+03  0.00000000000E+00 0.  1.
        -11    1    3    3    0    0  0.16217660584E+03 -0.84801273627E+02 -0.27783858164E+03  0.33269623523E+03  0.00000000000E+00 0. -1.
         22    1    1    2    0    0 -0.39529108697E+03  0.29227482939E+03  0.28419526183E+03  0.56784378678E+03  0.00000000000E+00 0.  1.
<mgrwt>
<rscale>  0 0.13092396E+04</rscale>
<asrwt>0</asrwt>
<pdfrwt beam="1">  1        2 0.12744465E+00 0.13092396E+04</pdfrwt>
<pdfrwt beam="2">  1       -2 0.79584764E-01 0.13092396E+04</pdfrwt>
<totfact> 0.45049508E+01</totfact>
</mgrwt>
</event>
<event>
 6    1  0.1028026E-006  0.1432210E+04  0.7818608E-02  0.8930828E-01
          1   -1    0    0  501    0  0.00000000000E+00  0.00000000000E+00  0.10710402851E+04  0.10710402851E+04  0.00000000000E+00 0. -1.
         -1   -1    0    0    0  501 -0.00000000000E+00 -0.00000000000E+00 -0.47879294462E+03  0.47879294462E+03  0.00000000000E+00 0.  1.
         23    2    1    2    0    0 -0.66394219413E+03 -0.49445680330E+02  0.57417833980E+03  0.88380725335E+03  0.90390169440E+02 0.  0.
         13    1    3    3    0    0 -0.34507165972E+03 -0.45719146006E+02  0.35274430390E+03  0.49557364194E+03  0.00000000000E+00 0. -1.
        -13    1    3    3    0    0 -0.31887053441E+03 -0.37265343235E+01  0.22143403590E+03  0.38823361141E+03  0.00000000000E+00 0.  1.
         22    1    1    2    0    0  0.66394219413E+03  0.49445680330E+02  0.18069000705E+02  0.66602597640E+03  0.00000000000E+00 0.  1.
<mgrwt>
<rscale>  0 0.14322102E+04</rscale>
<asrwt>0</asrwt>
<pdfrwt beam="1">  1        1 0.16477543E+00 0.14322102E+04</pdfrwt>
<pdfrwt beam="2">  1       -1 0.73660453E-01 0.14322102E+04</pdfrwt>
<totfact> 0.24083850E+01</totfact>
</mgrwt>
</event>
<event>
 6    1  0.1028026E-006  0.1622704E+04  0.7818608E-02  0.8806720E-01
         -2   -1    0    0    0  501 -0.00000000000E+00  0.00000000000E+00  0.36362059926E+03  0.36362059926E+03  0.00000000000E+00 0.  1.
          2   -1    0    0  501    0  0.00000000000E+00 -0.00000000000E+00 -0.18103825176E+04  0.18103825176E+04  0.00000000000E+00 0. -1.
         23    2    1    2    0    0 -0.65839480059E+03 -0.43332106648E+03 -0.96847009047E+03  0.12520411151E+04  0.91770243629E+02 0.  0.
         11    1    3    3    0    0 -0.72764371080E+02 -0.17510334754E+02 -0.10406648094E+03  0.12818384445E+03  0.00000000000E+00 0. -1.
        -11    1    3    3    0    0 -0.58563042951E+03 -0.41581073173E+03 -0.86440360953E+03  0.11238572706E+04  0.00000000000E+00 0.  1.
         22    1    1    2    0    0  0.65839480059E+03  0.43332106648E+03 -0.47829182786E+03  0.92196200176E+03  0.00000000000E+00 0. -1.
<mgrwt>
<rscale>  0 0.16227044E+04</rscale>
<asrwt>0</asrwt>
<pdfrwt beam="1">  1        2 0.27852039E+00 0.16227044E+04</pdfrwt>
<pdfrwt beam="2">  1       -2 0.55941631E-01 0.16227044E+04</pdfrwt>
<totfact> 0.24458984E+01</totfact>
</mgrwt>
</event>
<event>
 6    1  0.1028026E-006  0.8338314E+03  0.7818608E-02  0.9512299E-01
          2   -1    0    0  501    0  0.00000000000E+00  0.00000000000E+00  0.30126904916E+04  0.30126904916E+04  0.00000000000E+00 0. -1.
         -2   -1    0    0    0  501 -0.00000000000E+00 -0.00000000000E+00 -0.57695506851E+02  0.57695506851E+02  0.00000000000E+00 0.  1.
         23    2    1    2    0    0 -0.16177709340E+03 -0.26496816574E+03  0.24938195095E+04  0.25144518515E+04  0.83381116905E+02 0.  0.
         13    1    3    3    0    0 -0.13849342670E+03 -0.15111101740E+03  0.15419251546E+04  0.15554896821E+04  0.00000000000E+00 0.  1.
        -13    1    3    3    0    0 -0.23283666703E+02 -0.11385714833E+03  0.95189435487E+03  0.95896216932E+03  0.00000000000E+00 0. -1.
         22    1    1    2    0    0  0.16177709340E+03  0.26496816574E+03  0.46117547529E+03  0.55593414701E+03  0.00000000000E+00 0.  1.
<mgrwt>
<rscale>  0 0.83383141E+03</rscale>
<asrwt>0</asrwt>
<pdfrwt beam="1">  1        2 0.46349072E+00 0.83383141E+03</pdfrwt>
<pdfrwt beam="2">  1       -2 0.88762342E-02 0.83383141E+03</pdfrwt>
<totfact> 0.14885074E+02</totfact>
</mgrwt>
</event>
<event>
 6    1  0.1028026E-006  0.4236302E+04  0.7818608E-02  0.7958503E-01
         -2   -1    0    0    0  501 -0.00000000000E+00  0.00000000000E+00  0.24107053636E+04  0.24107053636E+04  0.00000000000E+00 0.  1.
          2   -1    0    0  501    0  0.00000000000E+00 -0.00000000000E+00 -0.18611000042E+04  0.18611000042E+04  0.00000000000E+00 0. -1.
         23    2    1    2    0    0  0.11489192356E+04  0.17458914687E+04 -0.66041809185E+02  0.20930043520E+04  0.90295440294E+02 0.  0.
         13    1    3    3    0    0  0.54131759841E+03  0.74223487241E+03 -0.36567300661E+02  0.91938812025E+03  0.00000000000E+00 0.  1.
        -13    1    3    3    0    0  0.60760163714E+03  0.10036565963E+04 -0.29474508524E+02  0.11736162317E+04  0.00000000000E+00 0. -1.
         22    1    1    2    0    0 -0.11489192356E+04 -0.17458914687E+04  0.61564716860E+03  0.21788010158E+04  0.00000000000E+00 0.  1.
<mgrwt>
<rscale>  0 0.42363020E+04</rscale>
<asrwt>0</asrwt>
<pdfrwt beam="1">  1        2 0.28632308E+00 0.42363020E+04</pdfrwt>
<pdfrwt beam="2">  1       -2 0.37087775E+00 0.42363020E+04</pdfrwt>
<totfact> 0.70775863E-02</totfact>
</mgrwt>
</event>
<event>
 6    1  0.1028026E-006  0.5938843E+03  0.7818608E-02  0.9918176E-01
          2   -1    0    0  501    0  0.00000000000E+00  0.00000000000E+00  0.11625987781E+04  0.11625987781E+04  0.00000000000E+00 0. -1.
         -2   -1    0    0    0  501 -0.00000000000E+00 -0.00000000000E+00 -0.75842719781E+02  0.75842719781E+02  0.00000000000E+00 0.  1.
         23    2    1    2    0    0  0.24955069027E+03 -0.44752639133E+01  0.24463853525E+03  0.36011496540E+03  0.86828568901E+02 0.  0.
         13    1    3    3    0    0  0.62221441421E+02 -0.39278382243E+02  0.73581599252E+02  0.10406032305E+03  0.00000000000E+00 0.  1.
        -13    1    3    3    0    0  0.18732924884E+03  0.34803118330E+02  0.17105693600E+03  0.25605464235E+03  0.00000000000E+00 0. -1.
         22    1    1    2    0    0 -0.24955069027E+03  0.44752639133E+01  0.84211752308E+03  0.87832653249E+03  0.00000000000E+00 0. -1.
<mgrwt>
<rscale>  0 0.59388434E+03</rscale>
<asrwt>0</asrwt>
<pdfrwt beam="1">  1        2 0.17886134E+00 0.59388434E+03</pdfrwt>
<pdfrwt beam="2">  1       -2 0.11668112E-01 0.59388434E+03</pdfrwt>
<totfact> 0.10751230E+03</totfact>
</mgrwt>
</event>
<event>
 6    1  0.1028026E-006  0.9969242E+03  0.7818608E-02  0.9311925E-01
          1   -1    0    0  501    0  0.00000000000E+00  0.00000000000E+00  0.90972585916E+03  0.90972585916E+03  0.00000000000E+00 0. -1.
         -1   -1    0    0    0  501 -0.00000000000E+00 -0.00000000000E+00 -0.27312017048E+03  0.27312017048E+03  0.00000000000E+00 0.  1.
         23    2    1    2    0    0  0.15353060064E+03  0.44778656185E+03  0.48891404096E+03  0.68696572844E+03  0.93811099039E+02 0.  0.
         13    1    3    3    0    0  0.12650667811E+03  0.24214417692E+03  0.30837783914E+03  0.41198863297E+03  0.00000000000E+00 0.  1.
        -13    1    3    3    0    0  0.27023922525E+02  0.20564238493E+03  0.18053620182E+03  0.27497709547E+03  0.00000000000E+00 0. -1.
         22    1    1    2    0    0 -0.15353060064E+03 -0.44778656185E+03  0.14769164773E+03  0.49588030120E+03  0.00000000000E+00 0.  1.
<mgrwt>
<rscale>  0 0.99692423E+03</rscale>
<asrwt>0</asrwt>
<pdfrwt beam="1">  1        1 0.13995782E+00 0.99692423E+03</pdfrwt>
<pdfrwt beam="2">  1       -1 0.42018488E-01 0.99692423E+03</pdfrwt>
<totfact> 0.99584032E+01</totfact>
</mgrwt>
</event>
<event>
 6    1  0.1028026E-006  0.9577871E+03  0.7818608E-02  0.9356095E-01
          2   -1    0    0  501    0  0.00000000000E+00  0.00000000000E+00  0.37374369960E+04  0.37374369960E+04  0.00000000000E+00 0. -1.
         -2   -1    0    0    0  501 -0.00000000000E+00 -0.00000000000E+00 -0.61362651669E+02  0.61362651669E+02  0.00000000000E+00 0.  1.
         23    2    1    2    0    0 -0.68534368780E+02 -0.12284951189E+03  0.36523303554E+04  0.36561366206E+04  0.89604692636E+02 0.  0.
         13    1    3    3    0    0 -0.55716898026E+02 -0.14715912013E+02  0.11670166735E+04  0.11684386364E+04  0.00000000000E+00 0.  1.
        -13    1    3    3    0    0 -0.12817470754E+02 -0.10813359988E+03  0.24853136820E+04  0.24876979843E+04  0.00000000000E+00 0. -1.
         22    1    1    2    0    0  0.68534368780E+02  0.12284951189E+03  0.23743988854E+02  0.14266302703E+03  0.00000000000E+00 0.  1.
<mgrwt>
<rscale>  0 0.95778713E+03</rscale>
<asrwt>0</asrwt>
<pdfrwt beam="1">  1        2 0.57499013E+00 0.95778713E+03</pdfrwt>
<pdfrwt beam="2">  1       -2 0.94404109E-02 0.95778713E+03</pdfrwt>
<totfact> 0.43557806E+01</totfact>
</mgrwt>
</event>
<event>
 6    1  0.1028026E-006  0.2086843E+04  0.7818608E-02  0.8567061E-01
          1   -1    0    0  501    0  0.00000000000E+00  0.00000000000E+00  0.29012248196E+04  0.29012248196E+04  0.00000000000E+00 0. -1.
         -1   -1    0    0    0  501 -0.00000000000E+00 -0.00000000000E+00 -0.37526523132E+03  0.37526523132E+03  0.00000000000E+00 0.  1.
         23    2    1    2    0    0  0.51712085993E+03 -0.11426838560E+03  0.26731086491E+04  0.27268318900E+04  0.98137958878E+02 0.  0.
         13    1    3    3    0    0  0.26008870638E+03 -0.27885292571E+02  0.15137927055E+04  0.15362265718E+04  0.00000000000E+00 0.  1.
        -13    1    3    3    0    0  0.25703215355E+03 -0.86383093029E+02  0.11593159436E+04  0.11906053182E+04  0.00000000000E+00 0. -1.
         22    1    1    2    0    0 -0.51712085993E+03  0.11426838560E+03 -0.14714906081E+03  0.54965816088E+03  0.00000000000E+00 0.  1.
<mgrwt>
<rscale>  0 0.20868434E+04</rscale>
<asrwt>0</asrwt>
<pdfrwt beam="1">  1        1 0.44634227E+00 0.20868434E+04</pdfrwt>
<pdfrwt beam="2">  1       -1 0.57733114E-01 0.20868434E+04</pdfrwt>
<totfact> 0.19750575E+00</totfact>
</mgrwt>
</event>
<event>
 6    1  0.1028026E-006  0.5462183E+03  0.7818608E-02  0.1002373E+00
          1   -1    0    0  501    0  0.00000000000E+00  0.00000000000E+00  0.14975560811E+03  0.14975560811E+03  0.00000000000E+00 0. -1.
         -1   -1    0    0    0  501 -0.00000000000E+00 -0.00000000000E+00 -0.49806890238E+03  0.49806890238E+03  0.00000000000E+00 0.  1.
         23    2    1    2    0    0 -0.21045943268E+03 -0.10056842879E+03 -0.32959373598E+03  0.41382108416E+03  0.90601750693E+02 0.  0.
         11    1    3    3    0    0 -0.14768621175E+02  0.28324898983E+00 -0.78527136288E+02  0.79904339901E+02  0.00000000000E+00 0.  1.
        -11    1    3    3    0    0 -0.19569081151E+03 -0.10085167778E+03 -0.25106659969E+03  0.33391674426E+03  0.00000000000E+00 0. -1.
         22    1    1    2    0    0  0.21045943268E+03  0.10056842879E+03 -0.18719558294E+02  0.23400342634E+03  0.00000000000E+00 0. -1.
<mgrwt>
<rscale>  0 0.54621831E+03</rscale>
<asrwt>0</asrwt>
<pdfrwt beam="1">  1        1 0.23039325E-01 0.54621831E+03</pdfrwt>
<pdfrwt beam="2">  1       -1 0.76625984E-01 0.54621831E+03</pdfrwt>
<totfact> 0.37710760E+02</totfact>
</mgrwt>
</event>
<event>
 6    1  0.1028026E-006  0.8161904E+03  0.7818608E-02  0.9536873E-01
         -2   -1    0    0    0  501 -0.00000000000E+00  0.00000000000E+00  0.20185537074E+03  0.20185537074E+03  0.00000000000E+00 0.  1.
          2   -1    0    0  501    0  0.00000000000E+00 -0.00000000000E+00 -0.82505464323E+03  0.82505464323E+03  0.00000000000E+00 0. -1.
         23    2    1    2    0    0  0.36860920198E+03  0.11366138277E+03 -0.46263252782E+03  0.60909027627E+03  0.90390569953E+02 0.  0.
         13    1    3    3    0    0  0.91653068710E+02  0.31109081323E+02 -0.18264983488E+03  0.20670999523E+03  0.00000000000E+00 0.  1.
        -13    1    3    3    0    0  0.27695613327E+03  0.82552301444E+02 -0.27998269294E+03  0.40238028105E+03  0.00000000000E+00 0. -1.
         22    1    1    2    0    0 -0.36860920198E+03 -0.11366138277E+03 -0.16056674467E+03  0.41781973770E+03  0.00000000000E+00 0.  1.
<mgrwt>
<rscale>  0 0.81619045E+03</rscale>
<asrwt>0</asrwt>
<pdfrwt beam="1">  1        2 0.12693148E+00 0.81619045E+03</pdfrwt>
<pdfrwt beam="2">  1       -2 0.31054673E-01 0.81619045E+03</pdfrwt>
<totfact> 0.31894434E+02</totfact>
</mgrwt>
</event>
<event>
 6    1  0.1028026E-006  0.9970582E+03  0.7818608E-02  0.9311777E-01
          2   -1    0    0  501    0  0.00000000000E+00  0.00000000000E+00  0.37894555761E+04  0.37894555761E+04  0.00000000000E+00 0. -1.
         -2   -1    0    0    0  501 -0.00000000000E+00 -0.00000000000E+00 -0.65584946120E+02  0.65584946120E+02  0.00000000000E+00 0.  1.
         23    2    1    2    0    0  0.39488548956E+02  0.10094710662E+03  0.37424476565E+04  0.37450642987E+04  0.88557752279E+02 0.  0.
         11    1    3    3    0    0 -0.75355296650E+01  0.41857712742E+02  0.24771597013E+04  0.24775247805E+04  0.00000000000E+00 0. -1.
        -11    1    3    3    0    0  0.47024078621E+02  0.59089393875E+02  0.12652879552E+04  0.12675395181E+04  0.00000000000E+00 0.  1.
         22    1    1    2    0    0 -0.39488548956E+02 -0.10094710662E+03 -0.18577026539E+02  0.10997622356E+03  0.00000000000E+00 0.  1.
<mgrwt>
<rscale>  0 0.99705815E+03</rscale>
<asrwt>0</asrwt>
<pdfrwt beam="1">  1        2 0.58299299E+00 0.99705815E+03</pdfrwt>
<pdfrwt beam="2">  1       -2 0.10089995E-01 0.99705815E+03</pdfrwt>
<totfact> 0.35591924E+01</totfact>
</mgrwt>
</event>
<event>
 6    1  0.1028026E-006  0.2628388E+04  0.7818608E-02  0.8358622E-01
          1   -1    0    0  501    0  0.00000000000E+00  0.00000000000E+00  0.10414290244E+04  0.10414290244E+04  0.00000000000E+00 0. -1.
         -1   -1    0    0    0  501 -0.00000000000E+00 -0.00000000000E+00 -0.16584000815E+04  0.16584000815E+04  0.00000000000E+00 0.  1.
         23    2    1    2    0    0  0.21797762723E+03  0.11405872295E+04  0.31959313936E+03  0.12079826097E+04  0.92890992302E+02 0.  0.
         11    1    3    3    0    0  0.41090406648E+02  0.83056667803E+02  0.22358966581E+02  0.95324472050E+02  0.00000000000E+00 0.  1.
        -11    1    3    3    0    0  0.17688722058E+03  0.10575305617E+04  0.29723417278E+03  0.11126581376E+04  0.00000000000E+00 0. -1.
         22    1    1    2    0    0 -0.21797762723E+03 -0.11405872295E+04 -0.93656419646E+03  0.14918464962E+04  0.00000000000E+00 0.  1.
<mgrwt>
<rscale>  0 0.26283881E+04</rscale>
<asrwt>0</asrwt>
<pdfrwt beam="1">  1        1 0.16021985E+00 0.26283881E+04</pdfrwt>
<pdfrwt beam="2">  1       -1 0.25513847E+00 0.26283881E+04</pdfrwt>
<totfact> 0.79665295E-01</totfact>
</mgrwt>
</event>
<event>
 6    1  0.1028026E-006  0.3413551E+04  0.7818608E-02  0.8134589E-01
          1   -1    0    0  501    0  0.00000000000E+00  0.00000000000E+00  0.33672888775E+04  0.33672888775E+04  0.00000000000E+00 0. -1.
         -1   -1    0    0    0  501 -0.00000000000E+00 -0.00000000000E+00 -0.86511199652E+03  0.86511199652E+03  0.00000000000E+00 0.  1.
         23    2    1    2    0    0  0.76205336608E+03  0.99716418989E+03 -0.18000341409E+03  0.12711253229E+04  0.91085691055E+02 0.  0.
         13    1    3    3    0    0  0.48852826302E+03  0.56711692752E+03 -0.11615360813E+03  0.75747814089E+03  0.00000000000E+00 0. -1.
        -13    1    3    3    0    0  0.27352510306E+03  0.43004726237E+03 -0.63849805968E+02  0.51364718202E+03  0.00000000000E+00 0.  1.
         22    1    1    2    0    0 -0.76205336608E+03 -0.99716418989E+03  0.26821802951E+04  0.29612755511E+04  0.00000000000E+00 0. -1.
<mgrwt>
<rscale>  0 0.34135506E+04</rscale>
<asrwt>0</asrwt>
<pdfrwt beam="1">  1        1 0.51804443E+00 0.34135506E+04</pdfrwt>
<pdfrwt beam="2">  1       -1 0.13309416E+00 0.34135506E+04</pdfrwt>
<totfact> 0.12433652E-01</totfact>
</mgrwt>
</event>
<event>
 6    1  0.1028026E-006  0.1169775E+04  0.7818608E-02  0.9139731E-01
          2   -1    0    0  501    0  0.00000000000E+00  0.00000000000E+00  0.94001045513E+03  0.94001045513E+03  0.00000000000E+00 0. -1.
         -2   -1    0    0    0  501 -0.00000000000E+00 -0.00000000000E+00 -0.36392524265E+03  0.36392524265E+03  0.00000000000E+00 0.  1.
         23    2    1    2    0    0  0.15282495759E+03 -0.18853731426E+03  0.87864797292E+03  0.91606199342E+03  0.90804894939E+02 0.  0.
         13    1    3    3    0    0  0.61982288678E+02 -0.57636694965E+02  0.46788273331E+03  0.47547665016E+03  0.00000000000E+00 0.  1.
        -13    1    3    3    0    0  0.90842668912E+02 -0.13090061929E+03  0.41076523960E+03  0.44058534325E+03  0.00000000000E+00 0. -1.
         22    1    1    2    0    0 -0.15282495759E+03  0.18853731426E+03 -0.30256276044E+03  0.38787370436E+03  0.00000000000E+00 0.  1.
<mgrwt>
<rscale>  0 0.11697752E+04</rscale>
<asrwt>0</asrwt>
<pdfrwt beam="1">  1        2 0.14461699E+00 0.11697752E+04</pdfrwt>
<pdfrwt beam="2">  1       -2 0.55988499E-01 0.11697752E+04</pdfrwt>
<totfact> 0.81645614E+01</totfact>
</mgrwt>
</event>
<event>
 6    1  0.1028026E-006  0.2505487E+04  0.7818608E-02  0.8401033E-01
          2   -1    0    0  501    0  0.00000000000E+00  0.00000000000E+00  0.17262420334E+04  0.17262420334E+04  0.00000000000E+00 0. -1.
         -2   -1    0    0    0  501 -0.00000000000E+00 -0.00000000000E+00 -0.90912323515E+03  0.90912323515E+03  0.00000000000E+00 0.  1.
         23    2    1    2    0    0  0.86715001752E+03  0.65608507004E+03 -0.24178029898E+03  0.11175826523E+04  0.90202548593E+02 0.  0.
         11    1    3    3    0    0  0.65604874662E+03  0.44705262618E+03 -0.18406351567E+03  0.81494502043E+03  0.00000000000E+00 0. -1.
        -11    1    3    3    0    0  0.21110127090E+03  0.20903244385E+03 -0.57716783307E+02  0.30263763189E+03  0.00000000000E+00 0.  1.
         22    1    1    2    0    0 -0.86715001752E+03 -0.65608507004E+03  0.10588990972E+04  0.15177826162E+04  0.00000000000E+00 0. -1.
<mgrwt>
<rscale>  0 0.25054874E+04</rscale>
<asrwt>0</asrwt>
<pdfrwt beam="1">  1        2 0.26557570E+00 0.25054874E+04</pdfrwt>
<pdfrwt beam="2">  1       -2 0.13986511E+00 0.25054874E+04</pdfrwt>
<totfact> 0.30442521E+00</totfact>
</mgrwt>
</event>
<event>
 6    1  0.1028026E-006  0.2081926E+04  0.7818608E-02  0.8569247E-01
         -2   -1    0    0    0  501 -0.00000000000E+00  0.00000000000E+00  0.72496415439E+03  0.72496415439E+03  0.00000000000E+00 0.  1.
          2   -1    0    0  501    0  0.00000000000E+00 -0.00000000000E+00 -0.14946994271E+04  0.14946994271E+04  0.00000000000E+00 0. -1.
         23    2    1    2    0    0 -0.27075924172E+03  0.30655194600E+03 -0.14038447096E+04  0.14650912254E+04  0.91802328789E+02 0.  0.
         11    1    3    3    0    0 -0.36629853789E+02  0.57798223257E+02 -0.13902981725E+03  0.15495699689E+03  0.00000000000E+00 0.  1.
        -11    1    3    3    0    0 -0.23412938793E+03  0.24875372275E+03 -0.12648148923E+04  0.13101342285E+04  0.00000000000E+00 0. -1.
         22    1    1    2    0    0  0.27075924172E+03 -0.30655194600E+03  0.63410943689E+03  0.75457235606E+03  0.00000000000E+00 0.  1.
<mgrwt>
<rscale>  0 0.20819256E+04</rscale>
<asrwt>0</asrwt>
<pdfrwt beam="1">  1        2 0.22995375E+00 0.20819256E+04</pdfrwt>
<pdfrwt beam="2">  1       -2 0.11153295E+00 0.20819256E+04</pdfrwt>
<totfact> 0.74955310E+00</totfact>
</mgrwt>
</event>
<event>
 6    1  0.1028026E-006  0.4029015E+04  0.7818608E-02  0.7998719E-01
          2   -1    0    0  501    0  0.00000000000E+00  0.00000000000E+00  0.34735750759E+04  0.34735750759E+04  0.00000000000E+00 0. -1.
         -2   -1    0    0    0  501 -0.00000000000E+00 -0.00000000000E+00 -0.11683183187E+04  0.11683183187E+04  0.00000000000E+00 0.  1.
         23    2    1    2    0    0 -0.52201202621E+03  0.98985807236E+03 -0.77524202695E+03  0.13644266414E+04  0.91347142077E+02 0.  0.
         11    1    3    3    0    0 -0.44457866896E+03  0.87127582598E+03 -0.70898389346E+03  0.12080686731E+04  0.00000000000E+00 0. -1.
        -11    1    3    3    0    0 -0.77433357245E+02  0.11858224638E+03 -0.66258133489E+02  0.15635796822E+03  0.00000000000E+00 0.  1.
         22    1    1    2    0    0  0.52201202621E+03 -0.98985807236E+03  0.30804987842E+04  0.32774667532E+04  0.00000000000E+00 0. -1.
<mgrwt>
<rscale>  0 0.40290155E+04</rscale>
<asrwt>0</asrwt>
<pdfrwt beam="1">  1        2 0.53439616E+00 0.40290155E+04</pdfrwt>
<pdfrwt beam="2">  1       -2 0.17974128E+00 0.40290155E+04</pdfrwt>
<totfact> 0.12134532E-01</totfact>
</mgrwt>
</event>
<event>
 6    1  0.1028026E-006  0.9647183E+03  0.7818608E-02  0.9348111E-01
          2   -1    0    0  501    0  0.00000000000E+00  0.00000000000E+00  0.96741096692E+03  0.96741096692E+03  0.00000000000E+00 0. -1.
         -2   -1    0    0    0  501 -0.00000000000E+00 -0.00000000000E+00 -0.24050830329E+03  0.24050830329E+03  0.00000000000E+00 0.  1.
         23    2    1    2    0    0 -0.29988518430E+03 -0.36630249109E+03  0.44864444068E+03  0.65879608059E+03  0.92853663992E+02 0.  0.
         11    1    3    3    0    0 -0.10015009991E+03 -0.19311312738E+03  0.21777380434E+03  0.30781187816E+03  0.00000000000E+00 0.  1.
        -11    1    3    3    0    0 -0.19973508439E+03 -0.17318936371E+03  0.23087063633E+03  0.35098420243E+03  0.00000000000E+00 0. -1.
         22    1    1    2    0    0  0.29988518430E+03  0.36630249109E+03  0.27825822296E+03  0.54912318962E+03  0.00000000000E+00 0. -1.
<mgrwt>
<rscale>  0 0.96471834E+03</rscale>
<asrwt>0</asrwt>
<pdfrwt beam="1">  1        2 0.14883246E+00 0.96471834E+03</pdfrwt>
<pdfrwt beam="2">  1       -2 0.37001278E-01 0.96471834E+03</pdfrwt>
<totfact> 0.18184090E+02</totfact>
</mgrwt>
</event>
<event>
 6    1  0.1028026E-006  0.3176900E+04  0.7818608E-02  0.8194945E-01
          2   -1    0    0  501    0  0.00000000000E+00  0.00000000000E+00  0.27459163344E+04  0.27459163344E+04  0.00000000000E+00 0. -1.
         -2   -1    0    0    0  501 -0.00000000000E+00 -0.00000000000E+00 -0.91888220610E+03  0.91888220610E+03  0.00000000000E+00 0.  1.
         23    2    1    2    0    0 -0.14586952292E+04 -0.55683198964E+03  0.12425858249E+04  0.19976352445E+04  0.93131098283E+02 0.  0.
         13    1    3    3    0    0 -0.31570181970E+03 -0.16222465850E+03  0.28086105694E+03  0.45262281438E+03  0.00000000000E+00 0.  1.
        -13    1    3    3    0    0 -0.11429934095E+04 -0.39460733115E+03  0.96172476799E+03  0.15450124301E+04  0.00000000000E+00 0. -1.
         22    1    1    2    0    0  0.14586952292E+04  0.55683198964E+03  0.58444830337E+03  0.16671632960E+04  0.00000000000E+00 0. -1.
<mgrwt>
<rscale>  0 0.31769002E+04</rscale>
<asrwt>0</asrwt>
<pdfrwt beam="1">  1        2 0.42244866E+00 0.31769002E+04</pdfrwt>
<pdfrwt beam="2">  1       -2 0.14136649E+00 0.31769002E+04</pdfrwt>
<totfact> 0.73614447E-01</totfact>
</mgrwt>
</event>
<event>
 6    1  0.1028026E-006  0.1430462E+04  0.7818608E-02  0.8932059E-01
         -2   -1    0    0    0  501 -0.00000000000E+00  0.00000000000E+00  0.34179714912E+03  0.34179714912E+03  0.00000000000E+00 0.  1.
          2   -1    0    0  501    0  0.00000000000E+00 -0.00000000000E+00 -0.14966646858E+04  0.14966646858E+04  0.00000000000E+00 0. -1.
         23    2    1    2    0    0  0.33908394667E+03  0.56453625436E+03 -0.92862032366E+03  0.11421379830E+04  0.92001963756E+02 0.  0.
         11    1    3    3    0    0  0.10620886895E+03  0.21538897091E+03 -0.27191610565E+03  0.36278244327E+03  0.00000000000E+00 0.  1.
        -11    1    3    3    0    0  0.23287507772E+03  0.34914728344E+03 -0.65670421801E+03  0.77935553973E+03  0.00000000000E+00 0. -1.
         22    1    1    2    0    0 -0.33908394667E+03 -0.56453625436E+03 -0.22624721303E+03  0.69632385194E+03  0.00000000000E+00 0.  1.
<mgrwt>
<rscale>  0 0.14304625E+04</rscale>
<asrwt>0</asrwt>
<pdfrwt beam="1">  1        2 0.23025610E+00 0.14304625E+04</pdfrwt>
<pdfrwt beam="2">  1       -2 0.52584177E-01 0.14304625E+04</pdfrwt>
<totfact> 0.42240671E+01</totfact>
</mgrwt>
</event>
<event>
 6    1  0.1028026E-006  0.2351503E+04  0.7818608E-02  0.8457886E-01
          2   -1    0    0  501    0  0.00000000000E+00  0.00000000000E+00  0.19311066691E+04  0.19311066691E+04  0.00000000000E+00 0. -1.
         -2   -1    0    0    0  501 -0.00000000000E+00 -0.00000000000E+00 -0.71585473431E+03  0.71585473431E+03  0.00000000000E+00 0.  1.
         23    2    1    2    0    0  0.10914818191E+04  0.24512481438E+03  0.20890590122E+03  0.11422517719E+04  0.98380378296E+02 0.  0.
         13    1    3    3    0    0  0.31064726155E+03  0.73163182418E+02  0.14841492000E+02  0.31949153707E+03  0.00000000000E+00 0. -1.
        -13    1    3    3    0    0  0.78083455750E+03  0.17196163197E+03  0.19406440922E+03  0.82276023481E+03  0.00000000000E+00 0.  1.
         22    1    1    2    0    0 -0.10914818191E+04 -0.24512481438E+03  0.10063460335E+04  0.15047096315E+04  0.00000000000E+00 0. -1.
<mgrwt>
<rscale>  0 0.23515032E+04</rscale>
<asrwt>0</asrwt>
<pdfrwt beam="1">  1        2 0.29709333E+00 0.23515032E+04</pdfrwt>
<pdfrwt beam="2">  1       -2 0.11013150E+00 0.23515032E+04</pdfrwt>
<totfact> 0.43159335E+00</totfact>
</mgrwt>
</event>
<event>
 6    1  0.1028026E-006  0.1470532E+04  0.7818608E-02  0.8904289E-01
         -2   -1    0    0    0  501 -0.00000000000E+00  0.00000000000E+00  0.24088580803E+03  0.24088580803E+03  0.00000000000E+00 0.  1.
          2   -1    0    0  501    0  0.00000000000E+00 -0.00000000000E+00 -0.22442825591E+04  0.22442825591E+04  0.00000000000E+00 0. -1.
         23    2    1    2    0    0 -0.28987727624E+03 -0.35751427467E+03 -0.19683762720E+04  0.20235714370E+04  0.92146192733E+02 0.  0.
         11    1    3    3    0    0 -0.19318232094E+03 -0.25767377555E+03 -0.15362435284E+04  0.15696366976E+04  0.00000000000E+00 0. -1.
        -11    1    3    3    0    0 -0.96694955303E+02 -0.99840499118E+02 -0.43213274356E+03  0.45393473948E+03  0.00000000000E+00 0.  1.
         22    1    1    2    0    0  0.28987727624E+03  0.35751427467E+03 -0.35020479042E+02  0.46159693004E+03  0.00000000000E+00 0.  1.
<mgrwt>
<rscale>  0 0.14705316E+04</rscale>
<asrwt>0</asrwt>
<pdfrwt beam="1">  1        2 0.34527424E+00 0.14705316E+04</pdfrwt>
<pdfrwt beam="2">  1       -2 0.37059355E-01 0.14705316E+04</pdfrwt>
<totfact> 0.32442371E+01</totfact>
</mgrwt>
</event>
<event>
 6    1  0.1028026E-006  0.2756880E+04  0.7818608E-02  0.8316782E-01
          2   -1    0    0  501    0  0.00000000000E+00  0.00000000000E+00  0.16846673181E+04  0.16846673181E+04  0.00000000000E+00 0. -1.
         -2   -1    0    0    0  501 -0.00000000000E+00 -0.00000000000E+00 -0.11278764571E+04  0.11278764571E+04  0.00000000000E+00 0.  1.
         23    2    1    2    0    0 -0.64376336735E+03  0.10911657449E+04 -0.27108400925E+03  0.12991202532E+04  0.95670979665E+02 0.  0.
         13    1    3    3    0    0 -0.29232484491E+03  0.58343599274E+03 -0.12189478310E+03  0.66385970710E+03  0.00000000000E+00 0. -1.
        -13    1    3    3    0    0 -0.35143852244E+03  0.50772975215E+03 -0.14918922615E+03  0.63526054613E+03  0.00000000000E+00 0.  1.
         22    1    1    2    0    0  0.64376336735E+03 -0.10911657449E+04  0.82787487025E+03  0.15134235219E+04  0.00000000000E+00 0. -1.
<mgrwt>
<rscale>  0 0.27568798E+04</rscale>
<asrwt>0</asrwt>
<pdfrwt beam="1">  1        2 0.25917959E+00 0.27568798E+04</pdfrwt>
<pdfrwt beam="2">  1       -2 0.17351945E+00 0.27568798E+04</pdfrwt>
<totfact> 0.17579684E+00</totfact>
</mgrwt>
</event>
<event>
 6    1  0.1028026E-006  0.3112267E+04  0.7818608E-02  0.8212379E-01
         -2   -1    0    0    0  501 -0.00000000000E+00  0.00000000000E+00  0.24104777068E+04  0.24104777068E+04  0.00000000000E+00 0.  1.
          2   -1    0    0  501    0  0.00000000000E+00 -0.00000000000E+00 -0.10045941137E+04  0.10045941137E+04  0.00000000000E+00 0. -1.
         23    2    1    2    0    0 -0.78369337746E+03  0.94941283258E+02  0.21733540064E+04  0.23140722780E+04  0.90959956049E+02 0.  0.
         11    1    3    3    0    0 -0.37897984503E+03  0.78834279939E+02  0.97017060921E+03  0.10445437174E+04  0.00000000000E+00 0. -1.
        -11    1    3    3    0    0 -0.40471353244E+03  0.16107003319E+02  0.12031833972E+04  0.12695285606E+04  0.00000000000E+00 0.  1.
         22    1    1    2    0    0  0.78369337746E+03 -0.94941283258E+02 -0.76747041330E+03  0.11009995424E+04  0.00000000000E+00 0. -1.
<mgrwt>
<rscale>  0 0.31122672E+04</rscale>
<asrwt>0</asrwt>
<pdfrwt beam="1">  1        2 0.15455294E+00 0.31122672E+04</pdfrwt>
<pdfrwt beam="2">  1       -2 0.37084272E+00 0.31122672E+04</pdfrwt>
<totfact> 0.24318170E-01</totfact>
</mgrwt>
</event>
<event>
 6    1  0.1028026E-006  0.5711941E+03  0.7818608E-02  0.9967040E-01
         -1   -1    0    0    0  501 -0.00000000000E+00  0.00000000000E+00  0.91463716988E+03  0.91463716988E+03  0.00000000000E+00 0.  1.
          1   -1    0    0  501    0  0.00000000000E+00 -0.00000000000E+00 -0.89178185079E+02  0.89178185079E+02  0.00000000000E+00 0. -1.
         23    2    1    2    0    0  0.21062318886E+03  0.12731352403E+03  0.65186331577E+03  0.70264045993E+03  0.90592341836E+02 0.  0.
         13    1    3    3    0    0  0.82493771713E+02  0.70657096607E+02  0.39945509811E+03  0.41395896304E+03  0.00000000000E+00 0. -1.
        -13    1    3    3    0    0  0.12812941715E+03  0.56656427423E+02  0.25240821766E+03  0.28868149690E+03  0.00000000000E+00 0.  1.
         22    1    1    2    0    0 -0.21062318886E+03 -0.12731352403E+03  0.17359566903E+03  0.30117489503E+03  0.00000000000E+00 0. -1.
<mgrwt>
<rscale>  0 0.57119413E+03</rscale>
<asrwt>0</asrwt>
<pdfrwt beam="1">  1        1 0.13719721E-01 0.57119413E+03</pdfrwt>
<pdfrwt beam="2">  1       -1 0.14071340E+00 0.57119413E+03</pdfrwt>
<totfact> 0.18417871E+02</totfact>
</mgrwt>
</event>
<event>
 6    1  0.1028026E-006  0.1884801E+04  0.7818608E-02  0.8662459E-01
         -2   -1    0    0    0  501 -0.00000000000E+00  0.00000000000E+00  0.14242953906E+04  0.14242953906E+04  0.00000000000E+00 0.  1.
          2   -1    0    0  501    0  0.00000000000E+00 -0.00000000000E+00 -0.62354943175E+03  0.62354943175E+03  0.00000000000E+00 0. -1.
         23    2    1    2    0    0  0.19414093397E+03 -0.32717321501E+03  0.13354944900E+04  0.13915758176E+04  0.90579846506E+02 0.  0.
         11    1    3    3    0    0  0.92886020213E+02 -0.21141672095E+03  0.67479927303E+03  0.71321728914E+03  0.00000000000E+00 0.  1.
        -11    1    3    3    0    0  0.10125491375E+03 -0.11575649406E+03  0.66069521697E+03  0.67835852851E+03  0.00000000000E+00 0. -1.
         22    1    1    2    0    0 -0.19414093397E+03  0.32717321501E+03 -0.53474853120E+03  0.65626900466E+03  0.00000000000E+00 0. -1.
<mgrwt>
<rscale>  0 0.18848009E+04</rscale>
<asrwt>0</asrwt>
<pdfrwt beam="1">  1        2 0.95930682E-01 0.18848009E+04</pdfrwt>
<pdfrwt beam="2">  1       -2 0.21912237E+00 0.18848009E+04</pdfrwt>
<totfact> 0.44396250E+00</totfact>
</mgrwt>
</event>
<event>
 6    1  0.1028026E-006  0.1878168E+04  0.7818608E-02  0.8665800E-01
         -1   -1    0    0    0  501 -0.00000000000E+00  0.00000000000E+00  0.10575644813E+04  0.10575644813E+04  0.00000000000E+00 0.  1.
          1   -1    0    0  501    0  0.00000000000E+00 -0.00000000000E+00 -0.83387738006E+03  0.83387738006E+03  0.00000000000E+00 0. -1.
         23    2    1    2    0    0  0.20592648013E+02  0.24708831642E+03  0.10217851538E+04  0.10557163115E+04  0.94949125920E+02 0.  0.
         13    1    3    3    0    0  0.50151308858E+02  0.71259856994E+02  0.34684179125E+03  0.35762039813E+03  0.00000000000E+00 0. -1.
        -13    1    3    3    0    0 -0.29558660846E+02  0.17582845942E+03  0.67494336255E+03  0.69809591334E+03  0.00000000000E+00 0.  1.
         22    1    1    2    0    0 -0.20592648013E+02 -0.24708831642E+03 -0.79809805255E+03  0.83572554990E+03  0.00000000000E+00 0. -1.
<mgrwt>
<rscale>  0 0.18781684E+04</rscale>
<asrwt>0</asrwt>
<pdfrwt beam="1">  1        1 0.12828883E+00 0.18781684E+04</pdfrwt>
<pdfrwt beam="2">  1       -1 0.16270223E+00 0.18781684E+04</pdfrwt>
<totfact> 0.54022241E+00</totfact>
</mgrwt>
</event>
<event>
 6    1  0.1028026E-006  0.1335460E+04  0.7818608E-02  0.9001908E-01
         -1   -1    0    0    0  501 -0.00000000000E+00  0.00000000000E+00  0.36458422704E+03  0.36458422704E+03  0.00000000000E+00 0.  1.
          1   -1    0    0  501    0  0.00000000000E+00 -0.00000000000E+00 -0.12229373388E+04  0.12229373388E+04  0.00000000000E+00 0. -1.
         23    2    1    2    0    0 -0.64017220250E+02  0.60080086413E+03 -0.10110206134E+03  0.61876512783E+03  0.87113568281E+02 0.  0.
         11    1    3    3    0    0  0.13705413558E+02  0.26916510201E+03 -0.34809241699E+02  0.27175241270E+03  0.00000000000E+00 0. -1.
        -11    1    3    3    0    0 -0.77722633808E+02  0.33163576212E+03 -0.66292819643E+02  0.34701271513E+03  0.00000000000E+00 0.  1.
         22    1    1    2    0    0  0.64017220250E+02 -0.60080086413E+03 -0.75725105042E+03  0.96875643801E+03  0.00000000000E+00 0. -1.
<mgrwt>
<rscale>  0 0.13354605E+04</rscale>
<asrwt>0</asrwt>
<pdfrwt beam="1">  1        1 0.18814420E+00 0.13354605E+04</pdfrwt>
<pdfrwt beam="2">  1       -1 0.56089882E-01 0.13354605E+04</pdfrwt>
<totfact> 0.32395432E+01</totfact>
</mgrwt>
</event>
<event>
 6    1  0.1028026E-006  0.2112769E+04  0.7818608E-02  0.8555639E-01
         -2   -1    0    0    0  501 -0.00000000000E+00  0.00000000000E+00  0.12289388672E+04  0.12289388672E+04  0.00000000000E+00 0.  1.
          2   -1    0    0  501    0  0.00000000000E+00 -0.00000000000E+00 -0.90805801000E+03  0.90805801000E+03  0.00000000000E+00 0. -1.
         23    2    1    2    0    0  0.18110221492E+03  0.85847456386E+03 -0.43080411524E+03  0.98165844765E+03  0.91019410488E+02 0.  0.
         13    1    3    3    0    0  0.49815053719E+02  0.29001533950E+03 -0.19135931058E+03  0.35101114294E+03  0.00000000000E+00 0. -1.
        -13    1    3    3    0    0  0.13128716120E+03  0.56845922436E+03 -0.23944480466E+03  0.63064730471E+03  0.00000000000E+00 0.  1.
         22    1    1    2    0    0 -0.18110221492E+03 -0.85847456386E+03  0.75168497249E+03  0.11553384296E+04  0.00000000000E+00 0. -1.
<mgrwt>
<rscale>  0 0.21127686E+04</rscale>
<asrwt>0</asrwt>
<pdfrwt beam="1">  1        2 0.13970123E+00 0.21127686E+04</pdfrwt>
<pdfrwt beam="2">  1       -2 0.18906752E+00 0.21127686E+04</pdfrwt>
<totfact> 0.41904173E+00</totfact>
</mgrwt>
</event>
<event>
 6    1  0.1028026E-006  0.2782015E+04  0.7818608E-02  0.8308874E-01
         -2   -1    0    0    0  501 -0.00000000000E+00  0.00000000000E+00  0.63570740656E+03  0.63570740656E+03  0.00000000000E+00 0.  1.
          2   -1    0    0  501    0  0.00000000000E+00 -0.00000000000E+00 -0.30436993141E+04  0.30436993141E+04  0.00000000000E+00 0. -1.
         23    2    1    2    0    0  0.12285940060E+04 -0.43192819384E+03 -0.18447638798E+04  0.22605230019E+04  0.10394841911E+03 0.  0.
         13    1    3    3    0    0  0.75988077026E+03 -0.29142825699E+03 -0.12284983207E+04  0.14736204864E+04  0.00000000000E+00 0.  1.
        -13    1    3    3    0    0  0.46871323572E+03 -0.14049993686E+03 -0.61626555905E+03  0.78690251548E+03  0.00000000000E+00 0. -1.
         22    1    1    2    0    0 -0.12285940060E+04  0.43192819384E+03 -0.56322802780E+03  0.14188837188E+04  0.00000000000E+00 0. -1.
<mgrwt>
<rscale>  0 0.27820152E+04</rscale>
<asrwt>0</asrwt>
<pdfrwt beam="1">  1        2 0.46826143E+00 0.27820152E+04</pdfrwt>
<pdfrwt beam="2">  1       -2 0.97801140E-01 0.27820152E+04</pdfrwt>
<totfact> 0.12392882E+00</totfact>
</mgrwt>
</event>
<event>
 6    1  0.1028026E-006  0.3411336E+04  0.7818608E-02  0.8135130E-01
          2   -1    0    0  501    0  0.00000000000E+00  0.00000000000E+00  0.23785004188E+04  0.23785004188E+04  0.00000000000E+00 0. -1.
         -2   -1    0    0    0  501 -0.00000000000E+00 -0.00000000000E+00 -0.12231671105E+04  0.12231671105E+04  0.00000000000E+00 0.  1.
         23    2    1    2    0    0  0.97315608302E+03  0.48123617999E+03  0.19653598155E+04  0.22471329357E+04  0.91357557843E+02 0.  0.
         13    1    3    3    0    0  0.51795936371E+03  0.23782251437E+03  0.11188161594E+04  0.12556237690E+04  0.00000000000E+00 0. -1.
        -13    1    3    3    0    0  0.45519671931E+03  0.24341366561E+03  0.84654365611E+03  0.99150916666E+03  0.00000000000E+00 0.  1.
         22    1    1    2    0    0 -0.97315608302E+03 -0.48123617999E+03 -0.81002650722E+03  0.13545345936E+04  0.00000000000E+00 0.  1.
<mgrwt>
<rscale>  0 0.34113361E+04</rscale>
<asrwt>0</asrwt>
<pdfrwt beam="1">  1        2 0.36592314E+00 0.34113361E+04</pdfrwt>
<pdfrwt beam="2">  1       -2 0.18817956E+00 0.34113361E+04</pdfrwt>
<totfact> 0.53967310E-01</totfact>
</mgrwt>
</event>
<event>
 6    1  0.1028026E-006  0.1545365E+04  0.7818608E-02  0.8854834E-01
         -2   -1    0    0    0  501 -0.00000000000E+00  0.00000000000E+00  0.40078191328E+03  0.40078191328E+03  0.00000000000E+00 0.  1.
          2   -1    0    0  501    0  0.00000000000E+00 -0.00000000000E+00 -0.14896835808E+04  0.14896835808E+04  0.00000000000E+00 0. -1.
         23    2    1    2    0    0  0.62538353334E+03  0.26924466028E+03 -0.98638362033E+03  0.12019110657E+04  0.89667789286E+02 0.  0.
         13    1    3    3    0    0  0.11213020332E+03  0.13401864011E+02 -0.14846495793E+03  0.18653320399E+03  0.00000000000E+00 0.  1.
        -13    1    3    3    0    0  0.51325333002E+03  0.25584279627E+03 -0.83791866240E+03  0.10153778617E+04  0.00000000000E+00 0. -1.
         22    1    1    2    0    0 -0.62538353334E+03 -0.26924466028E+03 -0.10251804717E+03  0.68855442839E+03  0.00000000000E+00 0.  1.
<mgrwt>
<rscale>  0 0.15453650E+04</rscale>
<asrwt>0</asrwt>
<pdfrwt beam="1">  1        2 0.22918209E+00 0.15453650E+04</pdfrwt>
<pdfrwt beam="2">  1       -2 0.61658756E-01 0.15453650E+04</pdfrwt>
<totfact> 0.30276591E+01</totfact>
</mgrwt>
</event>
<event>
 6    1  0.1028026E-006  0.4070090E+04  0.7818608E-02  0.7990555E-01
          1   -1    0    0  501    0  0.00000000000E+00  0.00000000000E+00  0.21879737693E+04  0.21879737693E+04  0.00000000000E+00 0. -1.
         -1   -1    0    0    0  501 -0.00000000000E+00 -0.00000000000E+00 -0.18928051879E+04  0.18928051879E+04  0.00000000000E+00 0.  1.
         23    2    1    2    0    0 -0.95502949116E+03  0.83306210867E+02  0.19463024937E+04  0.21715213920E+04  0.91599700678E+02 0.  0.
         11    1    3    3    0    0 -0.60516034656E+03  0.30195609563E+02  0.11412059765E+04  0.12920843241E+04  0.00000000000E+00 0.  1.
        -11    1    3    3    0    0 -0.34986914460E+03  0.53110601304E+02  0.80509651723E+03  0.87943706789E+03  0.00000000000E+00 0. -1.
         22    1    1    2    0    0  0.95502949116E+03 -0.83306210867E+02 -0.16511339123E+04  0.19092575652E+04  0.00000000000E+00 0.  1.
<mgrwt>
<rscale>  0 0.40700900E+04</rscale>
<asrwt>0</asrwt>
<pdfrwt beam="1">  1        1 0.33661135E+00 0.40700900E+04</pdfrwt>
<pdfrwt beam="2">  1       -1 0.29120080E+00 0.40700900E+04</pdfrwt>
<totfact> 0.65064145E-02</totfact>
</mgrwt>
</event>
<event>
 6    1  0.1028026E-006  0.3795320E+04  0.7818608E-02  0.8047160E-01
          1   -1    0    0  501    0  0.00000000000E+00  0.00000000000E+00  0.19867966000E+04  0.19867966000E+04  0.00000000000E+00 0. -1.
         -1   -1    0    0    0  501 -0.00000000000E+00 -0.00000000000E+00 -0.18125224865E+04  0.18125224865E+04  0.00000000000E+00 0.  1.
         23    2    1    2    0    0  0.16370343417E+04 -0.20923175005E+03  0.10226516096E+04  0.19436780283E+04  0.91698429471E+02 0.  0.
         11    1    3    3    0    0  0.10619838367E+04 -0.10242956225E+03  0.69425552167E+03  0.12729069935E+04  0.00000000000E+00 0. -1.
        -11    1    3    3    0    0  0.57505050496E+03 -0.10680218780E+03  0.32839608794E+03  0.67077103482E+03  0.00000000000E+00 0.  1.
         22    1    1    2    0    0 -0.16370343417E+04  0.20923175005E+03 -0.84837749605E+03  0.18556410582E+04  0.00000000000E+00 0.  1.
<mgrwt>
<rscale>  0 0.37953200E+04</rscale>
<asrwt>0</asrwt>
<pdfrwt beam="1">  1        1 0.30566101E+00 0.37953200E+04</pdfrwt>
<pdfrwt beam="2">  1       -1 0.27884961E+00 0.37953200E+04</pdfrwt>
<totfact> 0.10964041E-01</totfact>
</mgrwt>
</event>
<event>
 6    1  0.1028026E-006  0.1412272E+04  0.7818608E-02  0.8944983E-01
          2   -1    0    0  501    0  0.00000000000E+00  0.00000000000E+00  0.29325284675E+04  0.29325284675E+04  0.00000000000E+00 0. -1.
         -2   -1    0    0    0  501 -0.00000000000E+00 -0.00000000000E+00 -0.17003341681E+03  0.17003341681E+03  0.00000000000E+00 0.  1.
         23    2    1    2    0    0  0.28894282573E+03  0.63290495134E+03  0.16053736114E+04  0.17523816522E+04  0.97777240277E+02 0.  0.
         13    1    3    3    0    0  0.20581355570E+03  0.39764408949E+03  0.11306351970E+04  0.12160657838E+04  0.00000000000E+00 0.  1.
        -13    1    3    3    0    0  0.83129270032E+02  0.23526086185E+03  0.47473841438E+03  0.53631586844E+03  0.00000000000E+00 0. -1.
         22    1    1    2    0    0 -0.28894282573E+03 -0.63290495134E+03  0.11571214393E+04  0.13501802321E+04  0.00000000000E+00 0.  1.
<mgrwt>
<rscale>  0 0.14122717E+04</rscale>
<asrwt>0</asrwt>
<pdfrwt beam="1">  1        2 0.45115819E+00 0.14122717E+04</pdfrwt>
<pdfrwt beam="2">  1       -2 0.26158989E-01 0.14122717E+04</pdfrwt>
<totfact> 0.24839143E+01</totfact>
</mgrwt>
</event>
<event>
 6    1  0.1037502E-006  0.2863723E+04  0.7818608E-02  0.8283753E-01
         -2   -1    0    0    0  501 -0.00000000000E+00  0.00000000000E+00  0.12044614979E+04  0.12044614979E+04  0.00000000000E+00 0.  1.
          2   -1    0    0  501    0  0.00000000000E+00 -0.00000000000E+00 -0.17021943774E+04  0.17021943774E+04  0.00000000000E+00 0. -1.
         23    2    1    2    0    0 -0.68491487279E+03 -0.56265102785E+03  0.89039382689E+03  0.12596645836E+04  0.90934779011E+02 0.  0.
         11    1    3    3    0    0 -0.34631498081E+03 -0.31556610523E+03  0.41529716394E+03  0.62608926447E+03  0.00000000000E+00 0.  1.
        -11    1    3    3    0    0 -0.33859989198E+03 -0.24708492263E+03  0.47509666295E+03  0.63357531911E+03  0.00000000000E+00 0. -1.
         22    1    1    2    0    0  0.68491487279E+03  0.56265102785E+03 -0.13881267064E+04  0.16469912918E+04  0.00000000000E+00 0. -1.
<mgrwt>
<rscale>  0 0.28637232E+04</rscale>
<asrwt>0</asrwt>
<pdfrwt beam="1">  1        2 0.26187606E+00 0.28637232E+04</pdfrwt>
<pdfrwt beam="2">  1       -2 0.18530177E+00 0.28637232E+04</pdfrwt>
<totfact> 0.14118833E+00</totfact>
</mgrwt>
</event>
<event>
 6    1  0.1028026E-006  0.3138075E+04  0.7818608E-02  0.8205366E-01
         -2   -1    0    0    0  501 -0.00000000000E+00  0.00000000000E+00  0.16246789807E+04  0.16246789807E+04  0.00000000000E+00 0.  1.
          2   -1    0    0  501    0  0.00000000000E+00 -0.00000000000E+00 -0.15153018222E+04  0.15153018222E+04  0.00000000000E+00 0. -1.
         23    2    1    2    0    0  0.85921252385E+03  0.13016077493E+04  0.21413640067E+03  0.15768418478E+04  0.90260293190E+02 0.  0.
         13    1    3    3    0    0  0.26700775773E+03  0.36258938228E+03  0.95978226992E+02  0.46040853911E+03  0.00000000000E+00 0.  1.
        -13    1    3    3    0    0  0.59220476612E+03  0.93901836706E+03  0.11815817368E+03  0.11164333087E+04  0.00000000000E+00 0. -1.
         22    1    1    2    0    0 -0.85921252385E+03 -0.13016077493E+04 -0.10475924214E+03  0.15631389551E+04  0.00000000000E+00 0.  1.
<mgrwt>
<rscale>  0 0.31380752E+04</rscale>
<asrwt>0</asrwt>
<pdfrwt beam="1">  1        2 0.23312336E+00 0.31380752E+04</pdfrwt>
<pdfrwt beam="2">  1       -2 0.24995061E+00 0.31380752E+04</pdfrwt>
<totfact> 0.67729042E-01</totfact>
</mgrwt>
</event>
<event>
 6    1  0.1028026E-006  0.1760943E+04  0.7818608E-02  0.8727350E-01
          4   -1    0    0  501    0  0.00000000000E+00  0.00000000000E+00  0.61481026632E+03  0.61481026632E+03  0.00000000000E+00 0. -1.
         -4   -1    0    0    0  501 -0.00000000000E+00 -0.00000000000E+00 -0.12609253911E+04  0.12609253911E+04  0.00000000000E+00 0.  1.
         23    2    1    2    0    0 -0.35278739881E+03  0.36124764566E+03  0.44122261233E+03  0.67687696483E+03  0.92337541918E+02 0.  0.
         13    1    3    3    0    0 -0.27648087768E+03  0.29412741274E+03  0.30025347081E+03  0.50309517726E+03  0.00000000000E+00 0.  1.
        -13    1    3    3    0    0 -0.76306521126E+02  0.67120232917E+02  0.14096914152E+03  0.17378178758E+03  0.00000000000E+00 0. -1.
         22    1    1    2    0    0  0.35278739881E+03 -0.36124764566E+03 -0.10873377371E+04  0.11988586926E+04  0.00000000000E+00 0.  1.
<mgrwt>
<rscale>  0 0.17609428E+04</rscale>
<asrwt>0</asrwt>
<pdfrwt beam="1">  1        4 0.94586196E-01 0.17609428E+04</pdfrwt>
<pdfrwt beam="2">  1       -4 0.19398852E+00 0.17609428E+04</pdfrwt>
<totfact> 0.25755169E-01</totfact>
</mgrwt>
</event>
<event>
 6    1  0.1028026E-006  0.6651788E+03  0.7818608E-02  0.9778707E-01
          2   -1    0    0  501    0  0.00000000000E+00  0.00000000000E+00  0.25243233511E+04  0.25243233511E+04  0.00000000000E+00 0. -1.
         -2   -1    0    0    0  501 -0.00000000000E+00 -0.00000000000E+00 -0.43819946277E+02  0.43819946277E+02  0.00000000000E+00 0.  1.
         23    2    1    2    0    0  0.10699964234E+03  0.28331442910E+03  0.79458929570E+03  0.85524447592E+03  0.91405555420E+02 0.  0.
         13    1    3    3    0    0  0.40948377472E+02  0.13633701694E+03  0.25423771340E+03  0.29137839096E+03  0.00000000000E+00 0. -1.
        -13    1    3    3    0    0  0.66051264867E+02  0.14697741216E+03  0.54035158230E+03  0.56386608496E+03  0.00000000000E+00 0.  1.
         22    1    1    2    0    0 -0.10699964234E+03 -0.28331442910E+03  0.16859141092E+04  0.17128988215E+04  0.00000000000E+00 0. -1.
<mgrwt>
<rscale>  0 0.66517881E+03</rscale>
<asrwt>0</asrwt>
<pdfrwt beam="1">  1        2 0.38835732E+00 0.66517881E+03</pdfrwt>
<pdfrwt beam="2">  1       -2 0.67415322E-02 0.66517881E+03</pdfrwt>
<totfact> 0.45566033E+02</totfact>
</mgrwt>
</event>
<event>
 6    1  0.1028026E-006  0.2222417E+04  0.7818608E-02  0.8509155E-01
          2   -1    0    0  501    0  0.00000000000E+00  0.00000000000E+00  0.11459121218E+04  0.11459121218E+04  0.00000000000E+00 0. -1.
         -2   -1    0    0    0  501 -0.00000000000E+00 -0.00000000000E+00 -0.10775561514E+04  0.10775561514E+04  0.00000000000E+00 0.  1.
         23    2    1    2    0    0  0.64850976764E+03 -0.43864263471E+03  0.82074499849E+03  0.11376222761E+04  0.87119520147E+02 0.  0.
         11    1    3    3    0    0  0.10016934851E+03 -0.91265959339E+02  0.10545475011E+03  0.17170928349E+03  0.00000000000E+00 0.  1.
        -11    1    3    3    0    0  0.54834041913E+03 -0.34737667538E+03  0.71529024838E+03  0.96591299260E+03  0.00000000000E+00 0. -1.
         22    1    1    2    0    0 -0.64850976764E+03  0.43864263471E+03 -0.75238902808E+03  0.10858459970E+04  0.00000000000E+00 0.  1.
<mgrwt>
<rscale>  0 0.22224173E+04</rscale>
<asrwt>0</asrwt>
<pdfrwt beam="1">  1        2 0.17629417E+00 0.22224173E+04</pdfrwt>
<pdfrwt beam="2">  1       -2 0.16577787E+00 0.22224173E+04</pdfrwt>
<totfact> 0.42574252E+00</totfact>
</mgrwt>
</event>
<event>
 6    1  0.1028026E-006  0.6579411E+04  0.7818608E-02  0.7622438E-01
         -1   -1    0    0    0  501 -0.00000000000E+00  0.00000000000E+00  0.44020209393E+04  0.44020209393E+04  0.00000000000E+00 0.  1.
          1   -1    0    0  501    0  0.00000000000E+00 -0.00000000000E+00 -0.24584530291E+04  0.24584530291E+04  0.00000000000E+00 0. -1.
         23    2    1    2    0    0  0.22277420121E+04  0.15404062283E+04  0.29178102701E+04  0.39821352120E+04  0.89990300039E+02 0.  0.
         11    1    3    3    0    0  0.11591134818E+04  0.85202257542E+03  0.15240432098E+04  0.20957562449E+04  0.00000000000E+00 0.  1.
        -11    1    3    3    0    0  0.10686285302E+04  0.68838365287E+03  0.13937670603E+04  0.18863789671E+04  0.00000000000E+00 0. -1.
         22    1    1    2    0    0 -0.22277420121E+04 -0.15404062283E+04 -0.97424235994E+03  0.28783387564E+04  0.00000000000E+00 0. -1.
<mgrwt>
<rscale>  0 0.65794108E+04</rscale>
<asrwt>0</asrwt>
<pdfrwt beam="1">  1        1 0.37822354E+00 0.65794108E+04</pdfrwt>
<pdfrwt beam="2">  1       -1 0.67723399E+00 0.65794108E+04</pdfrwt>
<totfact> 0.22654874E-04</totfact>
</mgrwt>
</event>
<event>
 6    1  0.1028026E-006  0.5071851E+04  0.7818608E-02  0.7817518E-01
          2   -1    0    0  501    0  0.00000000000E+00  0.00000000000E+00  0.19990611764E+04  0.19990611764E+04  0.00000000000E+00 0. -1.
         -2   -1    0    0    0  501 -0.00000000000E+00 -0.00000000000E+00 -0.32169691902E+04  0.32169691902E+04  0.00000000000E+00 0.  1.
         23    2    1    2    0    0 -0.10512833433E+04  0.57559176575E+03  0.16882485709E+04  0.20724259634E+04  0.90904278259E+02 0.  0.
         13    1    3    3    0    0 -0.49965036236E+03  0.29511426415E+03  0.88834281403E+03  0.10610824043E+04  0.00000000000E+00 0. -1.
        -13    1    3    3    0    0 -0.55163298095E+03  0.28047750159E+03  0.79990575687E+03  0.10113435591E+04  0.00000000000E+00 0.  1.
         22    1    1    2    0    0  0.10512833433E+04 -0.57559176575E+03 -0.29061565847E+04  0.31436044032E+04  0.00000000000E+00 0.  1.
<mgrwt>
<rscale>  0 0.50718510E+04</rscale>
<asrwt>0</asrwt>
<pdfrwt beam="1">  1        2 0.30754787E+00 0.50718510E+04</pdfrwt>
<pdfrwt beam="2">  1       -2 0.49491834E+00 0.50718510E+04</pdfrwt>
<totfact> 0.86501101E-03</totfact>
</mgrwt>
</event>
<event>
 6    1  0.1028026E-006  0.1287246E+04  0.7818608E-02  0.9039741E-01
         -2   -1    0    0    0  501 -0.00000000000E+00  0.00000000000E+00  0.12387483012E+04  0.12387483012E+04  0.00000000000E+00 0.  1.
          2   -1    0    0  501    0  0.00000000000E+00 -0.00000000000E+00 -0.33441067239E+03  0.33441067239E+03  0.00000000000E+00 0. -1.
         23    2    1    2    0    0  0.41171504223E+03 -0.39547247668E+03  0.80869162501E+03  0.99431882826E+03  0.93701825292E+02 0.  0.
         11    1    3    3    0    0  0.10959347500E+03 -0.59699709767E+02  0.14229167554E+03  0.18926623058E+03  0.00000000000E+00 0. -1.
        -11    1    3    3    0    0  0.30212156724E+03 -0.33577276691E+03  0.66639994947E+03  0.80505259769E+03  0.00000000000E+00 0.  1.
         22    1    1    2    0    0 -0.41171504223E+03  0.39547247668E+03  0.95646003818E+02  0.57884014534E+03  0.00000000000E+00 0. -1.
<mgrwt>
<rscale>  0 0.12872461E+04</rscale>
<asrwt>0</asrwt>
<pdfrwt beam="1">  1        2 0.51447796E-01 0.12872461E+04</pdfrwt>
<pdfrwt beam="2">  1       -2 0.19057666E+00 0.12872461E+04</pdfrwt>
<totfact> 0.14641110E+01</totfact>
</mgrwt>
</event>
<event>
 6    1  0.1028026E-006  0.2139222E+04  0.7818608E-02  0.8544160E-01
         -1   -1    0    0    0  501 -0.00000000000E+00  0.00000000000E+00  0.89366475843E+03  0.89366475843E+03  0.00000000000E+00 0.  1.
          1   -1    0    0  501    0  0.00000000000E+00 -0.00000000000E+00 -0.12801973850E+04  0.12801973850E+04  0.00000000000E+00 0. -1.
         23    2    1    2    0    0 -0.86289424523E+03  0.25964233771E+03  0.38828277676E+03  0.98544322268E+03  0.91291885848E+02 0.  0.
         11    1    3    3    0    0 -0.60415127778E+03  0.14046173867E+03  0.24951181435E+03  0.66856892836E+03  0.00000000000E+00 0. -1.
        -11    1    3    3    0    0 -0.25874296745E+03  0.11918059904E+03  0.13877096241E+03  0.31687429432E+03  0.00000000000E+00 0.  1.
         22    1    1    2    0    0  0.86289424523E+03 -0.25964233771E+03 -0.77481540336E+03  0.11884189208E+04  0.00000000000E+00 0. -1.
<mgrwt>
<rscale>  0 0.21392216E+04</rscale>
<asrwt>0</asrwt>
<pdfrwt beam="1">  1        1 0.19695344E+00 0.21392216E+04</pdfrwt>
<pdfrwt beam="2">  1       -1 0.13748689E+00 0.21392216E+04</pdfrwt>
<totfact> 0.37647572E+00</totfact>
</mgrwt>
</event>
<event>
 6    1  0.1028026E-006  0.2409012E+04  0.7818608E-02  0.8436137E-01
         -2   -1    0    0    0  501 -0.00000000000E+00  0.00000000000E+00  0.24994817691E+04  0.24994817691E+04  0.00000000000E+00 0.  1.
          2   -1    0    0  501    0  0.00000000000E+00 -0.00000000000E+00 -0.58045409349E+03  0.58045409349E+03  0.00000000000E+00 0. -1.
         23    2    1    2    0    0  0.43799583766E+03  0.37134919692E+03 -0.39027506574E+03  0.70030989806E+03  0.91535493229E+02 0.  0.
         13    1    3    3    0    0  0.12197876560E+02  0.28291278602E+02 -0.45363640028E+01  0.31141021754E+02  0.00000000000E+00 0.  1.
        -13    1    3    3    0    0  0.42579796110E+03  0.34305791832E+03 -0.38573870173E+03  0.66916887630E+03  0.00000000000E+00 0. -1.
         22    1    1    2    0    0 -0.43799583766E+03 -0.37134919692E+03  0.23093027414E+04  0.23796259645E+04  0.00000000000E+00 0.  1.
<mgrwt>
<rscale>  0 0.24090118E+04</rscale>
<asrwt>0</asrwt>
<pdfrwt beam="1">  1        2 0.89300631E-01 0.24090118E+04</pdfrwt>
<pdfrwt beam="2">  1       -2 0.38453565E+00 0.24090118E+04</pdfrwt>
<totfact> 0.43441519E-01</totfact>
</mgrwt>
</event>
<event>
 6    1  0.1028026E-006  0.2629040E+04  0.7818608E-02  0.8358403E-01
         -2   -1    0    0    0  501 -0.00000000000E+00  0.00000000000E+00  0.83621291444E+03  0.83621291444E+03  0.00000000000E+00 0.  1.
          2   -1    0    0  501    0  0.00000000000E+00 -0.00000000000E+00 -0.20664150193E+04  0.20664150193E+04  0.00000000000E+00 0. -1.
         23    2    1    2    0    0 -0.12825295997E+02  0.10795329091E+04  0.20902671783E+03  0.11034794145E+04  0.91754342863E+02 0.  0.
         11    1    3    3    0    0 -0.33022301875E+02  0.96170517153E+03  0.16635441257E+03  0.97654549303E+03  0.00000000000E+00 0.  1.
        -11    1    3    3    0    0  0.20197005878E+02  0.11782773760E+03  0.42672305264E+02  0.12693392151E+03  0.00000000000E+00 0. -1.
         22    1    1    2    0    0  0.12825295997E+02 -0.10795329091E+04 -0.14392288227E+04  0.17991485192E+04  0.00000000000E+00 0.  1.
<mgrwt>
<rscale>  0 0.26290401E+04</rscale>
<asrwt>0</asrwt>
<pdfrwt beam="1">  1        2 0.31791000E+00 0.26290401E+04</pdfrwt>
<pdfrwt beam="2">  1       -2 0.12864814E+00 0.26290401E+04</pdfrwt>
<totfact> 0.24143765E+00</totfact>
</mgrwt>
</event>
<event>
 6    1  0.1028026E-006  0.4552236E+04  0.7818608E-02  0.7901555E-01
          2   -1    0    0  501    0  0.00000000000E+00  0.00000000000E+00  0.36983539365E+04  0.36983539365E+04  0.00000000000E+00 0. -1.
         -2   -1    0    0    0  501 -0.00000000000E+00 -0.00000000000E+00 -0.14008161016E+04  0.14008161016E+04  0.00000000000E+00 0.  1.
         23    2    1    2    0    0  0.46435105990E+03 -0.52539800522E+03 -0.12752232488E+04  0.14582516468E+04  0.92943856722E+02 0.  0.
         13    1    3    3    0    0  0.29361098039E+02 -0.63061577092E+02 -0.90157120362E+02  0.11387336359E+03  0.00000000000E+00 0. -1.
        -13    1    3    3    0    0  0.43498996186E+03 -0.46233642813E+03 -0.11850661284E+04  0.13443782832E+04  0.00000000000E+00 0.  1.
         22    1    1    2    0    0 -0.46435105990E+03  0.52539800522E+03  0.35727610837E+04  0.36409183913E+04  0.00000000000E+00 0. -1.
<mgrwt>
<rscale>  0 0.45522363E+04</rscale>
<asrwt>0</asrwt>
<pdfrwt beam="1">  1        2 0.56897752E+00 0.45522363E+04</pdfrwt>
<pdfrwt beam="2">  1       -2 0.21551017E+00 0.45522363E+04</pdfrwt>
<totfact> 0.46492000E-02</totfact>
</mgrwt>
</event>
<event>
 6    1  0.1028026E-006  0.1424397E+04  0.7818608E-02  0.8936345E-01
          2   -1    0    0  501    0  0.00000000000E+00  0.00000000000E+00  0.15728307071E+04  0.15728307071E+04  0.00000000000E+00 0. -1.
         -2   -1    0    0    0  501 -0.00000000000E+00 -0.00000000000E+00 -0.32249300829E+03  0.32249300829E+03  0.00000000000E+00 0.  1.
         23    2    1    2    0    0  0.43957290406E+03  0.82826970949E+02 -0.10493892075E+03  0.46813789686E+03  0.89756717211E+02 0.  0.
         11    1    3    3    0    0  0.29854396680E+03  0.16196645142E+02 -0.52331015450E+02  0.30352819738E+03  0.00000000000E+00 0.  1.
        -11    1    3    3    0    0  0.14102893726E+03  0.66630325807E+02 -0.52607905298E+02  0.16460969948E+03  0.00000000000E+00 0. -1.
         22    1    1    2    0    0 -0.43957290406E+03 -0.82826970949E+02  0.13552766195E+04  0.14271858185E+04  0.00000000000E+00 0. -1.
<mgrwt>
<rscale>  0 0.14243973E+04</rscale>
<asrwt>0</asrwt>
<pdfrwt beam="1">  1        2 0.24197395E+00 0.14243973E+04</pdfrwt>
<pdfrwt beam="2">  1       -2 0.49614310E-01 0.14243973E+04</pdfrwt>
<totfact> 0.43134173E+01</totfact>
</mgrwt>
</event>
<event>
 6    1  0.1028026E-006  0.1324026E+04  0.7818608E-02  0.9010727E-01
          1   -1    0    0  501    0  0.00000000000E+00  0.00000000000E+00  0.28359770739E+04  0.28359770739E+04  0.00000000000E+00 0. -1.
         -1   -1    0    0    0  501 -0.00000000000E+00 -0.00000000000E+00 -0.15453613565E+03  0.15453613565E+03  0.00000000000E+00 0.  1.
         23    2    1    2    0    0  0.37280724975E+03 -0.15347004242E+03  0.25243994014E+04  0.25578466593E+04  0.86306983633E+02 0.  0.
         11    1    3    3    0    0  0.27983422988E+03 -0.14257522725E+03  0.17681187311E+04  0.17957947374E+04  0.00000000000E+00 0. -1.
        -11    1    3    3    0    0  0.92973019878E+02 -0.10894815171E+02  0.75628067027E+03  0.76205192189E+03  0.00000000000E+00 0.  1.
         22    1    1    2    0    0 -0.37280724975E+03  0.15347004242E+03  0.15704153684E+03  0.43266655022E+03  0.00000000000E+00 0.  1.
<mgrwt>
<rscale>  0 0.13240256E+04</rscale>
<asrwt>0</asrwt>
<pdfrwt beam="1">  1        1 0.43630413E+00 0.13240256E+04</pdfrwt>
<pdfrwt beam="2">  1       -1 0.23774792E-01 0.13240256E+04</pdfrwt>
<totfact> 0.11850184E+01</totfact>
</mgrwt>
</event>
<event>
 6    1  0.1028026E-006  0.3788743E+04  0.7818608E-02  0.8048575E-01
         -2   -1    0    0    0  501 -0.00000000000E+00  0.00000000000E+00  0.11460280138E+04  0.11460280138E+04  0.00000000000E+00 0.  1.
          2   -1    0    0  501    0  0.00000000000E+00 -0.00000000000E+00 -0.31313746237E+04  0.31313746237E+04  0.00000000000E+00 0. -1.
         23    2    1    2    0    0 -0.90218191988E+02  0.12481047226E+04  0.61090080780E+03  0.13953191246E+04  0.88379533206E+02 0.  0.
         13    1    3    3    0    0 -0.59925116275E+02  0.33226066756E+03  0.18227834745E+03  0.38368420181E+03  0.00000000000E+00 0. -1.
        -13    1    3    3    0    0 -0.30293075713E+02  0.91584405504E+03  0.42862246035E+03  0.10116349228E+04  0.00000000000E+00 0.  1.
         22    1    1    2    0    0  0.90218191988E+02 -0.12481047226E+04 -0.25962474177E+04  0.28820835128E+04  0.00000000000E+00 0. -1.
<mgrwt>
<rscale>  0 0.37887428E+04</rscale>
<asrwt>0</asrwt>
<pdfrwt beam="1">  1        2 0.48174993E+00 0.37887428E+04</pdfrwt>
<pdfrwt beam="2">  1       -2 0.17631201E+00 0.37887428E+04</pdfrwt>
<totfact> 0.22159513E-01</totfact>
</mgrwt>
</event>
<event>
 6    1  0.1028026E-006  0.2068900E+04  0.7818608E-02  0.8575068E-01
         -2   -1    0    0    0  501 -0.00000000000E+00  0.00000000000E+00  0.91116310951E+03  0.91116310951E+03  0.00000000000E+00 0.  1.
          2   -1    0    0  501    0  0.00000000000E+00 -0.00000000000E+00 -0.11744185552E+04  0.11744185552E+04  0.00000000000E+00 0. -1.
         23    2    1    2    0    0 -0.14262945136E+03  0.70552840159E+03  0.61414606324E+03  0.95070418510E+03  0.92463910388E+02 0.  0.
         13    1    3    3    0    0 -0.10762863365E+03  0.58935205676E+03  0.46466686644E+03  0.75817878258E+03  0.00000000000E+00 0. -1.
        -13    1    3    3    0    0 -0.35000817707E+02  0.11617634483E+03  0.14947919680E+03  0.19252540252E+03  0.00000000000E+00 0.  1.
         22    1    1    2    0    0  0.14262945136E+03 -0.70552840159E+03 -0.87740150890E+03  0.11348774796E+04  0.00000000000E+00 0. -1.
<mgrwt>
<rscale>  0 0.20689001E+04</rscale>
<asrwt>0</asrwt>
<pdfrwt beam="1">  1        2 0.18067978E+00 0.20689001E+04</pdfrwt>
<pdfrwt beam="2">  1       -2 0.14017894E+00 0.20689001E+04</pdfrwt>
<totfact> 0.64904102E+00</totfact>
</mgrwt>
</event>
<event>
 6    1  0.1028026E-006  0.2164735E+04  0.7818608E-02  0.8533251E-01
         -2   -1    0    0    0  501 -0.00000000000E+00  0.00000000000E+00  0.12528344325E+04  0.12528344325E+04  0.00000000000E+00 0.  1.
          2   -1    0    0  501    0  0.00000000000E+00 -0.00000000000E+00 -0.93509518068E+03  0.93509518068E+03  0.00000000000E+00 0. -1.
         23    2    1    2    0    0 -0.58036303669E+03 -0.14247865060E+03  0.10688972582E+04  0.12280547407E+04  0.91954757408E+02 0.  0.
         11    1    3    3    0    0 -0.35559204871E+03 -0.90580776932E+02  0.56275076444E+03  0.67181768742E+03  0.00000000000E+00 0. -1.
        -11    1    3    3    0    0 -0.22477098798E+03 -0.51897873670E+02  0.50614649373E+03  0.55623705329E+03  0.00000000000E+00 0.  1.
         22    1    1    2    0    0  0.58036303669E+03  0.14247865060E+03 -0.75115800638E+03  0.95987487246E+03  0.00000000000E+00 0. -1.
<mgrwt>
<rscale>  0 0.21647350E+04</rscale>
<asrwt>0</asrwt>
<pdfrwt beam="1">  1        2 0.14386080E+00 0.21647350E+04</pdfrwt>
<pdfrwt beam="2">  1       -2 0.19274376E+00 0.21647350E+04</pdfrwt>
<totfact> 0.37816065E+00</totfact>
</mgrwt>
</event>
<event>
 6    1  0.1028026E-006  0.2586348E+04  0.7818608E-02  0.8372853E-01
         -1   -1    0    0    0  501 -0.00000000000E+00  0.00000000000E+00  0.37310106654E+03  0.37310106654E+03  0.00000000000E+00 0.  1.
          1   -1    0    0  501    0  0.00000000000E+00 -0.00000000000E+00 -0.44821612829E+04  0.44821612829E+04  0.00000000000E+00 0. -1.
         23    2    1    2    0    0 -0.11410201784E+04  0.24717972980E+01 -0.92253285215E+03  0.14706073005E+04  0.98416522052E+02 0.  0.
         11    1    3    3    0    0 -0.21160620859E+03  0.38801853056E+02 -0.17243753077E+03  0.27571266444E+03  0.00000000000E+00 0. -1.
        -11    1    3    3    0    0 -0.92941396978E+03 -0.36330055758E+02 -0.75009532137E+03  0.11948946361E+04  0.00000000000E+00 0.  1.
         22    1    1    2    0    0  0.11410201784E+04 -0.24717972980E+01 -0.31865273642E+04  0.33846550489E+04  0.00000000000E+00 0. -1.
<mgrwt>
<rscale>  0 0.25863481E+04</rscale>
<asrwt>0</asrwt>
<pdfrwt beam="1">  1        1 0.68956330E+00 0.25863481E+04</pdfrwt>
<pdfrwt beam="2">  1       -1 0.57400162E-01 0.25863481E+04</pdfrwt>
<totfact> 0.91412149E-02</totfact>
</mgrwt>
</event>
<event>
 6    1  0.1028026E-006  0.2319164E+04  0.7818608E-02  0.8470403E-01
         -1   -1    0    0    0  501 -0.00000000000E+00  0.00000000000E+00  0.91124475701E+03  0.91124475701E+03  0.00000000000E+00 0.  1.
          1   -1    0    0  501    0  0.00000000000E+00 -0.00000000000E+00 -0.14755978207E+04  0.14755978207E+04  0.00000000000E+00 0. -1.
         23    2    1    2    0    0  0.38837027138E+03  0.35002799131E+03  0.78053653981E+03  0.94390144654E+03  0.91441721354E+02 0.  0.
         13    1    3    3    0    0  0.21200740709E+03  0.15385263579E+03  0.45367661695E+03  0.52387044865E+03  0.00000000000E+00 0.  1.
        -13    1    3    3    0    0  0.17636286429E+03  0.19617535553E+03  0.32685992286E+03  0.42003099789E+03  0.00000000000E+00 0. -1.
         22    1    1    2    0    0 -0.38837027138E+03 -0.35002799131E+03 -0.13448896035E+04  0.14429411311E+04  0.00000000000E+00 0. -1.
<mgrwt>
<rscale>  0 0.23191643E+04</rscale>
<asrwt>0</asrwt>
<pdfrwt beam="1">  1        1 0.22701505E+00 0.23191643E+04</pdfrwt>
<pdfrwt beam="2">  1       -1 0.14019150E+00 0.23191643E+04</pdfrwt>
<totfact> 0.25637890E+00</totfact>
</mgrwt>
</event>
<event>
 6    1  0.1028026E-006  0.1117434E+04  0.7818608E-02  0.9188365E-01
         -2   -1    0    0    0  501 -0.00000000000E+00  0.00000000000E+00  0.26525323259E+03  0.26525323259E+03  0.00000000000E+00 0.  1.
          2   -1    0    0  501    0  0.00000000000E+00 -0.00000000000E+00 -0.11768543072E+04  0.11768543072E+04  0.00000000000E+00 0. -1.
         23    2    1    2    0    0  0.53089577723E+03 -0.59344674335E+02 -0.65253532008E+03  0.84840123038E+03  0.92791093878E+02 0.  0.
         11    1    3    3    0    0  0.44144602599E+03 -0.26240972075E+02 -0.57558064661E+03  0.72584865036E+03  0.00000000000E+00 0. -1.
        -11    1    3    3    0    0  0.89449751245E+02 -0.33103702260E+02 -0.76954673473E+02  0.12255258002E+03  0.00000000000E+00 0.  1.
         22    1    1    2    0    0 -0.53089577723E+03  0.59344674335E+02 -0.25906575450E+03  0.59370630939E+03  0.00000000000E+00 0.  1.
<mgrwt>
<rscale>  0 0.11174335E+04</rscale>
<asrwt>0</asrwt>
<pdfrwt beam="1">  1        2 0.18105451E+00 0.11174335E+04</pdfrwt>
<pdfrwt beam="2">  1       -2 0.40808189E-01 0.11174335E+04</pdfrwt>
<totfact> 0.11022028E+02</totfact>
</mgrwt>
</event>
<event>
 6    1  0.1028026E-006  0.1627119E+04  0.7818608E-02  0.8804059E-01
         -2   -1    0    0    0  501 -0.00000000000E+00  0.00000000000E+00  0.10753535522E+04  0.10753535522E+04  0.00000000000E+00 0.  1.
          2   -1    0    0  501    0  0.00000000000E+00 -0.00000000000E+00 -0.61549936215E+03  0.61549936215E+03  0.00000000000E+00 0. -1.
         23    2    1    2    0    0  0.38881866940E+03 -0.25444113719E+03  0.92294447434E+03  0.10348248194E+04  0.55818044520E+02 0.  0.
         11    1    3    3    0    0  0.96760236253E+02 -0.60206999808E+02  0.28255619050E+03  0.30467265538E+03  0.00000000000E+00 0. -1.
        -11    1    3    3    0    0  0.29205843314E+03 -0.19423413738E+03  0.64038828384E+03  0.73015216398E+03  0.00000000000E+00 0.  1.
         22    1    1    2    0    0 -0.38881866940E+03  0.25444113719E+03 -0.46309028431E+03  0.65602809497E+03  0.00000000000E+00 0. -1.
<mgrwt>
<rscale>  0 0.16271194E+04</rscale>
<asrwt>0</asrwt>
<pdfrwt beam="1">  1        2 0.94692210E-01 0.16271194E+04</pdfrwt>
<pdfrwt beam="2">  1       -2 0.16543901E+00 0.16271194E+04</pdfrwt>
<totfact> 0.10565767E+01</totfact>
</mgrwt>
</event>
<event>
 6    1  0.1028026E-006  0.1328902E+04  0.7818608E-02  0.9006955E-01
         -1   -1    0    0    0  501 -0.00000000000E+00  0.00000000000E+00  0.37399005157E+03  0.37399005157E+03  0.00000000000E+00 0.  1.
          1   -1    0    0  501    0  0.00000000000E+00 -0.00000000000E+00 -0.11804993024E+04  0.11804993024E+04  0.00000000000E+00 0. -1.
         23    2    1    2    0    0  0.38170125801E+03  0.35702252599E+03 -0.87873817129E+03  0.10268740098E+04  0.95543308529E+02 0.  0.
         13    1    3    3    0    0  0.36694215830E+03  0.30494571507E+03 -0.79403706126E+03  0.92635484094E+03  0.00000000000E+00 0.  1.
        -13    1    3    3    0    0  0.14759099716E+02  0.52076810925E+02 -0.84701110031E+02  0.10051916882E+03  0.00000000000E+00 0. -1.
         22    1    1    2    0    0 -0.38170125801E+03 -0.35702252599E+03  0.72228920505E+02  0.52761534416E+03  0.00000000000E+00 0.  1.
<mgrwt>
<rscale>  0 0.13289018E+04</rscale>
<asrwt>0</asrwt>
<pdfrwt beam="1">  1        1 0.18161527E+00 0.13289018E+04</pdfrwt>
<pdfrwt beam="2">  1       -1 0.57536932E-01 0.13289018E+04</pdfrwt>
<totfact> 0.33122572E+01</totfact>
</mgrwt>
</event>
<event>
 6    1  0.1028026E-006  0.7537234E+03  0.7818608E-02  0.9629527E-01
          1   -1    0    0  501    0  0.00000000000E+00  0.00000000000E+00  0.11879836786E+04  0.11879836786E+04  0.00000000000E+00 0. -1.
         -1   -1    0    0    0  501 -0.00000000000E+00 -0.00000000000E+00 -0.11955109616E+03  0.11955109616E+03  0.00000000000E+00 0.  1.
         23    2    1    2    0    0 -0.28384653300E+03  0.20506049803E+03  0.32169529650E+03  0.48277102897E+03  0.83434647926E+02 0.  0.
         11    1    3    3    0    0 -0.89211648560E+02  0.26040563859E+02  0.59335179142E+02  0.11026102071E+03  0.00000000000E+00 0. -1.
        -11    1    3    3    0    0 -0.19463488444E+03  0.17901993417E+03  0.26236011735E+03  0.37251000825E+03  0.00000000000E+00 0.  1.
         22    1    1    2    0    0  0.28384653300E+03 -0.20506049803E+03  0.74673728593E+03  0.82476374578E+03  0.00000000000E+00 0. -1.
<mgrwt>
<rscale>  0 0.75372343E+03</rscale>
<asrwt>0</asrwt>
<pdfrwt beam="1">  1        1 0.18276671E+00 0.75372343E+03</pdfrwt>
<pdfrwt beam="2">  1       -1 0.18392477E-01 0.75372343E+03</pdfrwt>
<totfact> 0.25983846E+02</totfact>
</mgrwt>
</event>
<event>
 6    1  0.1028026E-006  0.8111238E+03  0.7818608E-02  0.9544054E-01
         -1   -1    0    0    0  501 -0.00000000000E+00  0.00000000000E+00  0.12057621081E+03  0.12057621081E+03  0.00000000000E+00 0.  1.
          1   -1    0    0  501    0  0.00000000000E+00 -0.00000000000E+00 -0.13641202246E+04  0.13641202246E+04  0.00000000000E+00 0. -1.
         23    2    1    2    0    0 -0.39207438048E+03  0.62500189146E+02 -0.53486766072E+03  0.67238444677E+03  0.91590590733E+02 0.  0.
         11    1    3    3    0    0 -0.15065044082E+03  0.67894320515E+02 -0.23717852521E+03  0.28906547164E+03  0.00000000000E+00 0.  1.
        -11    1    3    3    0    0 -0.24142393966E+03 -0.53941313686E+01 -0.29768913551E+03  0.38331897513E+03  0.00000000000E+00 0. -1.
         22    1    1    2    0    0  0.39207438048E+03 -0.62500189146E+02 -0.70867635306E+03  0.81231198862E+03  0.00000000000E+00 0. -1.
<mgrwt>
<rscale>  0 0.81112378E+03</rscale>
<asrwt>0</asrwt>
<pdfrwt beam="1">  1        1 0.20986464E+00 0.81112378E+03</pdfrwt>
<pdfrwt beam="2">  1       -1 0.18550187E-01 0.81112378E+03</pdfrwt>
<totfact> 0.19121600E+02</totfact>
</mgrwt>
</event>
<event>
 6    1  0.1028026E-006  0.1474084E+04  0.7818608E-02  0.8901872E-01
          2   -1    0    0  501    0  0.00000000000E+00  0.00000000000E+00  0.24610349385E+04  0.24610349385E+04  0.00000000000E+00 0. -1.
         -2   -1    0    0    0  501 -0.00000000000E+00 -0.00000000000E+00 -0.22073256140E+03  0.22073256140E+03  0.00000000000E+00 0.  1.
         23    2    1    2    0    0  0.41217477837E+03 -0.56912909312E+03  0.73780748279E+03  0.10230671412E+04  0.92252485930E+02 0.  0.
         11    1    3    3    0    0  0.16223260955E+03 -0.30253911646E+03  0.35454430722E+03  0.49350886757E+03  0.00000000000E+00 0.  1.
        -11    1    3    3    0    0  0.24994216881E+03 -0.26658997666E+03  0.38326317557E+03  0.52955827362E+03  0.00000000000E+00 0. -1.
         22    1    1    2    0    0 -0.41217477837E+03  0.56912909312E+03  0.15024948943E+04  0.16587003587E+04  0.00000000000E+00 0. -1.
<mgrwt>
<rscale>  0 0.14740835E+04</rscale>
<asrwt>0</asrwt>
<pdfrwt beam="1">  1        2 0.37862074E+00 0.14740835E+04</pdfrwt>
<pdfrwt beam="2">  1       -2 0.33958857E-01 0.14740835E+04</pdfrwt>
<totfact> 0.28886293E+01</totfact>
</mgrwt>
</event>
<event>
 6    1  0.1028026E-006  0.3257464E+04  0.7818608E-02  0.8173804E-01
          2   -1    0    0  501    0  0.00000000000E+00  0.00000000000E+00  0.12461917596E+04  0.12461917596E+04  0.00000000000E+00 0. -1.
         -2   -1    0    0    0  501 -0.00000000000E+00 -0.00000000000E+00 -0.21286994817E+04  0.21286994817E+04  0.00000000000E+00 0.  1.
         23    2    1    2    0    0 -0.38254847367E+03 -0.92606234086E+03  0.88694306070E+03  0.13414481350E+04  0.94235407549E+02 0.  0.
         13    1    3    3    0    0 -0.22383907208E+03 -0.43283040052E+03  0.45924513883E+03  0.66959105680E+03  0.00000000000E+00 0.  1.
        -13    1    3    3    0    0 -0.15870940159E+03 -0.49323194034E+03  0.42769792187E+03  0.67185707818E+03  0.00000000000E+00 0. -1.
         22    1    1    2    0    0  0.38254847367E+03  0.92606234086E+03 -0.17694507828E+04  0.20334431063E+04  0.00000000000E+00 0.  1.
<mgrwt>
<rscale>  0 0.32574639E+04</rscale>
<asrwt>0</asrwt>
<pdfrwt beam="1">  1        2 0.19172181E+00 0.32574639E+04</pdfrwt>
<pdfrwt beam="2">  1       -2 0.32749223E+00 0.32574639E+04</pdfrwt>
<totfact> 0.32054477E-01</totfact>
</mgrwt>
</event>
<event>
 6    1  0.1028026E-006  0.1700155E+04  0.7818608E-02  0.8761276E-01
          1   -1    0    0  501    0  0.00000000000E+00  0.00000000000E+00  0.32116438486E+04  0.32116438486E+04  0.00000000000E+00 0. -1.
         -1   -1    0    0    0  501 -0.00000000000E+00 -0.00000000000E+00 -0.22500375463E+03  0.22500375463E+03  0.00000000000E+00 0.  1.
         23    2    1    2    0    0  0.47162688824E+03 -0.70098188905E+03  0.16402956461E+04  0.18471662718E+04  0.87440830141E+02 0.  0.
         13    1    3    3    0    0  0.29404845065E+03 -0.47611395705E+03  0.10062957525E+04  0.11514252615E+04  0.00000000000E+00 0.  1.
        -13    1    3    3    0    0  0.17757843759E+03 -0.22486793199E+03  0.63399989360E+03  0.69574101030E+03  0.00000000000E+00 0. -1.
         22    1    1    2    0    0 -0.47162688824E+03  0.70098188905E+03  0.13463444479E+04  0.15894813314E+04  0.00000000000E+00 0.  1.
<mgrwt>
<rscale>  0 0.17001552E+04</rscale>
<asrwt>0</asrwt>
<pdfrwt beam="1">  1        1 0.49409902E+00 0.17001552E+04</pdfrwt>
<pdfrwt beam="2">  1       -1 0.34615965E-01 0.17001552E+04</pdfrwt>
<totfact> 0.31550492E+00</totfact>
</mgrwt>
</event>
<event>
 6    1  0.1028026E-006  0.6166463E+03  0.7818608E-02  0.9871460E-01
         -2   -1    0    0    0  501 -0.00000000000E+00  0.00000000000E+00  0.29760998436E+03  0.29760998436E+03  0.00000000000E+00 0.  1.
          2   -1    0    0  501    0  0.00000000000E+00 -0.00000000000E+00 -0.31942199897E+03  0.31942199897E+03  0.00000000000E+00 0. -1.
         23    2    1    2    0    0 -0.29173766497E+03  0.53995855096E+01 -0.81801636041E+02  0.31914144073E+03  0.10009860561E+03 0.  0.
         11    1    3    3    0    0 -0.19818265142E+03  0.38334054486E+02 -0.21335496594E+02  0.20298045835E+03  0.00000000000E+00 0. -1.
        -11    1    3    3    0    0 -0.93555013550E+02 -0.32934468977E+02 -0.60466139447E+02  0.11616098238E+03  0.00000000000E+00 0.  1.
         22    1    1    2    0    0  0.29173766497E+03 -0.53995855096E+01  0.59989621437E+02  0.29789054260E+03  0.00000000000E+00 0.  1.
<mgrwt>
<rscale>  0 0.61664634E+03</rscale>
<asrwt>0</asrwt>
<pdfrwt beam="1">  1        2 0.49141846E-01 0.61664634E+03</pdfrwt>
<pdfrwt beam="2">  1       -2 0.45786152E-01 0.61664634E+03</pdfrwt>
<totfact> 0.46702920E+02</totfact>
</mgrwt>
</event>
<event>
 6    1  0.1028026E-006  0.3242566E+04  0.7818608E-02  0.8177665E-01
          2   -1    0    0  501    0  0.00000000000E+00  0.00000000000E+00  0.22713697589E+04  0.22713697589E+04  0.00000000000E+00 0. -1.
         -2   -1    0    0    0  501 -0.00000000000E+00 -0.00000000000E+00 -0.11572572497E+04  0.11572572497E+04  0.00000000000E+00 0.  1.
         23    2    1    2    0    0 -0.93345402565E+03 -0.19477859338E+03  0.19424482785E+04  0.21655295203E+04  0.84484731437E+02 0.  0.
         11    1    3    3    0    0 -0.34616307227E+03 -0.11022061656E+03  0.77701253774E+03  0.85774468271E+03  0.00000000000E+00 0. -1.
        -11    1    3    3    0    0 -0.58729095338E+03 -0.84557976822E+02  0.11654357408E+04  0.13077848375E+04  0.00000000000E+00 0.  1.
         22    1    1    2    0    0  0.93345402565E+03  0.19477859338E+03 -0.82833576928E+03  0.12630974884E+04  0.00000000000E+00 0.  1.
<mgrwt>
<rscale>  0 0.32425663E+04</rscale>
<asrwt>0</asrwt>
<pdfrwt beam="1">  1        2 0.34944150E+00 0.32425663E+04</pdfrwt>
<pdfrwt beam="2">  1       -2 0.17803958E+00 0.32425663E+04</pdfrwt>
<totfact> 0.73884093E-01</totfact>
</mgrwt>
</event>
<event>
 6    1  0.1028026E-006  0.3115920E+04  0.7818608E-02  0.8211382E-01
         -1   -1    0    0    0  501 -0.00000000000E+00  0.00000000000E+00  0.10253977685E+04  0.10253977685E+04  0.00000000000E+00 0.  1.
          1   -1    0    0  501    0  0.00000000000E+00 -0.00000000000E+00 -0.23671203106E+04  0.23671203106E+04  0.00000000000E+00 0. -1.
         23    2    1    2    0    0 -0.72554363457E+03 -0.94753991140E+03  0.41711948648E+03  0.12670132612E+04  0.84193162881E+02 0.  0.
         13    1    3    3    0    0 -0.28541212856E+03 -0.40050515474E+03  0.13189098295E+03  0.50917550362E+03  0.00000000000E+00 0. -1.
        -13    1    3    3    0    0 -0.44013150601E+03 -0.54703475666E+03  0.28522850354E+03  0.75783775757E+03  0.00000000000E+00 0.  1.
         22    1    1    2    0    0  0.72554363457E+03  0.94753991140E+03 -0.17588420286E+04  0.21255048179E+04  0.00000000000E+00 0. -1.
<mgrwt>
<rscale>  0 0.31159203E+04</rscale>
<asrwt>0</asrwt>
<pdfrwt beam="1">  1        1 0.36417235E+00 0.31159203E+04</pdfrwt>
<pdfrwt beam="2">  1       -1 0.15775350E+00 0.31159203E+04</pdfrwt>
<totfact> 0.42863278E-01</totfact>
</mgrwt>
</event>
<event>
 6    1  0.1028026E-006  0.2656470E+04  0.7818608E-02  0.8349269E-01
         -2   -1    0    0    0  501 -0.00000000000E+00  0.00000000000E+00  0.11188413009E+04  0.11188413009E+04  0.00000000000E+00 0.  1.
          2   -1    0    0  501    0  0.00000000000E+00 -0.00000000000E+00 -0.15768177162E+04  0.15768177162E+04  0.00000000000E+00 0. -1.
         23    2    1    2    0    0 -0.73789757641E+02 -0.12538391110E+04 -0.66266537261E+03  0.14230809197E+04  0.92067710517E+02 0.  0.
         11    1    3    3    0    0 -0.17761517688E+02 -0.88101097726E+03 -0.43570839882E+03  0.98302473131E+03  0.00000000000E+00 0.  1.
        -11    1    3    3    0    0 -0.56028239953E+02 -0.37282813378E+03 -0.22695697379E+03  0.44005618842E+03  0.00000000000E+00 0. -1.
         22    1    1    2    0    0  0.73789757641E+02  0.12538391110E+04  0.20468895737E+03  0.12725780974E+04  0.00000000000E+00 0.  1.
<mgrwt>
<rscale>  0 0.26564704E+04</rscale>
<asrwt>0</asrwt>
<pdfrwt beam="1">  1        2 0.24258734E+00 0.26564704E+04</pdfrwt>
<pdfrwt beam="2">  1       -2 0.17212943E+00 0.26564704E+04</pdfrwt>
<totfact> 0.20828596E+00</totfact>
</mgrwt>
</event>
<event>
 6    1  0.1028026E-006  0.4110260E+04  0.7818608E-02  0.7982666E-01
         -2   -1    0    0    0  501 -0.00000000000E+00  0.00000000000E+00  0.83590397281E+03  0.83590397281E+03  0.00000000000E+00 0.  1.
          2   -1    0    0  501    0  0.00000000000E+00 -0.00000000000E+00 -0.50526844253E+04  0.50526844253E+04  0.00000000000E+00 0. -1.
         23    2    1    2    0    0  0.53278714652E+03 -0.23211950389E+03 -0.49320469497E+04  0.49669877419E+04  0.90213674553E+02 0.  0.
         11    1    3    3    0    0  0.57516535431E+02 -0.58639687092E+02 -0.70785376773E+03  0.71260348108E+03  0.00000000000E+00 0. -1.
        -11    1    3    3    0    0  0.47527061109E+03 -0.17347981680E+03 -0.42241931820E+04  0.42543842609E+04  0.00000000000E+00 0.  1.
         22    1    1    2    0    0 -0.53278714652E+03  0.23211950389E+03  0.71526649715E+03  0.92160065621E+03  0.00000000000E+00 0.  1.
<mgrwt>
<rscale>  0 0.41102598E+04</rscale>
<asrwt>0</asrwt>
<pdfrwt beam="1">  1        2 0.77733608E+00 0.41102598E+04</pdfrwt>
<pdfrwt beam="2">  1       -2 0.12860061E+00 0.41102598E+04</pdfrwt>
<totfact> 0.10116621E-02</totfact>
</mgrwt>
</event>
<event>
 6    1  0.1028026E-006  0.3187184E+04  0.7818608E-02  0.8192210E-01
          2   -1    0    0  501    0  0.00000000000E+00  0.00000000000E+00  0.32582934842E+04  0.32582934842E+04  0.00000000000E+00 0. -1.
         -2   -1    0    0    0  501 -0.00000000000E+00 -0.00000000000E+00 -0.77940640889E+03  0.77940640889E+03  0.00000000000E+00 0.  1.
         23    2    1    2    0    0 -0.59677479077E+03  0.32053436915E+03 -0.58513553094E+03  0.89968826719E+03  0.90404401677E+02 0.  0.
         11    1    3    3    0    0 -0.47970329266E+03  0.21497284776E+03 -0.44331801699E+03  0.68764775754E+03  0.00000000000E+00 0.  1.
        -11    1    3    3    0    0 -0.11707149811E+03  0.10556152140E+03 -0.14181751395E+03  0.21204050965E+03  0.00000000000E+00 0. -1.
         22    1    1    2    0    0  0.59677479077E+03 -0.32053436915E+03  0.30640226063E+04  0.31380116259E+04  0.00000000000E+00 0. -1.
<mgrwt>
<rscale>  0 0.31871836E+04</rscale>
<asrwt>0</asrwt>
<pdfrwt beam="1">  1        2 0.50127591E+00 0.31871836E+04</pdfrwt>
<pdfrwt beam="2">  1       -2 0.11990868E+00 0.31871836E+04</pdfrwt>
<totfact> 0.53190688E-01</totfact>
</mgrwt>
</event>
<event>
 6    1  0.1028026E-006  0.3426031E+04  0.7818608E-02  0.8131547E-01
          2   -1    0    0  501    0  0.00000000000E+00  0.00000000000E+00  0.10897051120E+04  0.10897051120E+04  0.00000000000E+00 0. -1.
         -2   -1    0    0    0  501 -0.00000000000E+00 -0.00000000000E+00 -0.26928582536E+04  0.26928582536E+04  0.00000000000E+00 0.  1.
         23    2    1    2    0    0 -0.10374696708E+04  0.11000746870E+04 -0.16880024174E+04  0.22680644272E+04  0.90865010032E+02 0.  0.
         11    1    3    3    0    0 -0.50643132498E+03  0.59014164607E+03 -0.90759334107E+03  0.11951843047E+04  0.00000000000E+00 0.  1.
        -11    1    3    3    0    0 -0.53103834579E+03  0.50993304096E+03 -0.78040907628E+03  0.10728801225E+04  0.00000000000E+00 0. -1.
         22    1    1    2    0    0  0.10374696708E+04 -0.11000746870E+04  0.84849275669E+02  0.15144989384E+04  0.00000000000E+00 0. -1.
<mgrwt>
<rscale>  0 0.34260306E+04</rscale>
<asrwt>0</asrwt>
<pdfrwt beam="1">  1        2 0.16764694E+00 0.34260306E+04</pdfrwt>
<pdfrwt beam="2">  1       -2 0.41428588E+00 0.34260306E+04</pdfrwt>
<totfact> 0.10919013E-01</totfact>
</mgrwt>
</event>
<event>
 6    1  0.1028026E-006  0.2542634E+04  0.7818608E-02  0.8387952E-01
         -2   -1    0    0    0  501 -0.00000000000E+00  0.00000000000E+00  0.17831678061E+04  0.17831678061E+04  0.00000000000E+00 0.  1.
          2   -1    0    0  501    0  0.00000000000E+00 -0.00000000000E+00 -0.90639103135E+03  0.90639103135E+03  0.00000000000E+00 0. -1.
         23    2    1    2    0    0 -0.83222756319E+03  0.10754708453E+03  0.14467233429E+04  0.16751584319E+04  0.94753621181E+02 0.  0.
         11    1    3    3    0    0 -0.34509503970E+03  0.41755880920E+02  0.50840392596E+03  0.61588042017E+03  0.00000000000E+00 0. -1.
        -11    1    3    3    0    0 -0.48713252349E+03  0.65791203609E+02  0.93831941695E+03  0.10592780117E+04  0.00000000000E+00 0.  1.
         22    1    1    2    0    0  0.83222756319E+03 -0.10754708453E+03 -0.56994656813E+03  0.10144004056E+04  0.00000000000E+00 0. -1.
<mgrwt>
<rscale>  0 0.25426343E+04</rscale>
<asrwt>0</asrwt>
<pdfrwt beam="1">  1        2 0.13944477E+00 0.25426343E+04</pdfrwt>
<pdfrwt beam="2">  1       -2 0.27433351E+00 0.25426343E+04</pdfrwt>
<totfact> 0.11765821E+00</totfact>
</mgrwt>
</event>
<event>
 6    1  0.1028026E-006  0.3887338E+04  0.7818608E-02  0.8027668E-01
         -2   -1    0    0    0  501 -0.00000000000E+00  0.00000000000E+00  0.16424739815E+04  0.16424739815E+04  0.00000000000E+00 0.  1.
          2   -1    0    0  501    0  0.00000000000E+00 -0.00000000000E+00 -0.23000963484E+04  0.23000963484E+04  0.00000000000E+00 0. -1.
         23    2    1    2    0    0  0.19417755617E+04  0.49752611925E+02 -0.30112488577E+03  0.19677138519E+04  0.90851262522E+02 0.  0.
         13    1    3    3    0    0  0.12255150312E+04  0.53571252245E+02 -0.22831718421E+03  0.12477522620E+04  0.00000000000E+00 0.  1.
        -13    1    3    3    0    0  0.71626053048E+03 -0.38186403197E+01 -0.72807701556E+02  0.71996158990E+03  0.00000000000E+00 0. -1.
         22    1    1    2    0    0 -0.19417755617E+04 -0.49752611925E+02 -0.35649748112E+03  0.19748564779E+04  0.00000000000E+00 0.  1.
<mgrwt>
<rscale>  0 0.38873376E+04</rscale>
<asrwt>0</asrwt>
<pdfrwt beam="1">  1        2 0.35386098E+00 0.38873376E+04</pdfrwt>
<pdfrwt beam="2">  1       -2 0.25268830E+00 0.38873376E+04</pdfrwt>
<totfact> 0.22325565E-01</totfact>
</mgrwt>
</event>
<event>
 6    1  0.1028026E-006  0.9784294E+03  0.7818608E-02  0.9332525E-01
         -1   -1    0    0    0  501 -0.00000000000E+00  0.00000000000E+00  0.13795721274E+03  0.13795721274E+03  0.00000000000E+00 0.  1.
          1   -1    0    0  501    0  0.00000000000E+00 -0.00000000000E+00 -0.17348206528E+04  0.17348206528E+04  0.00000000000E+00 0. -1.
         23    2    1    2    0    0 -0.32931662994E+03  0.15306200129E+02 -0.14862000527E+04  0.15250278004E+04  0.90749505146E+02 0.  0.
         13    1    3    3    0    0 -0.26506957045E+02  0.28242691401E+02 -0.15623721196E+03  0.16096687482E+03  0.00000000000E+00 0. -1.
        -13    1    3    3    0    0 -0.30280967289E+03 -0.12936491272E+02 -0.13299628408E+04  0.13640609256E+04  0.00000000000E+00 0.  1.
         22    1    1    2    0    0  0.32931662994E+03 -0.15306200129E+02 -0.11066338731E+03  0.34775006514E+03  0.00000000000E+00 0.  1.
<mgrwt>
<rscale>  0 0.97842940E+03</rscale>
<asrwt>0</asrwt>
<pdfrwt beam="1">  1        1 0.26689547E+00 0.97842940E+03</pdfrwt>
<pdfrwt beam="2">  1       -1 0.21224187E-01 0.97842940E+03</pdfrwt>
<totfact> 0.84020255E+01</totfact>
</mgrwt>
</event>
<event>
 6    1  0.1028026E-006  0.2456279E+04  0.7818608E-02  0.8418729E-01
          2   -1    0    0  501    0  0.00000000000E+00  0.00000000000E+00  0.11023916549E+04  0.11023916549E+04  0.00000000000E+00 0. -1.
         -2   -1    0    0    0  501 -0.00000000000E+00 -0.00000000000E+00 -0.13682314177E+04  0.13682314177E+04  0.00000000000E+00 0.  1.
         23    2    1    2    0    0 -0.85460504578E+02  0.53413593191E+03 -0.12402609094E+04  0.13561271047E+04  0.90713334659E+02 0.  0.
         11    1    3    3    0    0 -0.16462564769E+02  0.13560261465E+02 -0.75645972561E+02  0.78595228192E+02  0.00000000000E+00 0. -1.
        -11    1    3    3    0    0 -0.68997939809E+02  0.52057567045E+03 -0.11646149368E+04  0.12775318765E+04  0.00000000000E+00 0.  1.
         22    1    1    2    0    0  0.85460504578E+02 -0.53413593191E+03  0.97442114657E+03  0.11144959679E+04  0.00000000000E+00 0. -1.
<mgrwt>
<rscale>  0 0.24562792E+04</rscale>
<asrwt>0</asrwt>
<pdfrwt beam="1">  1        2 0.16959872E+00 0.24562792E+04</pdfrwt>
<pdfrwt beam="2">  1       -2 0.21049714E+00 0.24562792E+04</pdfrwt>
<totfact> 0.22088143E+00</totfact>
</mgrwt>
</event>
<event>
 6    1  0.1028026E-006  0.1934546E+04  0.7818608E-02  0.8637849E-01
          1   -1    0    0  501    0  0.00000000000E+00  0.00000000000E+00  0.19064203790E+04  0.19064203790E+04  0.00000000000E+00 0. -1.
         -1   -1    0    0    0  501 -0.00000000000E+00 -0.00000000000E+00 -0.49077149569E+03  0.49077149569E+03  0.00000000000E+00 0.  1.
         23    2    1    2    0    0 -0.49558650676E+03  0.56899060792E+03 -0.36428758272E+02  0.76076718203E+03  0.89907470367E+02 0.  0.
         13    1    3    3    0    0 -0.36604655747E+02  0.14118544144E+02 -0.83844138244E+01  0.40118979377E+02  0.00000000000E+00 0. -1.
        -13    1    3    3    0    0 -0.45898185102E+03  0.55487206378E+03 -0.28044344448E+02  0.72064820265E+03  0.00000000000E+00 0.  1.
         22    1    1    2    0    0  0.49558650676E+03 -0.56899060792E+03  0.14520776416E+04  0.16364246927E+04  0.00000000000E+00 0. -1.
<mgrwt>
<rscale>  0 0.19345457E+04</rscale>
<asrwt>0</asrwt>
<pdfrwt beam="1">  1        1 0.29329544E+00 0.19345457E+04</pdfrwt>
<pdfrwt beam="2">  1       -1 0.75503308E-01 0.19345457E+04</pdfrwt>
<totfact> 0.56725075E+00</totfact>
</mgrwt>
</event>
<event>
 6    1  0.1028026E-006  0.2211772E+04  0.7818608E-02  0.8513544E-01
          2   -1    0    0  501    0  0.00000000000E+00  0.00000000000E+00  0.11335984727E+04  0.11335984727E+04  0.00000000000E+00 0. -1.
         -2   -1    0    0    0  501 -0.00000000000E+00 -0.00000000000E+00 -0.10788508981E+04  0.10788508981E+04  0.00000000000E+00 0.  1.
         23    2    1    2    0    0  0.45579746773E+03  0.58795840819E+03 -0.78858661528E+03  0.10878787961E+04  0.90360411539E+02 0.  0.
         13    1    3    3    0    0  0.24222291423E+03  0.24799550052E+03 -0.33401264942E+03  0.48139189693E+03  0.00000000000E+00 0.  1.
        -13    1    3    3    0    0  0.21357455349E+03  0.33996290766E+03 -0.45457396586E+03  0.60648689922E+03  0.00000000000E+00 0. -1.
         22    1    1    2    0    0 -0.45579746773E+03 -0.58795840819E+03  0.84333418988E+03  0.11245705746E+04  0.00000000000E+00 0. -1.
<mgrwt>
<rscale>  0 0.22117719E+04</rscale>
<asrwt>0</asrwt>
<pdfrwt beam="1">  1        2 0.17439977E+00 0.22117719E+04</pdfrwt>
<pdfrwt beam="2">  1       -2 0.16597706E+00 0.22117719E+04</pdfrwt>
<totfact> 0.43210329E+00</totfact>
</mgrwt>
</event>
<event>
 6    1  0.1028026E-006  0.1520075E+04  0.7818608E-02  0.8871212E-01
         -2   -1    0    0    0  501 -0.00000000000E+00  0.00000000000E+00  0.48120083366E+03  0.48120083366E+03  0.00000000000E+00 0.  1.
          2   -1    0    0  501    0  0.00000000000E+00 -0.00000000000E+00 -0.12004490860E+04  0.12004490860E+04  0.00000000000E+00 0. -1.
         23    2    1    2    0    0 -0.53404540370E+03 -0.66338154068E+02  0.22860165936E+03  0.59168446194E+03  0.90700275331E+02 0.  0.
         13    1    3    3    0    0 -0.12283810571E+03  0.24049762253E+01  0.90132439716E+02  0.15237729757E+03  0.00000000000E+00 0.  1.
        -13    1    3    3    0    0 -0.41120729799E+03 -0.68743130293E+02  0.13846921965E+03  0.43930716438E+03  0.00000000000E+00 0. -1.
         22    1    1    2    0    0  0.53404540370E+03  0.66338154068E+02 -0.94784991171E+03  0.10899654577E+04  0.00000000000E+00 0. -1.
<mgrwt>
<rscale>  0 0.15200751E+04</rscale>
<asrwt>0</asrwt>
<pdfrwt beam="1">  1        2 0.18468447E+00 0.15200751E+04</pdfrwt>
<pdfrwt beam="2">  1       -2 0.74030898E-01 0.15200751E+04</pdfrwt>
<totfact> 0.30016416E+01</totfact>
</mgrwt>
</event>
<event>
 6    1  0.1028026E-006  0.2322367E+04  0.7818608E-02  0.8469154E-01
          2   -1    0    0  501    0  0.00000000000E+00  0.00000000000E+00  0.38109702044E+04  0.38109702044E+04  0.00000000000E+00 0. -1.
         -2   -1    0    0    0  501 -0.00000000000E+00 -0.00000000000E+00 -0.35380682995E+03  0.35380682995E+03  0.00000000000E+00 0.  1.
         23    2    1    2    0    0  0.23921739413E+03 -0.11220157506E+04  0.14299941702E+04  0.18354940355E+04  0.89502632509E+02 0.  0.
         13    1    3    3    0    0  0.21161628196E+03 -0.80290794255E+03  0.10214010384E+04  0.13163216538E+04  0.00000000000E+00 0. -1.
        -13    1    3    3    0    0  0.27601112164E+02 -0.31910780803E+03  0.40859313177E+03  0.51917238165E+03  0.00000000000E+00 0.  1.
         22    1    1    2    0    0 -0.23921739413E+03  0.11220157506E+04  0.20271692043E+04  0.23292829989E+04  0.00000000000E+00 0. -1.
<mgrwt>
<rscale>  0 0.23223671E+04</rscale>
<asrwt>0</asrwt>
<pdfrwt beam="1">  1        2 0.58630308E+00 0.23223671E+04</pdfrwt>
<pdfrwt beam="2">  1       -2 0.54431823E-01 0.23223671E+04</pdfrwt>
<totfact> 0.13909038E+00</totfact>
</mgrwt>
</event>
<event>
 6    1  0.1028026E-006  0.2091338E+04  0.7818608E-02  0.8565069E-01
         -1   -1    0    0    0  501 -0.00000000000E+00  0.00000000000E+00  0.62439422803E+03  0.62439422803E+03  0.00000000000E+00 0.  1.
          1   -1    0    0  501    0  0.00000000000E+00 -0.00000000000E+00 -0.17511746664E+04  0.17511746664E+04  0.00000000000E+00 0. -1.
         23    2    1    2    0    0  0.29565929957E+03 -0.88582276531E+03 -0.10939016623E+04  0.14411292726E+04  0.90201666383E+02 0.  0.
         13    1    3    3    0    0  0.15841881421E+03 -0.38114330592E+03 -0.43121595538E+03  0.59692038038E+03  0.00000000000E+00 0.  1.
        -13    1    3    3    0    0  0.13724048536E+03 -0.50467945939E+03 -0.66268570693E+03  0.84420889223E+03  0.00000000000E+00 0. -1.
         22    1    1    2    0    0 -0.29565929957E+03  0.88582276531E+03 -0.32878776089E+02  0.93443962185E+03  0.00000000000E+00 0.  1.
<mgrwt>
<rscale>  0 0.20913377E+04</rscale>
<asrwt>0</asrwt>
<pdfrwt beam="1">  1        1 0.26941148E+00 0.20913377E+04</pdfrwt>
<pdfrwt beam="2">  1       -1 0.96060651E-01 0.20913377E+04</pdfrwt>
<totfact> 0.42266089E+00</totfact>
</mgrwt>
</event>
<event>
 6    1  0.1028026E-006  0.7365246E+03  0.7818608E-02  0.9656731E-01
         -1   -1    0    0    0  501 -0.00000000000E+00  0.00000000000E+00  0.21603522754E+03  0.21603522754E+03  0.00000000000E+00 0.  1.
          1   -1    0    0  501    0  0.00000000000E+00 -0.00000000000E+00 -0.62775472744E+03  0.62775472744E+03  0.00000000000E+00 0. -1.
         23    2    1    2    0    0 -0.78310435924E+02  0.29148682954E+03  0.21157631532E+02  0.31607818981E+03  0.91436756993E+02 0.  0.
         13    1    3    3    0    0 -0.53745341355E+02  0.22567695944E+03  0.54526334704E+02  0.23831024509E+03  0.00000000000E+00 0. -1.
        -13    1    3    3    0    0 -0.24565094568E+02  0.65809870102E+02 -0.33368703172E+02  0.77767944716E+02  0.00000000000E+00 0.  1.
         22    1    1    2    0    0  0.78310435924E+02 -0.29148682954E+03 -0.43287713144E+03  0.52771176517E+03  0.00000000000E+00 0. -1.
<mgrwt>
<rscale>  0 0.73652464E+03</rscale>
<asrwt>0</asrwt>
<pdfrwt beam="1">  1        1 0.96577650E-01 0.73652464E+03</pdfrwt>
<pdfrwt beam="2">  1       -1 0.33236189E-01 0.73652464E+03</pdfrwt>
<totfact> 0.27601506E+02</totfact>
</mgrwt>
</event>
<event>
 6    1  0.1028026E-006  0.5954531E+03  0.7818608E-02  0.9914884E-01
         -2   -1    0    0    0  501 -0.00000000000E+00  0.00000000000E+00  0.10922788643E+03  0.10922788643E+03  0.00000000000E+00 0.  1.
          2   -1    0    0  501    0  0.00000000000E+00 -0.00000000000E+00 -0.81152455351E+03  0.81152455351E+03  0.00000000000E+00 0. -1.
         23    2    1    2    0    0 -0.19093585718E+03 -0.77594651458E+02 -0.67596459935E+03  0.71297657685E+03  0.94498825788E+02 0.  0.
         11    1    3    3    0    0 -0.81118234796E+02  0.47479301447E+01 -0.34967250103E+03  0.35898965003E+03  0.00000000000E+00 0. -1.
        -11    1    3    3    0    0 -0.10981762238E+03 -0.82342581602E+02 -0.32629209832E+03  0.35398692682E+03  0.00000000000E+00 0.  1.
         22    1    1    2    0    0  0.19093585718E+03  0.77594651458E+02 -0.26332067731E+02  0.20777586309E+03  0.00000000000E+00 0.  1.
<mgrwt>
<rscale>  0 0.59545314E+03</rscale>
<asrwt>0</asrwt>
<pdfrwt beam="1">  1        2 0.12484994E+00 0.59545314E+03</pdfrwt>
<pdfrwt beam="2">  1       -2 0.16804290E-01 0.59545314E+03</pdfrwt>
<totfact> 0.98089505E+02</totfact>
</mgrwt>
</event>
<event>
 6    1  0.1028026E-006  0.2299639E+04  0.7818608E-02  0.8478064E-01
          1   -1    0    0  501    0  0.00000000000E+00  0.00000000000E+00  0.12647763021E+04  0.12647763021E+04  0.00000000000E+00 0. -1.
         -1   -1    0    0    0  501 -0.00000000000E+00 -0.00000000000E+00 -0.10453110074E+04  0.10453110074E+04  0.00000000000E+00 0.  1.
         23    2    1    2    0    0  0.53543647589E+03 -0.88445027128E+03 -0.39121999699E+03  0.11093038037E+04  0.92505896406E+02 0.  0.
         13    1    3    3    0    0  0.35399519587E+03 -0.66216947937E+03 -0.27228101973E+03  0.79869767235E+03  0.00000000000E+00 0. -1.
        -13    1    3    3    0    0  0.18144128003E+03 -0.22228079191E+03 -0.11893897726E+03  0.31060613140E+03  0.00000000000E+00 0.  1.
         22    1    1    2    0    0 -0.53543647589E+03  0.88445027128E+03  0.61068529173E+03  0.12007835057E+04  0.00000000000E+00 0. -1.
<mgrwt>
<rscale>  0 0.22996387E+04</rscale>
<asrwt>0</asrwt>
<pdfrwt beam="1">  1        1 0.19458097E+00 0.22996387E+04</pdfrwt>
<pdfrwt beam="2">  1       -1 0.16081708E+00 0.22996387E+04</pdfrwt>
<totfact> 0.24971880E+00</totfact>
</mgrwt>
</event>
<event>
 6    1  0.1028026E-006  0.5489173E+03  0.7818608E-02  0.1001745E+00
          1   -1    0    0  501    0  0.00000000000E+00  0.00000000000E+00  0.10693068878E+04  0.10693068878E+04  0.00000000000E+00 0. -1.
         -1   -1    0    0    0  501 -0.00000000000E+00 -0.00000000000E+00 -0.70445218040E+02  0.70445218040E+02  0.00000000000E+00 0.  1.
         23    2    1    2    0    0 -0.16929337770E+03 -0.10444026927E+03  0.14279173055E+03  0.26087568768E+03  0.89992380408E+02 0.  0.
         11    1    3    3    0    0 -0.97850958667E+01 -0.44367419264E+02  0.15005018790E+02  0.47847325758E+02  0.00000000000E+00 0. -1.
        -11    1    3    3    0    0 -0.15950828183E+03 -0.60072850001E+02  0.12778671176E+03  0.21302836192E+03  0.00000000000E+00 0.  1.
         22    1    1    2    0    0  0.16929337770E+03  0.10444026927E+03  0.85606993918E+03  0.87887641813E+03  0.00000000000E+00 0. -1.
<mgrwt>
<rscale>  0 0.54891732E+03</rscale>
<asrwt>0</asrwt>
<pdfrwt beam="1">  1        1 0.16450874E+00 0.54891732E+03</pdfrwt>
<pdfrwt beam="2">  1       -1 0.10837727E-01 0.54891732E+03</pdfrwt>
<totfact> 0.75499623E+02</totfact>
</mgrwt>
</event>
<event>
 6    1  0.1028026E-006  0.8639483E+03  0.7818608E-02  0.9471805E-01
         -2   -1    0    0    0  501 -0.00000000000E+00  0.00000000000E+00  0.86571923233E+02  0.86571923233E+02  0.00000000000E+00 0.  1.
          2   -1    0    0  501    0  0.00000000000E+00 -0.00000000000E+00 -0.21554523061E+04  0.21554523061E+04  0.00000000000E+00 0. -1.
         23    2    1    2    0    0 -0.34697780459E+03 -0.23668214231E+03 -0.12596643989E+04  0.13302991929E+04  0.80805392072E+02 0.  0.
         13    1    3    3    0    0 -0.24775614201E+03 -0.15618801368E+03 -0.75783068258E+03  0.81245624188E+03  0.00000000000E+00 0.  1.
        -13    1    3    3    0    0 -0.99221662573E+02 -0.80494128631E+02 -0.50183371637E+03  0.51784295105E+03  0.00000000000E+00 0. -1.
         22    1    1    2    0    0  0.34697780459E+03  0.23668214231E+03 -0.80921598390E+03  0.91172503638E+03  0.00000000000E+00 0.  1.
<mgrwt>
<rscale>  0 0.86394827E+03</rscale>
<asrwt>0</asrwt>
<pdfrwt beam="1">  1        2 0.33160801E+00 0.86394827E+03</pdfrwt>
<pdfrwt beam="2">  1       -2 0.13318759E-01 0.86394827E+03</pdfrwt>
<totfact> 0.23830503E+02</totfact>
</mgrwt>
</event>
<event>
 6    1  0.1028026E-006  0.4741798E+04  0.7818608E-02  0.7869621E-01
          2   -1    0    0  501    0  0.00000000000E+00  0.00000000000E+00  0.24989937323E+04  0.24989937323E+04  0.00000000000E+00 0. -1.
         -2   -1    0    0    0  501 -0.00000000000E+00 -0.00000000000E+00 -0.22493698267E+04  0.22493698267E+04  0.00000000000E+00 0.  1.
         23    2    1    2    0    0  0.18327479641E+04 -0.28120264184E+03  0.16030275468E+04  0.24527718180E+04  0.91390644430E+02 0.  0.
         11    1    3    3    0    0  0.96727142517E+03 -0.17176609155E+03  0.79699919277E+03  0.12650396490E+04  0.00000000000E+00 0. -1.
        -11    1    3    3    0    0  0.86547653891E+03 -0.10943655029E+03  0.80602835403E+03  0.11877321691E+04  0.00000000000E+00 0.  1.
         22    1    1    2    0    0 -0.18327479641E+04  0.28120264184E+03 -0.13534036412E+04  0.22955917410E+04  0.00000000000E+00 0.  1.
<mgrwt>
<rscale>  0 0.47417976E+04</rscale>
<asrwt>0</asrwt>
<pdfrwt beam="1">  1        2 0.38446057E+00 0.47417976E+04</pdfrwt>
<pdfrwt beam="2">  1       -2 0.34605690E+00 0.47417976E+04</pdfrwt>
<totfact> 0.42673175E-02</totfact>
</mgrwt>
</event>
<event>
 6    1  0.1028026E-006  0.1570872E+04  0.7818608E-02  0.8838645E-01
          1   -1    0    0  501    0  0.00000000000E+00  0.00000000000E+00  0.71074092876E+03  0.71074092876E+03  0.00000000000E+00 0. -1.
         -1   -1    0    0    0  501 -0.00000000000E+00 -0.00000000000E+00 -0.86798119934E+03  0.86798119934E+03  0.00000000000E+00 0.  1.
         23    2    1    2    0    0 -0.71424368228E+03  0.20775480159E+03  0.16621214579E+03  0.76759478858E+03  0.90935069045E+02 0.  0.
         11    1    3    3    0    0 -0.27977202981E+03  0.12358324712E+03  0.48657041819E+02  0.30969778066E+03  0.00000000000E+00 0.  1.
        -11    1    3    3    0    0 -0.43447165247E+03  0.84171554474E+02  0.11755510397E+03  0.45789700791E+03  0.00000000000E+00 0. -1.
         22    1    1    2    0    0  0.71424368228E+03 -0.20775480159E+03 -0.32345241638E+03  0.81112733952E+03  0.00000000000E+00 0.  1.
<mgrwt>
<rscale>  0 0.15708721E+04</rscale>
<asrwt>0</asrwt>
<pdfrwt beam="1">  1        1 0.10934476E+00 0.15708721E+04</pdfrwt>
<pdfrwt beam="2">  1       -1 0.13353557E+00 0.15708721E+04</pdfrwt>
<totfact> 0.12129656E+01</totfact>
</mgrwt>
</event>
<event>
 6    1  0.1028026E-006  0.1849334E+04  0.7818608E-02  0.8680496E-01
          4   -1    0    0  501    0  0.00000000000E+00  0.00000000000E+00  0.24140671076E+04  0.24140671076E+04  0.00000000000E+00 0. -1.
         -4   -1    0    0    0  501 -0.00000000000E+00 -0.00000000000E+00 -0.35417772917E+03  0.35417772917E+03  0.00000000000E+00 0.  1.
         23    2    1    2    0    0  0.22824260061E+02  0.78253935128E+03  0.17613525425E+04  0.19303826610E+04  0.10547822483E+03 0.  0.
         11    1    3    3    0    0  0.32320044146E+02  0.19937532194E+03  0.55049994311E+03  0.58638322931E+03  0.00000000000E+00 0.  1.
        -11    1    3    3    0    0 -0.94957840850E+01  0.58316402934E+03  0.12108525994E+04  0.13439994317E+04  0.00000000000E+00 0. -1.
         22    1    1    2    0    0 -0.22824260061E+02 -0.78253935128E+03  0.29853683598E+03  0.83786217577E+03  0.00000000000E+00 0.  1.
<mgrwt>
<rscale>  0 0.18493337E+04</rscale>
<asrwt>0</asrwt>
<pdfrwt beam="1">  1        4 0.37139493E+00 0.18493337E+04</pdfrwt>
<pdfrwt beam="2">  1       -4 0.54488883E-01 0.18493337E+04</pdfrwt>
<totfact> 0.65246471E-02</totfact>
</mgrwt>
</event>
<event>
 6    1  0.1028026E-006  0.7552894E+03  0.7818608E-02  0.9627088E-01
          2   -1    0    0  501    0  0.00000000000E+00  0.00000000000E+00  0.10107686227E+04  0.10107686227E+04  0.00000000000E+00 0. -1.
         -2   -1    0    0    0  501 -0.00000000000E+00 -0.00000000000E+00 -0.14109610814E+03  0.14109610814E+03  0.00000000000E+00 0.  1.
         23    2    1    2    0    0 -0.28560214375E+03  0.11157531815E+03  0.76295422186E+03  0.82720116631E+03  0.90249591430E+02 0.  0.
         11    1    3    3    0    0 -0.16872398861E+03  0.70286191874E+02  0.56315108982E+03  0.59207016735E+03  0.00000000000E+00 0. -1.
        -11    1    3    3    0    0 -0.11687815515E+03  0.41289126276E+02  0.19980313204E+03  0.23513099896E+03  0.00000000000E+00 0.  1.
         22    1    1    2    0    0  0.28560214375E+03 -0.11157531815E+03  0.10671829271E+03  0.32466356453E+03  0.00000000000E+00 0. -1.
<mgrwt>
<rscale>  0 0.75528940E+03</rscale>
<asrwt>0</asrwt>
<pdfrwt beam="1">  1        2 0.15550286E+00 0.75528940E+03</pdfrwt>
<pdfrwt beam="2">  1       -2 0.21707094E-01 0.75528940E+03</pdfrwt>
<totfact> 0.46050629E+02</totfact>
</mgrwt>
</event>
<event>
 6    1  0.1028026E-006  0.2903874E+04  0.7818608E-02  0.8271726E-01
         -1   -1    0    0    0  501 -0.00000000000E+00  0.00000000000E+00  0.18873129155E+04  0.18873129155E+04  0.00000000000E+00 0.  1.
          1   -1    0    0  501    0  0.00000000000E+00 -0.00000000000E+00 -0.11169963961E+04  0.11169963961E+04  0.00000000000E+00 0. -1.
         23    2    1    2    0    0 -0.14204633595E+04 -0.25121032983E+03  0.22800732221E+03  0.14632311011E+04  0.90747622367E+02 0.  0.
         13    1    3    3    0    0 -0.36094058829E+03 -0.60532385281E+02  0.97932271094E+02  0.37885750311E+03  0.00000000000E+00 0. -1.
        -13    1    3    3    0    0 -0.10595227712E+04 -0.19067794454E+03  0.13007505111E+03  0.10843735980E+04  0.00000000000E+00 0.  1.
         22    1    1    2    0    0  0.14204633595E+04  0.25121032983E+03  0.54230919723E+03  0.15410782105E+04  0.00000000000E+00 0.  1.
<mgrwt>
<rscale>  0 0.29038745E+04</rscale>
<asrwt>0</asrwt>
<pdfrwt beam="1">  1        1 0.17184560E+00 0.29038745E+04</pdfrwt>
<pdfrwt beam="2">  1       -1 0.29035583E+00 0.29038745E+04</pdfrwt>
<totfact> 0.40283997E-01</totfact>
</mgrwt>
</event>
<event>
 6    1  0.1028026E-006  0.2840358E+04  0.7818608E-02  0.8290847E-01
         -2   -1    0    0    0  501 -0.00000000000E+00  0.00000000000E+00  0.11681682763E+04  0.11681682763E+04  0.00000000000E+00 0.  1.
          2   -1    0    0  501    0  0.00000000000E+00 -0.00000000000E+00 -0.17265566730E+04  0.17265566730E+04  0.00000000000E+00 0. -1.
         23    2    1    2    0    0 -0.18924627070E+03 -0.22888200654E+03 -0.16932504486E+04  0.17216465203E+04  0.93640457760E+02 0.  0.
         13    1    3    3    0    0 -0.16511967313E+03 -0.23419626263E+03 -0.15722726513E+04  0.15981719826E+04  0.00000000000E+00 0.  1.
        -13    1    3    3    0    0 -0.24126597571E+02  0.53142560921E+01 -0.12097779726E+03  0.12347453769E+03  0.00000000000E+00 0. -1.
         22    1    1    2    0    0  0.18924627070E+03  0.22888200654E+03  0.11348620518E+04  0.11730784290E+04  0.00000000000E+00 0.  1.
<mgrwt>
<rscale>  0 0.28403582E+04</rscale>
<asrwt>0</asrwt>
<pdfrwt beam="1">  1        2 0.26562410E+00 0.28403582E+04</pdfrwt>
<pdfrwt beam="2">  1       -2 0.17971820E+00 0.28403582E+04</pdfrwt>
<totfact> 0.14975974E+00</totfact>
</mgrwt>
</event>
<event>
 6    1  0.1028026E-006  0.4850831E+04  0.7818608E-02  0.7851939E-01
         -2   -1    0    0    0  501 -0.00000000000E+00  0.00000000000E+00  0.20753872025E+04  0.20753872025E+04  0.00000000000E+00 0.  1.
          2   -1    0    0  501    0  0.00000000000E+00 -0.00000000000E+00 -0.28344790379E+04  0.28344790379E+04  0.00000000000E+00 0. -1.
         23    2    1    2    0    0  0.92381865761E+03  0.21451614362E+04 -0.10382405343E+04  0.25576157232E+04  0.91083924161E+02 0.  0.
         11    1    3    3    0    0  0.55354915993E+03  0.12200278980E+04 -0.63568705204E+03  0.14828967504E+04  0.00000000000E+00 0. -1.
        -11    1    3    3    0    0  0.37026949767E+03  0.92513353824E+03 -0.40255348224E+03  0.10747189728E+04  0.00000000000E+00 0.  1.
         22    1    1    2    0    0 -0.92381865761E+03 -0.21451614362E+04  0.27914869893E+03  0.23522505172E+04  0.00000000000E+00 0. -1.
<mgrwt>
<rscale>  0 0.48508315E+04</rscale>
<asrwt>0</asrwt>
<pdfrwt beam="1">  1        2 0.43607369E+00 0.48508315E+04</pdfrwt>
<pdfrwt beam="2">  1       -2 0.31929034E+00 0.48508315E+04</pdfrwt>
<totfact> 0.39254772E-02</totfact>
</mgrwt>
</event>
<event>
 6    1  0.1028026E-006  0.3028323E+04  0.7818608E-02  0.8235689E-01
          1   -1    0    0  501    0  0.00000000000E+00  0.00000000000E+00  0.16784419734E+04  0.16784419734E+04  0.00000000000E+00 0. -1.
         -1   -1    0    0    0  501 -0.00000000000E+00 -0.00000000000E+00 -0.13659603533E+04  0.13659603533E+04  0.00000000000E+00 0.  1.
         23    2    1    2    0    0  0.36717756207E+03 -0.64361894370E+03  0.14822487211E+04  0.16596930512E+04  0.91951325186E+02 0.  0.
         13    1    3    3    0    0  0.27215781444E+03 -0.46979597976E+03  0.11711006632E+04  0.12908349631E+04  0.00000000000E+00 0. -1.
        -13    1    3    3    0    0  0.95019747624E+02 -0.17382296394E+03  0.31114805789E+03  0.36885808810E+03  0.00000000000E+00 0.  1.
         22    1    1    2    0    0 -0.36717756207E+03  0.64361894370E+03 -0.11697671010E+04  0.13847092754E+04  0.00000000000E+00 0.  1.
<mgrwt>
<rscale>  0 0.30283231E+04</rscale>
<asrwt>0</asrwt>
<pdfrwt beam="1">  1        1 0.25822184E+00 0.30283231E+04</pdfrwt>
<pdfrwt beam="2">  1       -1 0.21014775E+00 0.30283231E+04</pdfrwt>
<totfact> 0.53693249E-01</totfact>
</mgrwt>
</event>
<event>
 6    1  0.1028026E-006  0.7945574E+03  0.7818608E-02  0.9567929E-01
          2   -1    0    0  501    0  0.00000000000E+00  0.00000000000E+00  0.22965224029E+04  0.22965224029E+04  0.00000000000E+00 0. -1.
         -2   -1    0    0    0  501 -0.00000000000E+00 -0.00000000000E+00 -0.68725816574E+02  0.68725816574E+02  0.00000000000E+00 0.  1.
         23    2    1    2    0    0  0.18414246127E+03  0.27826404458E+03  0.17406847119E+04  0.17748099901E+04  0.92886543661E+02 0.  0.
         13    1    3    3    0    0  0.13381430503E+03  0.15465824255E+03  0.85454104241E+03  0.87867276809E+03  0.00000000000E+00 0.  1.
        -13    1    3    3    0    0  0.50328156237E+02  0.12360580202E+03  0.88614366951E+03  0.89613722198E+03  0.00000000000E+00 0. -1.
         22    1    1    2    0    0 -0.18414246127E+03 -0.27826404458E+03  0.48711187437E+03  0.59043822937E+03  0.00000000000E+00 0.  1.
<mgrwt>
<rscale>  0 0.79455743E+03</rscale>
<asrwt>0</asrwt>
<pdfrwt beam="1">  1        2 0.35331108E+00 0.79455743E+03</pdfrwt>
<pdfrwt beam="2">  1       -2 0.10573204E-01 0.79455743E+03</pdfrwt>
<totfact> 0.29335399E+02</totfact>
</mgrwt>
</event>
<event>
 6    1  0.1028026E-006  0.1326260E+04  0.7818608E-02  0.9008996E-01
         -1   -1    0    0    0  501 -0.00000000000E+00  0.00000000000E+00  0.46283970920E+03  0.46283970920E+03  0.00000000000E+00 0.  1.
          1   -1    0    0  501    0  0.00000000000E+00 -0.00000000000E+00 -0.95009446684E+03  0.95009446684E+03  0.00000000000E+00 0. -1.
         23    2    1    2    0    0  0.29639106003E+03  0.45211461074E+03 -0.64815252971E+03  0.84889217870E+03  0.90889755053E+02 0.  0.
         13    1    3    3    0    0  0.17194948139E+03  0.22343400337E+03 -0.27460434482E+03  0.39356946554E+03  0.00000000000E+00 0.  1.
        -13    1    3    3    0    0  0.12444157864E+03  0.22868060738E+03 -0.37354818489E+03  0.45532271316E+03  0.00000000000E+00 0. -1.
         22    1    1    2    0    0 -0.29639106003E+03 -0.45211461074E+03  0.16089777207E+03  0.56404199735E+03  0.00000000000E+00 0.  1.
<mgrwt>
<rscale>  0 0.13262601E+04</rscale>
<asrwt>0</asrwt>
<pdfrwt beam="1">  1        1 0.14616838E+00 0.13262601E+04</pdfrwt>
<pdfrwt beam="2">  1       -1 0.71206109E-01 0.13262601E+04</pdfrwt>
<totfact> 0.32374596E+01</totfact>
</mgrwt>
</event>
<event>
 6    1  0.1028026E-006  0.1512714E+04  0.7818608E-02  0.8876042E-01
          1   -1    0    0  501    0  0.00000000000E+00  0.00000000000E+00  0.24348431854E+04  0.24348431854E+04  0.00000000000E+00 0. -1.
         -1   -1    0    0    0  501 -0.00000000000E+00 -0.00000000000E+00 -0.23495382643E+03  0.23495382643E+03  0.00000000000E+00 0.  1.
         23    2    1    2    0    0  0.38500340755E+03  0.53471184295E+03  0.17495315350E+04  0.18716951709E+04  0.90762559821E+02 0.  0.
         13    1    3    3    0    0  0.28738159324E+02  0.93032883584E+02  0.23714055891E+03  0.25635257734E+03  0.00000000000E+00 0. -1.
        -13    1    3    3    0    0  0.35626524823E+03  0.44167895936E+03  0.15123909761E+04  0.16153425936E+04  0.00000000000E+00 0.  1.
         22    1    1    2    0    0 -0.38500340755E+03 -0.53471184295E+03  0.45035782403E+03  0.79810184092E+03  0.00000000000E+00 0.  1.
<mgrwt>
<rscale>  0 0.15127138E+04</rscale>
<asrwt>0</asrwt>
<pdfrwt beam="1">  1        1 0.37459124E+00 0.15127138E+04</pdfrwt>
<pdfrwt beam="2">  1       -1 0.36146744E-01 0.15127138E+04</pdfrwt>
<totfact> 0.10659625E+01</totfact>
</mgrwt>
</event>
<event>
 6    1  0.1028026E-006  0.2851903E+04  0.7818608E-02  0.8287333E-01
          2   -1    0    0  501    0  0.00000000000E+00  0.00000000000E+00  0.29202880805E+04  0.29202880805E+04  0.00000000000E+00 0. -1.
         -2   -1    0    0    0  501 -0.00000000000E+00 -0.00000000000E+00 -0.69627998844E+03  0.69627998844E+03  0.00000000000E+00 0.  1.
         23    2    1    2    0    0 -0.28122993316E+03  0.13787663929E+04  0.13935109286E+04  0.19826119557E+04  0.93757224792E+02 0.  0.
         11    1    3    3    0    0 -0.77415677538E+02  0.52522680327E+03  0.57476130092E+03  0.78243653739E+03  0.00000000000E+00 0.  1.
        -11    1    3    3    0    0 -0.20381425562E+03  0.85353958962E+03  0.81874962766E+03  0.12001754183E+04  0.00000000000E+00 0. -1.
         22    1    1    2    0    0  0.28122993316E+03 -0.13787663929E+04  0.83049716343E+03  0.16339561132E+04  0.00000000000E+00 0. -1.
<mgrwt>
<rscale>  0 0.28519033E+04</rscale>
<asrwt>0</asrwt>
<pdfrwt beam="1">  1        2 0.44927508E+00 0.28519033E+04</pdfrwt>
<pdfrwt beam="2">  1       -2 0.10712000E+00 0.28519033E+04</pdfrwt>
<totfact> 0.11843160E+00</totfact>
</mgrwt>
</event>
<event>
 6    1  0.1028026E-006  0.2311738E+04  0.7818608E-02  0.8473308E-01
         -2   -1    0    0    0  501 -0.00000000000E+00  0.00000000000E+00  0.44657727383E+03  0.44657727383E+03  0.00000000000E+00 0.  1.
          2   -1    0    0  501    0  0.00000000000E+00 -0.00000000000E+00 -0.29917165029E+04  0.29917165029E+04  0.00000000000E+00 0. -1.
         23    2    1    2    0    0 -0.16173597571E+03  0.11338893619E+04 -0.10642370569E+04  0.15661466526E+04  0.91384971971E+02 0.  0.
         11    1    3    3    0    0 -0.67285384478E+02  0.70647148085E+03 -0.61763978265E+03  0.94080187996E+03  0.00000000000E+00 0.  1.
        -11    1    3    3    0    0 -0.94450591235E+02  0.42741788110E+03 -0.44659727429E+03  0.62534477265E+03  0.00000000000E+00 0. -1.
         22    1    1    2    0    0  0.16173597571E+03 -0.11338893619E+04 -0.14809021721E+04  0.18721471241E+04  0.00000000000E+00 0. -1.
<mgrwt>
<rscale>  0 0.23117375E+04</rscale>
<asrwt>0</asrwt>
<pdfrwt beam="1">  1        2 0.46026406E+00 0.23117375E+04</pdfrwt>
<pdfrwt beam="2">  1       -2 0.68704198E-01 0.23117375E+04</pdfrwt>
<totfact> 0.30926347E+00</totfact>
</mgrwt>
</event>
<event>
 6    1  0.1028026E-006  0.2245811E+04  0.7818608E-02  0.8499599E-01
          2   -1    0    0  501    0  0.00000000000E+00  0.00000000000E+00  0.16412851392E+04  0.16412851392E+04  0.00000000000E+00 0. -1.
         -2   -1    0    0    0  501 -0.00000000000E+00 -0.00000000000E+00 -0.76824988648E+03  0.76824988648E+03  0.00000000000E+00 0.  1.
         23    2    1    2    0    0  0.12130144705E+03 -0.10017841673E+04  0.96133632165E+03  0.13965776536E+04  0.89308792398E+02 0.  0.
         13    1    3    3    0    0  0.53544770606E+02 -0.73420606602E+03  0.72452471365E+03  0.10328899508E+04  0.00000000000E+00 0.  1.
        -13    1    3    3    0    0  0.67756676441E+02 -0.26757810124E+03  0.23681160799E+03  0.36368770277E+03  0.00000000000E+00 0. -1.
         22    1    1    2    0    0 -0.12130144705E+03  0.10017841673E+04 -0.88301068961E+02  0.10129573721E+04  0.00000000000E+00 0.  1.
<mgrwt>
<rscale>  0 0.22458113E+04</rscale>
<asrwt>0</asrwt>
<pdfrwt beam="1">  1        2 0.25250541E+00 0.22458113E+04</pdfrwt>
<pdfrwt beam="2">  1       -2 0.11819229E+00 0.22458113E+04</pdfrwt>
<totfact> 0.53102296E+00</totfact>
</mgrwt>
</event>
<event>
 6    1  0.1028026E-006  0.1453127E+04  0.7818608E-02  0.8916235E-01
          1   -1    0    0  501    0  0.00000000000E+00  0.00000000000E+00  0.56825035760E+03  0.56825035760E+03  0.00000000000E+00 0. -1.
         -1   -1    0    0    0  501 -0.00000000000E+00 -0.00000000000E+00 -0.92898285484E+03  0.92898285484E+03  0.00000000000E+00 0.  1.
         23    2    1    2    0    0 -0.51388286384E+03  0.32322823752E+03 -0.58681174469E+03  0.84941848784E+03  0.92798989846E+02 0.  0.
         11    1    3    3    0    0 -0.29568773359E+03  0.13515443981E+03 -0.28737913415E+03  0.43391787833E+03  0.00000000000E+00 0. -1.
        -11    1    3    3    0    0 -0.21819513025E+03  0.18807379771E+03 -0.29943261054E+03  0.41550060951E+03  0.00000000000E+00 0.  1.
         22    1    1    2    0    0  0.51388286384E+03 -0.32322823752E+03  0.22607924745E+03  0.64781472459E+03  0.00000000000E+00 0. -1.
<mgrwt>
<rscale>  0 0.14531274E+04</rscale>
<asrwt>0</asrwt>
<pdfrwt beam="1">  1        1 0.87423131E-01 0.14531274E+04</pdfrwt>
<pdfrwt beam="2">  1       -1 0.14292044E+00 0.14531274E+04</pdfrwt>
<totfact> 0.14277352E+01</totfact>
</mgrwt>
</event>
<event>
 6    1  0.1028026E-006  0.1542352E+04  0.7818608E-02  0.8856768E-01
         -2   -1    0    0    0  501 -0.00000000000E+00  0.00000000000E+00  0.43515965492E+03  0.43515965492E+03  0.00000000000E+00 0.  1.
          2   -1    0    0  501    0  0.00000000000E+00 -0.00000000000E+00 -0.13666528697E+04  0.13666528697E+04  0.00000000000E+00 0. -1.
         23    2    1    2    0    0  0.36122956916E+03 -0.36019787079E+03 -0.11370244002E+04  0.12518376380E+04  0.11850602314E+03 0.  0.
         13    1    3    3    0    0  0.65650142846E+02 -0.12215695389E+03 -0.22936936056E+03  0.26803463620E+03  0.00000000000E+00 0. -1.
        -13    1    3    3    0    0  0.29557942631E+03 -0.23804091690E+03 -0.90765503965E+03  0.98380300182E+03  0.00000000000E+00 0.  1.
         22    1    1    2    0    0 -0.36122956916E+03  0.36019787079E+03  0.20553118540E+03  0.54997488663E+03  0.00000000000E+00 0.  1.
<mgrwt>
<rscale>  0 0.15423517E+04</rscale>
<asrwt>0</asrwt>
<pdfrwt beam="1">  1        2 0.21025428E+00 0.15423517E+04</pdfrwt>
<pdfrwt beam="2">  1       -2 0.66947641E-01 0.15423517E+04</pdfrwt>
<totfact> 0.29834452E+01</totfact>
</mgrwt>
</event>
<event>
 6    1  0.1043068E-006  0.3096892E+04  0.7818608E-02  0.8216591E-01
         -2   -1    0    0    0  501 -0.00000000000E+00  0.00000000000E+00  0.18758385394E+04  0.18758385394E+04  0.00000000000E+00 0.  1.
          2   -1    0    0  501    0  0.00000000000E+00 -0.00000000000E+00 -0.12781939650E+04  0.12781939650E+04  0.00000000000E+00 0. -1.
         23    2    1    2    0    0  0.89140333653E+03 -0.12581200955E+04  0.16978812266E+03  0.15538677546E+04  0.90614067153E+02 0.  0.
         13    1    3    3    0    0  0.42869791640E+03 -0.62020455562E+03  0.12773199241E+03  0.76469017009E+03  0.00000000000E+00 0.  1.
        -13    1    3    3    0    0  0.46270542013E+03 -0.63791553991E+03  0.42056130242E+02  0.78917758456E+03  0.00000000000E+00 0. -1.
         22    1    1    2    0    0 -0.89140333653E+03  0.12581200955E+04  0.42785645167E+03  0.16001647498E+04  0.00000000000E+00 0. -1.
<mgrwt>
<rscale>  0 0.30968923E+04</rscale>
<asrwt>0</asrwt>
<pdfrwt beam="1">  1        2 0.19664523E+00 0.30968923E+04</pdfrwt>
<pdfrwt beam="2">  1       -2 0.28859054E+00 0.30968923E+04</pdfrwt>
<totfact> 0.53956711E-01</totfact>
</mgrwt>
</event>
<event>
 6    1  0.1028026E-006  0.1656733E+04  0.7818608E-02  0.8786433E-01
          2   -1    0    0  501    0  0.00000000000E+00  0.00000000000E+00  0.26931776955E+04  0.26931776955E+04  0.00000000000E+00 0. -1.
         -2   -1    0    0    0  501 -0.00000000000E+00 -0.00000000000E+00 -0.25478864363E+03  0.25478864363E+03  0.00000000000E+00 0.  1.
         23    2    1    2    0    0 -0.13832353678E+03  0.75629261506E+03  0.17596977768E+04  0.19224256197E+04  0.89844738449E+02 0.  0.
         13    1    3    3    0    0 -0.10790667235E+03  0.59765382596E+03  0.12919935114E+04  0.14276138060E+04  0.00000000000E+00 0. -1.
        -13    1    3    3    0    0 -0.30416864424E+02  0.15863878909E+03  0.46770426542E+03  0.49481181366E+03  0.00000000000E+00 0.  1.
         22    1    1    2    0    0  0.13832353678E+03 -0.75629261506E+03  0.67869127503E+03  0.10255407194E+04  0.00000000000E+00 0.  1.
<mgrwt>
<rscale>  0 0.16567330E+04</rscale>
<asrwt>0</asrwt>
<pdfrwt beam="1">  1        2 0.41433501E+00 0.16567330E+04</pdfrwt>
<pdfrwt beam="2">  1       -2 0.39198255E-01 0.16567330E+04</pdfrwt>
<totfact> 0.15794521E+01</totfact>
</mgrwt>
</event>
<event>
 6    1  0.1028026E-006  0.2096774E+04  0.7818608E-02  0.8562666E-01
         -2   -1    0    0    0  501 -0.00000000000E+00  0.00000000000E+00  0.89233210082E+03  0.89233210082E+03  0.00000000000E+00 0.  1.
          2   -1    0    0  501    0  0.00000000000E+00 -0.00000000000E+00 -0.12317333676E+04  0.12317333676E+04  0.00000000000E+00 0. -1.
         23    2    1    2    0    0 -0.41919485454E+03  0.94596899796E+03 -0.32864124682E+03  0.10893203553E+04  0.89621962281E+02 0.  0.
         11    1    3    3    0    0 -0.92860741988E+02  0.29459821761E+03 -0.12124219496E+03  0.33182962053E+03  0.00000000000E+00 0.  1.
        -11    1    3    3    0    0 -0.32633411255E+03  0.65137078035E+03 -0.20739905186E+03  0.75749073474E+03  0.00000000000E+00 0. -1.
         22    1    1    2    0    0  0.41919485454E+03 -0.94596899796E+03 -0.10760019963E+02  0.10347451132E+04  0.00000000000E+00 0.  1.
<mgrwt>
<rscale>  0 0.20967739E+04</rscale>
<asrwt>0</asrwt>
<pdfrwt beam="1">  1        2 0.18949744E+00 0.20967739E+04</pdfrwt>
<pdfrwt beam="2">  1       -2 0.13728186E+00 0.20967739E+04</pdfrwt>
<totfact> 0.63175760E+00</totfact>
</mgrwt>
</event>
<event>
 6    1  0.1028026E-006  0.2943277E+04  0.7818608E-02  0.8260116E-01
         -2   -1    0    0    0  501 -0.00000000000E+00  0.00000000000E+00  0.10964813912E+04  0.10964813912E+04  0.00000000000E+00 0.  1.
          2   -1    0    0  501    0  0.00000000000E+00 -0.00000000000E+00 -0.19751543698E+04  0.19751543698E+04  0.00000000000E+00 0. -1.
         23    2    1    2    0    0 -0.12286479617E+04 -0.71147180525E+03 -0.83829028753E+03  0.16512841477E+04  0.90778779640E+02 0.  0.
         13    1    3    3    0    0 -0.58372445828E+03 -0.33971279219E+03 -0.45144561389E+03  0.81236824573E+03  0.00000000000E+00 0.  1.
        -13    1    3    3    0    0 -0.64492350346E+03 -0.37175901306E+03 -0.38684467363E+03  0.83891590200E+03  0.00000000000E+00 0. -1.
         22    1    1    2    0    0  0.12286479617E+04  0.71147180525E+03 -0.40382691124E+02  0.14203516133E+04  0.00000000000E+00 0.  1.
<mgrwt>
<rscale>  0 0.29432771E+04</rscale>
<asrwt>0</asrwt>
<pdfrwt beam="1">  1        2 0.30386990E+00 0.29432771E+04</pdfrwt>
<pdfrwt beam="2">  1       -2 0.16868945E+00 0.29432771E+04</pdfrwt>
<totfact> 0.12918945E+00</totfact>
</mgrwt>
</event>
<event>
 6    1  0.1028026E-006  0.8951510E+03  0.7818608E-02  0.9431663E-01
          1   -1    0    0  501    0  0.00000000000E+00  0.00000000000E+00  0.14230397387E+04  0.14230397387E+04  0.00000000000E+00 0. -1.
         -1   -1    0    0    0  501 -0.00000000000E+00 -0.00000000000E+00 -0.14077176254E+03  0.14077176254E+03  0.00000000000E+00 0.  1.
         23    2    1    2    0    0 -0.20544322874E+03 -0.53454981711E+02  0.13270021836E+04  0.13468656448E+04  0.89710169265E+02 0.  0.
         13    1    3    3    0    0 -0.24650354036E+02 -0.32348546686E+02  0.40721992083E+03  0.40924580920E+03  0.00000000000E+00 0.  1.
        -13    1    3    3    0    0 -0.18079287470E+03 -0.21106435025E+02  0.91978226281E+03  0.93761983561E+03  0.00000000000E+00 0. -1.
         22    1    1    2    0    0  0.20544322874E+03  0.53454981711E+02 -0.44734207480E+02  0.21694585643E+03  0.00000000000E+00 0.  1.
<mgrwt>
<rscale>  0 0.89515096E+03</rscale>
<asrwt>0</asrwt>
<pdfrwt beam="1">  1        1 0.21892918E+00 0.89515096E+03</pdfrwt>
<pdfrwt beam="2">  1       -1 0.21657195E-01 0.89515096E+03</pdfrwt>
<totfact> 0.13351446E+02</totfact>
</mgrwt>
</event>
<event>
 6    1  0.1028026E-006  0.3446603E+04  0.7818608E-02  0.8126562E-01
         -2   -1    0    0    0  501 -0.00000000000E+00  0.00000000000E+00  0.11718550585E+04  0.11718550585E+04  0.00000000000E+00 0.  1.
          2   -1    0    0  501    0  0.00000000000E+00 -0.00000000000E+00 -0.25342457400E+04  0.25342457400E+04  0.00000000000E+00 0. -1.
         23    2    1    2    0    0 -0.54587287380E+02  0.46371132458E+03  0.11007405933E+04  0.11991058561E+04  0.90647867564E+02 0.  0.
         11    1    3    3    0    0 -0.13978390801E+02  0.20322600618E+03  0.37165284226E+03  0.42381840469E+03  0.00000000000E+00 0. -1.
        -11    1    3    3    0    0 -0.40608896580E+02  0.26048531840E+03  0.72908775103E+03  0.77528745139E+03  0.00000000000E+00 0.  1.
         22    1    1    2    0    0  0.54587287380E+02 -0.46371132458E+03 -0.24631312748E+04  0.25069949424E+04  0.00000000000E+00 0. -1.
<mgrwt>
<rscale>  0 0.34466034E+04</rscale>
<asrwt>0</asrwt>
<pdfrwt beam="1">  1        2 0.38988396E+00 0.34466034E+04</pdfrwt>
<pdfrwt beam="2">  1       -2 0.18028540E+00 0.34466034E+04</pdfrwt>
<totfact> 0.49527052E-01</totfact>
</mgrwt>
</event>
<event>
 6    1  0.1028026E-006  0.1243776E+04  0.7818608E-02  0.9075380E-01
          2   -1    0    0  501    0  0.00000000000E+00  0.00000000000E+00  0.41735928956E+04  0.41735928956E+04  0.00000000000E+00 0. -1.
         -2   -1    0    0    0  501 -0.00000000000E+00 -0.00000000000E+00 -0.92664669585E+02  0.92664669585E+02  0.00000000000E+00 0.  1.
         23    2    1    2    0    0  0.56615146451E+03 -0.12280719159E+03  0.27957139865E+04  0.28565112303E+04  0.89613770351E+02 0.  0.
         13    1    3    3    0    0  0.12857169342E+03 -0.13967229534E+02  0.80877257884E+03  0.81904752495E+03  0.00000000000E+00 0.  1.
        -13    1    3    3    0    0  0.43757977109E+03 -0.10883996206E+03  0.19869414076E+04  0.20374637054E+04  0.00000000000E+00 0. -1.
         22    1    1    2    0    0 -0.56615146451E+03  0.12280719159E+03  0.12852142395E+04  0.14097463348E+04  0.00000000000E+00 0. -1.
<mgrwt>
<rscale>  0 0.12437759E+04</rscale>
<asrwt>0</asrwt>
<pdfrwt beam="1">  1        2 0.64209107E+00 0.12437759E+04</pdfrwt>
<pdfrwt beam="2">  1       -2 0.14256106E-01 0.12437759E+04</pdfrwt>
<totfact> 0.96277550E+00</totfact>
</mgrwt>
</event>
<event>
 6    1  0.1028026E-006  0.2739930E+04  0.7818608E-02  0.8322164E-01
          2   -1    0    0  501    0  0.00000000000E+00  0.00000000000E+00  0.63931524175E+03  0.63931524175E+03  0.00000000000E+00 0. -1.
         -2   -1    0    0    0  501 -0.00000000000E+00 -0.00000000000E+00 -0.29356480094E+04  0.29356480094E+04  0.00000000000E+00 0.  1.
         23    2    1    2    0    0  0.44468578608E+03  0.12316520921E+04 -0.16678677650E+04  0.21224892983E+04  0.92008778044E+02 0.  0.
         13    1    3    3    0    0  0.16021781762E+03  0.55617312404E+03 -0.77665674386E+03  0.96860414554E+03  0.00000000000E+00 0. -1.
        -13    1    3    3    0    0  0.28446796846E+03  0.67547896806E+03 -0.89121102118E+03  0.11538851527E+04  0.00000000000E+00 0.  1.
         22    1    1    2    0    0 -0.44468578608E+03 -0.12316520921E+04 -0.62846500258E+03  0.14524739529E+04  0.00000000000E+00 0. -1.
<mgrwt>
<rscale>  0 0.27399303E+04</rscale>
<asrwt>0</asrwt>
<pdfrwt beam="1">  1        2 0.98356189E-01 0.27399303E+04</pdfrwt>
<pdfrwt beam="2">  1       -2 0.45163816E+00 0.27399303E+04</pdfrwt>
<totfact> 0.13566786E-01</totfact>
</mgrwt>
</event>
<event>
 6    1  0.1028026E-006  0.5357020E+04  0.7818608E-02  0.7775676E-01
          2   -1    0    0  501    0  0.00000000000E+00  0.00000000000E+00  0.27211294442E+04  0.27211294442E+04  0.00000000000E+00 0. -1.
         -2   -1    0    0    0  501 -0.00000000000E+00 -0.00000000000E+00 -0.26365579588E+04  0.26365579588E+04  0.00000000000E+00 0.  1.
         23    2    1    2    0    0 -0.25919444384E+04 -0.63796902408E+03 -0.17120588522E+03  0.26761575205E+04  0.85598902892E+02 0.  0.
         13    1    3    3    0    0 -0.86661842349E+03 -0.18794575553E+03 -0.88871293611E+02  0.89120660107E+03  0.00000000000E+00 0. -1.
        -13    1    3    3    0    0 -0.17253260149E+04 -0.45002326855E+03 -0.82334591605E+02  0.17849509194E+04  0.00000000000E+00 0.  1.
         22    1    1    2    0    0  0.25919444384E+04  0.63796902408E+03  0.25577737066E+03  0.26815298825E+04  0.00000000000E+00 0. -1.
<mgrwt>
<rscale>  0 0.53570199E+04</rscale>
<asrwt>0</asrwt>
<pdfrwt beam="1">  1        2 0.41863530E+00 0.53570199E+04</pdfrwt>
<pdfrwt beam="2">  1       -2 0.40562430E+00 0.53570199E+04</pdfrwt>
<totfact> 0.12461171E-02</totfact>
</mgrwt>
</event>
<event>
 6    1  0.1028026E-006  0.2735738E+04  0.7818608E-02  0.8323502E-01
          2   -1    0    0  501    0  0.00000000000E+00  0.00000000000E+00  0.33765446424E+04  0.33765446424E+04  0.00000000000E+00 0. -1.
         -2   -1    0    0    0  501 -0.00000000000E+00 -0.00000000000E+00 -0.55413623518E+03  0.55413623518E+03  0.00000000000E+00 0.  1.
         23    2    1    2    0    0  0.95285229519E+03 -0.74627460957E+03  0.50200519134E+03  0.13135976971E+04  0.93147239995E+02 0.  0.
         11    1    3    3    0    0  0.45565542065E+03 -0.32518384995E+03  0.18967923278E+03  0.59105381310E+03  0.00000000000E+00 0.  1.
        -11    1    3    3    0    0  0.49719687454E+03 -0.42109075962E+03  0.31232595856E+03  0.72254388398E+03  0.00000000000E+00 0. -1.
         22    1    1    2    0    0 -0.95285229519E+03  0.74627460957E+03  0.23204032159E+04  0.26170831805E+04  0.00000000000E+00 0. -1.
<mgrwt>
<rscale>  0 0.27357381E+04</rscale>
<asrwt>0</asrwt>
<pdfrwt beam="1">  1        2 0.51946840E+00 0.27357381E+04</pdfrwt>
<pdfrwt beam="2">  1       -2 0.85251730E-01 0.27357381E+04</pdfrwt>
<totfact> 0.10354517E+00</totfact>
</mgrwt>
</event>
<event>
 6    1  0.1028026E-006  0.6566985E+03  0.7818608E-02  0.9794290E-01
         -2   -1    0    0    0  501 -0.00000000000E+00  0.00000000000E+00  0.10057995647E+03  0.10057995647E+03  0.00000000000E+00 0.  1.
          2   -1    0    0  501    0  0.00000000000E+00 -0.00000000000E+00 -0.10719156603E+04  0.10719156603E+04  0.00000000000E+00 0. -1.
         23    2    1    2    0    0 -0.60785906566E+02 -0.25820522969E+03 -0.82112713760E+03  0.86765552681E+03  0.90617161872E+02 0.  0.
         11    1    3    3    0    0 -0.69577734290E+02 -0.11856999486E+03 -0.34451775742E+03  0.37093448204E+03  0.00000000000E+00 0. -1.
        -11    1    3    3    0    0  0.87918277233E+01 -0.13963523484E+03 -0.47660938019E+03  0.49672104478E+03  0.00000000000E+00 0.  1.
         22    1    1    2    0    0  0.60785906566E+02  0.25820522969E+03 -0.15020856625E+03  0.30484008997E+03  0.00000000000E+00 0. -1.
<mgrwt>
<rscale>  0 0.65669850E+03</rscale>
<asrwt>0</asrwt>
<pdfrwt beam="1">  1        2 0.16491010E+00 0.65669850E+03</pdfrwt>
<pdfrwt beam="2">  1       -2 0.15473840E-01 0.65669850E+03</pdfrwt>
<totfact> 0.76020959E+02</totfact>
</mgrwt>
</event>
<event>
 6    1  0.1028026E-006  0.2940352E+04  0.7818608E-02  0.8260972E-01
          1   -1    0    0  501    0  0.00000000000E+00  0.00000000000E+00  0.17947047808E+04  0.17947047808E+04  0.00000000000E+00 0. -1.
         -1   -1    0    0    0  501 -0.00000000000E+00 -0.00000000000E+00 -0.12043302566E+04  0.12043302566E+04  0.00000000000E+00 0.  1.
         23    2    1    2    0    0  0.10380845282E+04  0.53002342352E+02 -0.76294664467E+03  0.12926039893E+04  0.91152369306E+02 0.  0.
         11    1    3    3    0    0  0.60110025627E+03  0.64166084938E+02 -0.47984981609E+03  0.77181257476E+03  0.00000000000E+00 0.  1.
        -11    1    3    3    0    0  0.43698427194E+03 -0.11163742586E+02 -0.28309682858E+03  0.52079141451E+03  0.00000000000E+00 0. -1.
         22    1    1    2    0    0 -0.10380845282E+04 -0.53002342352E+02  0.13533211688E+04  0.17064310481E+04  0.00000000000E+00 0. -1.
<mgrwt>
<rscale>  0 0.29403519E+04</rscale>
<asrwt>0</asrwt>
<pdfrwt beam="1">  1        1 0.27610843E+00 0.29403519E+04</pdfrwt>
<pdfrwt beam="2">  1       -1 0.18528158E+00 0.29403519E+04</pdfrwt>
<totfact> 0.67045976E-01</totfact>
</mgrwt>
</event>
<event>
 6    1  0.1028026E-006  0.2532470E+04  0.7818608E-02  0.8391508E-01
         -2   -1    0    0    0  501 -0.00000000000E+00  0.00000000000E+00  0.10996086576E+04  0.10996086576E+04  0.00000000000E+00 0.  1.
          2   -1    0    0  501    0  0.00000000000E+00 -0.00000000000E+00 -0.14581111531E+04  0.14581111531E+04  0.00000000000E+00 0. -1.
         23    2    1    2    0    0  0.11413011565E+04  0.25613252715E+03  0.30593983950E+03  0.12124853263E+04  0.91374394078E+02 0.  0.
         13    1    3    3    0    0  0.51224887551E+03  0.15615380015E+03  0.16182428008E+03  0.55943723275E+03  0.00000000000E+00 0. -1.
        -13    1    3    3    0    0  0.62905228097E+03  0.99978727005E+02  0.14411555942E+03  0.65304809357E+03  0.00000000000E+00 0.  1.
         22    1    1    2    0    0 -0.11413011565E+04 -0.25613252715E+03 -0.66444233504E+03  0.13452344843E+04  0.00000000000E+00 0. -1.
<mgrwt>
<rscale>  0 0.25324705E+04</rscale>
<asrwt>0</asrwt>
<pdfrwt beam="1">  1        2 0.22432479E+00 0.25324705E+04</pdfrwt>
<pdfrwt beam="2">  1       -2 0.16917056E+00 0.25324705E+04</pdfrwt>
<totfact> 0.25769468E+00</totfact>
</mgrwt>
</event>
<event>
 6    1  0.1028026E-006  0.1092437E+04  0.7818608E-02  0.9212594E-01
         -2   -1    0    0    0  501 -0.00000000000E+00  0.00000000000E+00  0.34472249204E+03  0.34472249204E+03  0.00000000000E+00 0.  1.
          2   -1    0    0  501    0  0.00000000000E+00 -0.00000000000E+00 -0.86549269490E+03  0.86549269490E+03  0.00000000000E+00 0. -1.
         23    2    1    2    0    0  0.21317212742E+03  0.32440461167E+03  0.15766889013E+03  0.42857568507E+03  0.90204938515E+02 0.  0.
         11    1    3    3    0    0  0.15597961321E+03  0.20512407052E+03  0.61219971883E+02  0.26486488820E+03  0.00000000000E+00 0. -1.
        -11    1    3    3    0    0  0.57192514208E+02  0.11928054116E+03  0.96448918252E+02  0.16371079687E+03  0.00000000000E+00 0.  1.
         22    1    1    2    0    0 -0.21317212742E+03 -0.32440461167E+03 -0.67843909299E+03  0.78163950187E+03  0.00000000000E+00 0. -1.
<mgrwt>
<rscale>  0 0.10924373E+04</rscale>
<asrwt>0</asrwt>
<pdfrwt beam="1">  1        2 0.13315272E+00 0.10924373E+04</pdfrwt>
<pdfrwt beam="2">  1       -2 0.53034230E-01 0.10924373E+04</pdfrwt>
<totfact> 0.10311560E+02</totfact>
</mgrwt>
</event>
<event>
 6    1  0.1028026E-006  0.2864629E+04  0.7818608E-02  0.8283480E-01
         -1   -1    0    0    0  501 -0.00000000000E+00  0.00000000000E+00  0.72154851126E+03  0.72154851126E+03  0.00000000000E+00 0.  1.
          1   -1    0    0  501    0  0.00000000000E+00 -0.00000000000E+00 -0.28432253113E+04  0.28432253113E+04  0.00000000000E+00 0. -1.
         23    2    1    2    0    0 -0.35257209261E+03  0.56125977777E+03  0.51626473040E+03  0.84483721729E+03  0.88887756407E+02 0.  0.
         13    1    3    3    0    0 -0.18652627513E+03  0.30503312970E+03  0.22240146146E+03  0.42106967546E+03  0.00000000000E+00 0. -1.
        -13    1    3    3    0    0 -0.16604581748E+03  0.25622664807E+03  0.29386326894E+03  0.42376754183E+03  0.00000000000E+00 0.  1.
         22    1    1    2    0    0  0.35257209261E+03 -0.56125977777E+03 -0.26379415305E+04  0.27199366053E+04  0.00000000000E+00 0. -1.
<mgrwt>
<rscale>  0 0.28646291E+04</rscale>
<asrwt>0</asrwt>
<pdfrwt beam="1">  1        1 0.43741928E+00 0.28646291E+04</pdfrwt>
<pdfrwt beam="2">  1       -1 0.11100746E+00 0.28646291E+04</pdfrwt>
<totfact> 0.49875143E-01</totfact>
</mgrwt>
</event>
<event>
 6    1  0.1028026E-006  0.2059976E+04  0.7818608E-02  0.8579082E-01
          1   -1    0    0  501    0  0.00000000000E+00  0.00000000000E+00  0.93635904429E+03  0.93635904429E+03  0.00000000000E+00 0. -1.
         -1   -1    0    0    0  501 -0.00000000000E+00 -0.00000000000E+00 -0.11329790179E+04  0.11329790179E+04  0.00000000000E+00 0.  1.
         23    2    1    2    0    0  0.74315064923E+03 -0.36675508333E+03 -0.70944322571E+03  0.10947766909E+04  0.91891968232E+02 0.  0.
         11    1    3    3    0    0  0.55077083939E+03 -0.23103882475E+03 -0.53380102858E+03  0.80104369056E+03  0.00000000000E+00 0. -1.
        -11    1    3    3    0    0  0.19237980984E+03 -0.13571625858E+03 -0.17564219713E+03  0.29373300034E+03  0.00000000000E+00 0.  1.
         22    1    1    2    0    0 -0.74315064923E+03  0.36675508333E+03  0.51282325207E+03  0.97456137132E+03  0.00000000000E+00 0. -1.
<mgrwt>
<rscale>  0 0.20599759E+04</rscale>
<asrwt>0</asrwt>
<pdfrwt beam="1">  1        1 0.14405524E+00 0.20599759E+04</pdfrwt>
<pdfrwt beam="2">  1       -1 0.17430446E+00 0.20599759E+04</pdfrwt>
<totfact> 0.35899251E+00</totfact>
</mgrwt>
</event>
<event>
 6    1  0.1028026E-006  0.2570372E+04  0.7818608E-02  0.8378335E-01
         -1   -1    0    0    0  501 -0.00000000000E+00  0.00000000000E+00  0.46625537255E+03  0.46625537255E+03  0.00000000000E+00 0.  1.
          1   -1    0    0  501    0  0.00000000000E+00 -0.00000000000E+00 -0.35424872044E+04  0.35424872044E+04  0.00000000000E+00 0. -1.
         23    2    1    2    0    0 -0.76015625896E+03 -0.91924573014E+03 -0.22794597675E+04  0.25742754379E+04  0.90038592917E+02 0.  0.
         11    1    3    3    0    0 -0.42009009916E+03 -0.44207991383E+03 -0.11277445524E+04  0.12820757064E+04  0.00000000000E+00 0. -1.
        -11    1    3    3    0    0 -0.34006615980E+03 -0.47716581631E+03 -0.11517152151E+04  0.12921997315E+04  0.00000000000E+00 0.  1.
         22    1    1    2    0    0  0.76015625896E+03  0.91924573014E+03 -0.79677206436E+03  0.14344671390E+04  0.00000000000E+00 0.  1.
<mgrwt>
<rscale>  0 0.25703725E+04</rscale>
<asrwt>0</asrwt>
<pdfrwt beam="1">  1        1 0.54499803E+00 0.25703725E+04</pdfrwt>
<pdfrwt beam="2">  1       -1 0.71731596E-01 0.25703725E+04</pdfrwt>
<totfact> 0.40086562E-01</totfact>
</mgrwt>
</event>
<event>
 6    1  0.1028026E-006  0.1382444E+04  0.7818608E-02  0.8966625E-01
         -1   -1    0    0    0  501 -0.00000000000E+00  0.00000000000E+00  0.55301990104E+03  0.55301990104E+03  0.00000000000E+00 0.  1.
          1   -1    0    0  501    0  0.00000000000E+00 -0.00000000000E+00 -0.86396136640E+03  0.86396136640E+03  0.00000000000E+00 0. -1.
         23    2    1    2    0    0  0.51486708035E+03  0.42293738402E+03 -0.33263163422E+03  0.75032198065E+03  0.91515732742E+02 0.  0.
         13    1    3    3    0    0  0.69160172936E+02  0.51163306655E+02 -0.79434999160E+02  0.11709283736E+03  0.00000000000E+00 0.  1.
        -13    1    3    3    0    0  0.44570690741E+03  0.37177407737E+03 -0.25319663506E+03  0.63322914330E+03  0.00000000000E+00 0. -1.
         22    1    1    2    0    0 -0.51486708035E+03 -0.42293738402E+03  0.21690168857E+02  0.66665928678E+03  0.00000000000E+00 0.  1.
<mgrwt>
<rscale>  0 0.13824440E+04</rscale>
<asrwt>0</asrwt>
<pdfrwt beam="1">  1        1 0.13291713E+00 0.13824440E+04</pdfrwt>
<pdfrwt beam="2">  1       -1 0.85079986E-01 0.13824440E+04</pdfrwt>
<totfact> 0.26014186E+01</totfact>
</mgrwt>
</event>
<event>
 6    1  0.1028026E-006  0.1471504E+04  0.7818608E-02  0.8903627E-01
          1   -1    0    0  501    0  0.00000000000E+00  0.00000000000E+00  0.19883693830E+04  0.19883693830E+04  0.00000000000E+00 0. -1.
         -1   -1    0    0    0  501 -0.00000000000E+00 -0.00000000000E+00 -0.27224869423E+03  0.27224869423E+03  0.00000000000E+00 0.  1.
         23    2    1    2    0    0 -0.50628437311E+03 -0.87390007392E+02  0.58075891534E+02  0.52479739828E+03  0.89881144975E+02 0.  0.
         11    1    3    3    0    0 -0.32784187143E+03 -0.99808178694E+02  0.38832856302E+02  0.34489122332E+03  0.00000000000E+00 0. -1.
        -11    1    3    3    0    0 -0.17844250168E+03  0.12418171303E+02  0.19243035232E+02  0.17990617496E+03  0.00000000000E+00 0.  1.
         22    1    1    2    0    0  0.50628437311E+03  0.87390007392E+02  0.16580447972E+04  0.17358206789E+04  0.00000000000E+00 0. -1.
<mgrwt>
<rscale>  0 0.14715039E+04</rscale>
<asrwt>0</asrwt>
<pdfrwt beam="1">  1        1 0.30590297E+00 0.14715039E+04</pdfrwt>
<pdfrwt beam="2">  1       -1 0.41884416E-01 0.14715039E+04</pdfrwt>
<totfact> 0.16476702E+01</totfact>
</mgrwt>
</event>
<event>
 6    1  0.1028026E-006  0.2182085E+04  0.7818608E-02  0.8525922E-01
          2   -1    0    0  501    0  0.00000000000E+00  0.00000000000E+00  0.92350617361E+03  0.92350617361E+03  0.00000000000E+00 0. -1.
         -2   -1    0    0    0  501 -0.00000000000E+00 -0.00000000000E+00 -0.12889718915E+04  0.12889718915E+04  0.00000000000E+00 0.  1.
         23    2    1    2    0    0  0.40862419736E+03  0.78399304657E+03 -0.82798948629E+03  0.12147070152E+04  0.91256296471E+02 0.  0.
         13    1    3    3    0    0  0.24014289494E+03  0.45044095680E+03 -0.41609532294E+03  0.65855977961E+03  0.00000000000E+00 0.  1.
        -13    1    3    3    0    0  0.16848130242E+03  0.33355208977E+03 -0.41189416335E+03  0.55614723559E+03  0.00000000000E+00 0. -1.
         22    1    1    2    0    0 -0.40862419736E+03 -0.78399304657E+03  0.46252376838E+03  0.99777104992E+03  0.00000000000E+00 0. -1.
<mgrwt>
<rscale>  0 0.21820848E+04</rscale>
<asrwt>0</asrwt>
<pdfrwt beam="1">  1        2 0.14207787E+00 0.21820848E+04</pdfrwt>
<pdfrwt beam="2">  1       -2 0.19830337E+00 0.21820848E+04</pdfrwt>
<totfact> 0.35306056E+00</totfact>
</mgrwt>
</event>
<event>
 6    1  0.1028026E-006  0.2393397E+04  0.7818608E-02  0.8441980E-01
          1   -1    0    0  501    0  0.00000000000E+00  0.00000000000E+00  0.33819017486E+04  0.33819017486E+04  0.00000000000E+00 0. -1.
         -1   -1    0    0    0  501 -0.00000000000E+00 -0.00000000000E+00 -0.42345607522E+03  0.42345607522E+03  0.00000000000E+00 0.  1.
         23    2    1    2    0    0  0.12183162481E+03 -0.11280313516E+04  0.20775381600E+04  0.23689401540E+04  0.91733156657E+02 0.  0.
         11    1    3    3    0    0 -0.99719949665E+01 -0.21500108949E+03  0.42295146306E+03  0.47456595882E+03  0.00000000000E+00 0.  1.
        -11    1    3    3    0    0  0.13180361978E+03 -0.91303026210E+03  0.16545866969E+04  0.18943741952E+04  0.00000000000E+00 0. -1.
         22    1    1    2    0    0 -0.12183162481E+03  0.11280313516E+04  0.88090751333E+03  0.14364176698E+04  0.00000000000E+00 0. -1.
<mgrwt>
<rscale>  0 0.23933966E+04</rscale>
<asrwt>0</asrwt>
<pdfrwt beam="1">  1        1 0.52029256E+00 0.23933966E+04</pdfrwt>
<pdfrwt beam="2">  1       -1 0.65147091E-01 0.23933966E+04</pdfrwt>
<totfact> 0.66258602E-01</totfact>
</mgrwt>
</event>
<event>
 6    1  0.1028026E-006  0.8908673E+03  0.7818608E-02  0.9437070E-01
         -2   -1    0    0    0  501 -0.00000000000E+00  0.00000000000E+00  0.51983017314E+02  0.51983017314E+02  0.00000000000E+00 0.  1.
          2   -1    0    0  501    0  0.00000000000E+00 -0.00000000000E+00 -0.38168450754E+04  0.38168450754E+04  0.00000000000E+00 0. -1.
         23    2    1    2    0    0  0.14332161076E+03  0.41525898777E+03 -0.20592620430E+04  0.21075636258E+04  0.91011888907E+02 0.  0.
         13    1    3    3    0    0  0.66504453795E+02  0.14360528664E+03 -0.94116687657E+03  0.95437959443E+03  0.00000000000E+00 0. -1.
        -13    1    3    3    0    0  0.76817156968E+02  0.27165370113E+03 -0.11180951664E+04  0.11531840313E+04  0.00000000000E+00 0.  1.
         22    1    1    2    0    0 -0.14332161076E+03 -0.41525898777E+03 -0.17056000151E+04  0.17612644670E+04  0.00000000000E+00 0.  1.
<mgrwt>
<rscale>  0 0.89086727E+03</rscale>
<asrwt>0</asrwt>
<pdfrwt beam="1">  1        2 0.58720701E+00 0.89086727E+03</pdfrwt>
<pdfrwt beam="2">  1       -2 0.79973862E-02 0.89086727E+03</pdfrwt>
<totfact> 0.50182206E+01</totfact>
</mgrwt>
</event>
<event>
 6    1  0.1028026E-006  0.1457185E+04  0.7818608E-02  0.8913434E-01
          1   -1    0    0  501    0  0.00000000000E+00  0.00000000000E+00  0.66129710469E+03  0.66129710469E+03  0.00000000000E+00 0. -1.
         -1   -1    0    0    0  501 -0.00000000000E+00 -0.00000000000E+00 -0.80273599388E+03  0.80273599388E+03  0.00000000000E+00 0.  1.
         23    2    1    2    0    0  0.41622198761E+03 -0.19821560191E+03 -0.63477116256E+03  0.78882431622E+03  0.82335929180E+02 0.  0.
         11    1    3    3    0    0  0.23844517593E+03 -0.79322498622E+02 -0.38804634670E+03  0.46230739546E+03  0.00000000000E+00 0.  1.
        -11    1    3    3    0    0  0.17777681168E+03 -0.11889310329E+03 -0.24672481585E+03  0.32651692076E+03  0.00000000000E+00 0. -1.
         22    1    1    2    0    0 -0.41622198761E+03  0.19821560191E+03  0.49333227337E+03  0.67520878235E+03  0.00000000000E+00 0. -1.
<mgrwt>
<rscale>  0 0.14571849E+04</rscale>
<asrwt>0</asrwt>
<pdfrwt beam="1">  1        1 0.10173802E+00 0.14571849E+04</pdfrwt>
<pdfrwt beam="2">  1       -1 0.12349785E+00 0.14571849E+04</pdfrwt>
<totfact> 0.16622662E+01</totfact>
</mgrwt>
</event>
<event>
 6    1  0.1028026E-006  0.1894194E+04  0.7818608E-02  0.8657752E-01
          4   -1    0    0  501    0  0.00000000000E+00  0.00000000000E+00  0.14628971584E+04  0.14628971584E+04  0.00000000000E+00 0. -1.
         -4   -1    0    0    0  501 -0.00000000000E+00 -0.00000000000E+00 -0.61316207745E+03  0.61316207745E+03  0.00000000000E+00 0.  1.
         23    2    1    2    0    0 -0.21651684984E+03 -0.89407033386E+03  0.66234512143E+03  0.11372534492E+04  0.91668095357E+02 0.  0.
         11    1    3    3    0    0 -0.17352958439E+03 -0.74060397234E+03  0.58779294482E+03  0.96130500180E+03  0.00000000000E+00 0.  1.
        -11    1    3    3    0    0 -0.42987265456E+02 -0.15346636152E+03  0.74552176609E+02  0.17594844741E+03  0.00000000000E+00 0. -1.
         22    1    1    2    0    0  0.21651684984E+03  0.89407033386E+03  0.18738995955E+03  0.93880578667E+03  0.00000000000E+00 0.  1.
<mgrwt>
<rscale>  0 0.18941944E+04</rscale>
<asrwt>0</asrwt>
<pdfrwt beam="1">  1        4 0.22506110E+00 0.18941944E+04</pdfrwt>
<pdfrwt beam="2">  1       -4 0.94332628E-01 0.18941944E+04</pdfrwt>
<totfact> 0.16098879E-01</totfact>
</mgrwt>
</event>
<event>
 6    1  0.1243406E-006  0.3780166E+04  0.7818608E-02  0.8050425E-01
         -2   -1    0    0    0  501 -0.00000000000E+00  0.00000000000E+00  0.13186557914E+04  0.13186557914E+04  0.00000000000E+00 0.  1.
          2   -1    0    0  501    0  0.00000000000E+00 -0.00000000000E+00 -0.27091333482E+04  0.27091333482E+04  0.00000000000E+00 0. -1.
         23    2    1    2    0    0  0.89010054247E+03 -0.40259447149E+03 -0.24181705485E+04  0.26098631297E+04  0.97342025703E+02 0.  0.
         13    1    3    3    0    0  0.33103234398E+03 -0.19545494271E+03 -0.88783412790E+03  0.96748875242E+03  0.00000000000E+00 0.  1.
        -13    1    3    3    0    0  0.55906819850E+03 -0.20713952877E+03 -0.15303364206E+04  0.16423743773E+04  0.00000000000E+00 0. -1.
         22    1    1    2    0    0 -0.89010054247E+03  0.40259447149E+03  0.10276929918E+04  0.14179260099E+04  0.00000000000E+00 0.  1.
<mgrwt>
<rscale>  0 0.37801663E+04</rscale>
<asrwt>0</asrwt>
<pdfrwt beam="1">  1        2 0.41678974E+00 0.37801663E+04</pdfrwt>
<pdfrwt beam="2">  1       -2 0.20287012E+00 0.37801663E+04</pdfrwt>
<totfact> 0.26818072E-01</totfact>
</mgrwt>
</event>
<event>
 6    1  0.1028026E-006  0.1538375E+04  0.7818608E-02  0.8859327E-01
         -2   -1    0    0    0  501 -0.00000000000E+00  0.00000000000E+00  0.77966825688E+03  0.77966825688E+03  0.00000000000E+00 0.  1.
          2   -1    0    0  501    0  0.00000000000E+00 -0.00000000000E+00 -0.75884802798E+03  0.75884802798E+03  0.00000000000E+00 0. -1.
         23    2    1    2    0    0  0.29241311381E+02  0.51283669894E+03 -0.55848035286E+03  0.76427749865E+03  0.91450841136E+02 0.  0.
         11    1    3    3    0    0  0.46964271840E+02  0.23345380573E+03 -0.30212797716E+03  0.38469161262E+03  0.00000000000E+00 0. -1.
        -11    1    3    3    0    0 -0.17722960459E+02  0.27938289321E+03 -0.25635237570E+03  0.37958588603E+03  0.00000000000E+00 0.  1.
         22    1    1    2    0    0 -0.29241311381E+02 -0.51283669894E+03  0.57930058175E+03  0.77423878622E+03  0.00000000000E+00 0.  1.
<mgrwt>
<rscale>  0 0.15383754E+04</rscale>
<asrwt>0</asrwt>
<pdfrwt beam="1">  1        2 0.11674585E+00 0.15383754E+04</pdfrwt>
<pdfrwt beam="2">  1       -2 0.11994896E+00 0.15383754E+04</pdfrwt>
<totfact> 0.18911639E+01</totfact>
</mgrwt>
</event>
<event>
 6    1  0.1028026E-006  0.4243811E+04  0.7818608E-02  0.7957090E-01
         -2   -1    0    0    0  501 -0.00000000000E+00  0.00000000000E+00  0.18407784836E+04  0.18407784836E+04  0.00000000000E+00 0.  1.
          2   -1    0    0  501    0  0.00000000000E+00 -0.00000000000E+00 -0.24459669606E+04  0.24459669606E+04  0.00000000000E+00 0. -1.
         23    2    1    2    0    0  0.46303877609E+03 -0.14562438564E+04 -0.17884810917E+04  0.23540704872E+04  0.89062709350E+02 0.  0.
         11    1    3    3    0    0  0.22680440792E+03 -0.80795303808E+03 -0.10332731998E+04  0.13311205267E+04  0.00000000000E+00 0.  1.
        -11    1    3    3    0    0  0.23623436817E+03 -0.64829081832E+03 -0.75520789182E+03  0.10229499605E+04  0.00000000000E+00 0. -1.
         22    1    1    2    0    0 -0.46303877609E+03  0.14562438564E+04  0.11832926146E+04  0.19326749570E+04  0.00000000000E+00 0.  1.
<mgrwt>
<rscale>  0 0.42438112E+04</rscale>
<asrwt>0</asrwt>
<pdfrwt beam="1">  1        2 0.37630261E+00 0.42438112E+04</pdfrwt>
<pdfrwt beam="2">  1       -2 0.28319669E+00 0.42438112E+04</pdfrwt>
<totfact> 0.11651006E-01</totfact>
</mgrwt>
</event>
<event>
 6    1  0.1028026E-006  0.3350689E+04  0.7818608E-02  0.8150116E-01
          1   -1    0    0  501    0  0.00000000000E+00  0.00000000000E+00  0.12026863677E+04  0.12026863677E+04  0.00000000000E+00 0. -1.
         -1   -1    0    0    0  501 -0.00000000000E+00 -0.00000000000E+00 -0.23337587288E+04  0.23337587288E+04  0.00000000000E+00 0.  1.
         23    2    1    2    0    0 -0.54527467721E+03 -0.75196694618E+03  0.90401297914E+03  0.12994043942E+04  0.91834370370E+02 0.  0.
         13    1    3    3    0    0 -0.36381324167E+03 -0.46436202791E+03  0.62603819871E+03  0.86018369783E+03  0.00000000000E+00 0. -1.
        -13    1    3    3    0    0 -0.18146143554E+03 -0.28760491827E+03  0.27797478044E+03  0.43922069642E+03  0.00000000000E+00 0.  1.
         22    1    1    2    0    0  0.54527467721E+03  0.75196694618E+03 -0.20350853402E+04  0.22370407023E+04  0.00000000000E+00 0.  1.
<mgrwt>
<rscale>  0 0.33506894E+04</rscale>
<asrwt>0</asrwt>
<pdfrwt beam="1">  1        1 0.18502867E+00 0.33506894E+04</pdfrwt>
<pdfrwt beam="2">  1       -1 0.35903981E+00 0.33506894E+04</pdfrwt>
<totfact> 0.11882662E-01</totfact>
</mgrwt>
</event>
<event>
 6    1  0.1028026E-006  0.2390765E+04  0.7818608E-02  0.8442969E-01
          1   -1    0    0  501    0  0.00000000000E+00  0.00000000000E+00  0.91033203400E+03  0.91033203400E+03  0.00000000000E+00 0. -1.
         -1   -1    0    0    0  501 -0.00000000000E+00 -0.00000000000E+00 -0.15696907154E+04  0.15696907154E+04  0.00000000000E+00 0.  1.
         23    2    1    2    0    0  0.42521783237E+03 -0.86851203222E+03 -0.10558699377E+04  0.14348698747E+04  0.94164096270E+02 0.  0.
         11    1    3    3    0    0  0.31923144791E+03 -0.66074113440E+03 -0.85798765444E+03  0.11289952964E+04  0.00000000000E+00 0. -1.
        -11    1    3    3    0    0  0.10598638446E+03 -0.20777089782E+03 -0.19788228321E+03  0.30587457835E+03  0.00000000000E+00 0.  1.
         22    1    1    2    0    0 -0.42521783237E+03  0.86851203222E+03  0.39651125629E+03  0.10451528747E+04  0.00000000000E+00 0. -1.
<mgrwt>
<rscale>  0 0.23907654E+04</rscale>
<asrwt>0</asrwt>
<pdfrwt beam="1">  1        1 0.14005108E+00 0.23907654E+04</pdfrwt>
<pdfrwt beam="2">  1       -1 0.24149087E+00 0.23907654E+04</pdfrwt>
<totfact> 0.12685239E+00</totfact>
</mgrwt>
</event>
<event>
 6    1  0.1028026E-006  0.1466135E+04  0.7818608E-02  0.8907290E-01
         -2   -1    0    0    0  501 -0.00000000000E+00  0.00000000000E+00  0.26160832129E+03  0.26160832129E+03  0.00000000000E+00 0.  1.
          2   -1    0    0  501    0  0.00000000000E+00 -0.00000000000E+00 -0.20541713754E+04  0.20541713754E+04  0.00000000000E+00 0. -1.
         23    2    1    2    0    0 -0.46830077867E+03  0.47749618073E+03 -0.44463929660E+03  0.81105158904E+03  0.11310328944E+03 0.  0.
         13    1    3    3    0    0 -0.21863405479E+03  0.27486456072E+03 -0.28366101501E+03  0.45145868924E+03  0.00000000000E+00 0. -1.
        -13    1    3    3    0    0 -0.24966672388E+03  0.20263162001E+03 -0.16097828159E+03  0.35959289980E+03  0.00000000000E+00 0.  1.
         22    1    1    2    0    0  0.46830077867E+03 -0.47749618073E+03 -0.13479237575E+04  0.15047281077E+04  0.00000000000E+00 0. -1.
<mgrwt>
<rscale>  0 0.14661355E+04</rscale>
<asrwt>0</asrwt>
<pdfrwt beam="1">  1        2 0.31602636E+00 0.14661355E+04</pdfrwt>
<pdfrwt beam="2">  1       -2 0.40247435E-01 0.14661355E+04</pdfrwt>
<totfact> 0.35297725E+01</totfact>
</mgrwt>
</event>
<event>
 6    1  0.1028026E-006  0.1026298E+04  0.7818608E-02  0.9280163E-01
          2   -1    0    0  501    0  0.00000000000E+00  0.00000000000E+00  0.13723607540E+04  0.13723607540E+04  0.00000000000E+00 0. -1.
         -2   -1    0    0    0  501 -0.00000000000E+00 -0.00000000000E+00 -0.19187496642E+03  0.19187496642E+03  0.00000000000E+00 0.  1.
         23    2    1    2    0    0  0.28043555024E+03  0.26021507328E+03  0.83077241988E+02  0.40205608794E+03  0.91603971041E+02 0.  0.
         11    1    3    3    0    0  0.17337670342E+03  0.20529833569E+03  0.29444356615E+02  0.27032176764E+03  0.00000000000E+00 0. -1.
        -11    1    3    3    0    0  0.10705884682E+03  0.54916737594E+02  0.53632885372E+02  0.13173432030E+03  0.00000000000E+00 0.  1.
         22    1    1    2    0    0 -0.28043555024E+03 -0.26021507328E+03  0.10974085456E+04  0.11621796325E+04  0.00000000000E+00 0. -1.
<mgrwt>
<rscale>  0 0.10262976E+04</rscale>
<asrwt>0</asrwt>
<pdfrwt beam="1">  1        2 0.21113242E+00 0.10262976E+04</pdfrwt>
<pdfrwt beam="2">  1       -2 0.29519226E-01 0.10262976E+04</pdfrwt>
<totfact> 0.15795801E+02</totfact>
</mgrwt>
</event>
<event>
 6    1  0.1028026E-006  0.3719678E+04  0.7818608E-02  0.8063615E-01
         -2   -1    0    0    0  501 -0.00000000000E+00  0.00000000000E+00  0.26322454153E+04  0.26322454153E+04  0.00000000000E+00 0.  1.
          2   -1    0    0  501    0  0.00000000000E+00 -0.00000000000E+00 -0.13140873776E+04  0.13140873776E+04  0.00000000000E+00 0. -1.
         23    2    1    2    0    0  0.53138394007E+02  0.11304665374E+04  0.22237206820E+04  0.24969115347E+04  0.94102387764E+02 0.  0.
         13    1    3    3    0    0  0.76244851134E+02  0.66880062939E+03  0.12928691746E+04  0.14576070327E+04  0.00000000000E+00 0. -1.
        -13    1    3    3    0    0 -0.23106457127E+02  0.46166590805E+03  0.93085150733E+03  0.10393045019E+04  0.00000000000E+00 0.  1.
         22    1    1    2    0    0 -0.53138394007E+02 -0.11304665374E+04 -0.90556264420E+03  0.14494212582E+04  0.00000000000E+00 0. -1.
<mgrwt>
<rscale>  0 0.37196777E+04</rscale>
<asrwt>0</asrwt>
<pdfrwt beam="1">  1        2 0.20216729E+00 0.37196777E+04</pdfrwt>
<pdfrwt beam="2">  1       -2 0.40496083E+00 0.37196777E+04</pdfrwt>
<totfact> 0.90102750E-02</totfact>
</mgrwt>
</event>
<event>
 6    1  0.1028026E-006  0.3094954E+04  0.7818608E-02  0.8217124E-01
         -2   -1    0    0    0  501 -0.00000000000E+00  0.00000000000E+00  0.10451211880E+04  0.10451211880E+04  0.00000000000E+00 0.  1.
          2   -1    0    0  501    0  0.00000000000E+00 -0.00000000000E+00 -0.22912989377E+04  0.22912989377E+04  0.00000000000E+00 0. -1.
         23    2    1    2    0    0 -0.51407335344E+03 -0.13525251281E+03 -0.21888112191E+04  0.22542359859E+04  0.90114772709E+02 0.  0.
         13    1    3    3    0    0 -0.12545615215E+03  0.58511495121E+01 -0.53024302474E+03  0.54491388985E+03  0.00000000000E+00 0.  1.
        -13    1    3    3    0    0 -0.38861720128E+03 -0.14110366232E+03 -0.16585681943E+04  0.17093220960E+04  0.00000000000E+00 0. -1.
         22    1    1    2    0    0  0.51407335344E+03  0.13525251281E+03  0.94263346933E+03  0.10821841398E+04  0.00000000000E+00 0.  1.
<mgrwt>
<rscale>  0 0.30949540E+04</rscale>
<asrwt>0</asrwt>
<pdfrwt beam="1">  1        2 0.35250753E+00 0.30949540E+04</pdfrwt>
<pdfrwt beam="2">  1       -2 0.16078788E+00 0.30949540E+04</pdfrwt>
<totfact> 0.96793455E-01</totfact>
</mgrwt>
</event>
<event>
 6    1  0.1028026E-006  0.2493208E+04  0.7818608E-02  0.8405409E-01
          1   -1    0    0  501    0  0.00000000000E+00  0.00000000000E+00  0.24075231995E+04  0.24075231995E+04  0.00000000000E+00 0. -1.
         -1   -1    0    0    0  501 -0.00000000000E+00 -0.00000000000E+00 -0.64548547727E+03  0.64548547727E+03  0.00000000000E+00 0.  1.
         23    2    1    2    0    0  0.48726581469E+03 -0.80677192741E+03 -0.11372227251E+03  0.95377441760E+03  0.91891062583E+02 0.  0.
         11    1    3    3    0    0  0.39995795836E+03 -0.71405678769E+03 -0.82049898196E+02  0.82254218755E+03  0.00000000000E+00 0.  1.
        -11    1    3    3    0    0  0.87307856323E+02 -0.92715139719E+02 -0.31672374318E+02  0.13123223005E+03  0.00000000000E+00 0. -1.
         22    1    1    2    0    0 -0.48726581469E+03  0.80677192741E+03  0.18757599947E+04  0.20992342591E+04  0.00000000000E+00 0. -1.
<mgrwt>
<rscale>  0 0.24932078E+04</rscale>
<asrwt>0</asrwt>
<pdfrwt beam="1">  1        1 0.37038818E+00 0.24932078E+04</pdfrwt>
<pdfrwt beam="2">  1       -1 0.99305460E-01 0.24932078E+04</pdfrwt>
<totfact> 0.13509987E+00</totfact>
</mgrwt>
</event>
<event>
 6    1  0.1028026E-006  0.4744570E+03  0.7818608E-02  0.1020670E+00
          2   -1    0    0  501    0  0.00000000000E+00  0.00000000000E+00  0.11833085390E+04  0.11833085390E+04  0.00000000000E+00 0. -1.
         -2   -1    0    0    0  501 -0.00000000000E+00 -0.00000000000E+00 -0.47559335812E+02  0.47559335812E+02  0.00000000000E+00 0.  1.
         23    2    1    2    0    0  0.42658483903E+02 -0.10613625559E+03  0.11019813423E+04  0.11115996082E+04  0.90587852433E+02 0.  0.
         13    1    3    3    0    0  0.62943344680E+02 -0.10759117988E+03  0.89867082688E+03  0.90727447981E+03  0.00000000000E+00 0. -1.
        -13    1    3    3    0    0 -0.20284860777E+02  0.14549242859E+01  0.20331051547E+03  0.20432512837E+03  0.00000000000E+00 0.  1.
         22    1    1    2    0    0 -0.42658483903E+02  0.10613625559E+03  0.33767860836E+02  0.11926826663E+03  0.00000000000E+00 0.  1.
<mgrwt>
<rscale>  0 0.47445703E+03</rscale>
<asrwt>0</asrwt>
<pdfrwt beam="1">  1        2 0.18204745E+00 0.47445703E+03</pdfrwt>
<pdfrwt beam="2">  1       -2 0.73168218E-02 0.47445703E+03</pdfrwt>
<totfact> 0.22201308E+03</totfact>
</mgrwt>
</event>
<event>
 6    1  0.1028026E-006  0.6837127E+03  0.7818608E-02  0.9745498E-01
         -2   -1    0    0    0  501 -0.00000000000E+00  0.00000000000E+00  0.22598883923E+03  0.22598883923E+03  0.00000000000E+00 0.  1.
          2   -1    0    0  501    0  0.00000000000E+00 -0.00000000000E+00 -0.51713071501E+03  0.51713071501E+03  0.00000000000E+00 0. -1.
         23    2    1    2    0    0 -0.24293454043E+03 -0.22235490714E+03 -0.21168481973E+03  0.40433891811E+03  0.10109699368E+03 0.  0.
         11    1    3    3    0    0 -0.60748893727E+01 -0.28218347198E+02 -0.50724928816E+02  0.58362640472E+02  0.00000000000E+00 0. -1.
        -11    1    3    3    0    0 -0.23685965106E+03 -0.19413655994E+03 -0.16095989091E+03  0.34597627764E+03  0.00000000000E+00 0.  1.
         22    1    1    2    0    0  0.24293454043E+03  0.22235490714E+03 -0.79457056058E+02  0.33878063614E+03  0.00000000000E+00 0.  1.
<mgrwt>
<rscale>  0 0.68371272E+03</rscale>
<asrwt>0</asrwt>
<pdfrwt beam="1">  1        2 0.79558570E-01 0.68371272E+03</pdfrwt>
<pdfrwt beam="2">  1       -2 0.34767514E-01 0.68371272E+03</pdfrwt>
<totfact> 0.46262660E+02</totfact>
</mgrwt>
</event>
<event>
 6    1  0.1028026E-006  0.3643863E+04  0.7818608E-02  0.8080518E-01
         -2   -1    0    0    0  501 -0.00000000000E+00  0.00000000000E+00  0.89123016080E+03  0.89123016080E+03  0.00000000000E+00 0.  1.
          2   -1    0    0  501    0  0.00000000000E+00 -0.00000000000E+00 -0.37245541640E+04  0.37245541640E+04  0.00000000000E+00 0. -1.
         23    2    1    2    0    0  0.10369958055E+04  0.12483293303E+04 -0.37159569573E+03  0.16672605115E+04  0.89374686324E+02 0.  0.
         11    1    3    3    0    0  0.68833347719E+03  0.76892680962E+03 -0.21557212387E+03  0.10542877951E+04  0.00000000000E+00 0. -1.
        -11    1    3    3    0    0  0.34866232834E+03  0.47940252072E+03 -0.15602357186E+03  0.61297271640E+03  0.00000000000E+00 0.  1.
         22    1    1    2    0    0 -0.10369958055E+04 -0.12483293303E+04 -0.24617283075E+04  0.29485238133E+04  0.00000000000E+00 0. -1.
<mgrwt>
<rscale>  0 0.36438633E+04</rscale>
<asrwt>0</asrwt>
<pdfrwt beam="1">  1        2 0.57300833E+00 0.36438633E+04</pdfrwt>
<pdfrwt beam="2">  1       -2 0.13711233E+00 0.36438633E+04</pdfrwt>
<totfact> 0.17194029E-01</totfact>
</mgrwt>
</event>
<event>
 6    1  0.1028026E-006  0.3960424E+04  0.7818608E-02  0.8012578E-01
          1   -1    0    0  501    0  0.00000000000E+00  0.00000000000E+00  0.13680248856E+04  0.13680248856E+04  0.00000000000E+00 0. -1.
         -1   -1    0    0    0  501 -0.00000000000E+00 -0.00000000000E+00 -0.28663510469E+04  0.28663510469E+04  0.00000000000E+00 0.  1.
         23    2    1    2    0    0 -0.10070028660E+04  0.15696984152E+04 -0.14579927219E+04  0.23689980423E+04  0.91657298645E+02 0.  0.
         11    1    3    3    0    0 -0.39294906645E+03  0.69650928156E+03 -0.62371848237E+03  0.10141789257E+04  0.00000000000E+00 0.  1.
        -11    1    3    3    0    0 -0.61405379960E+03  0.87318913364E+03 -0.83427423952E+03  0.13548191166E+04  0.00000000000E+00 0. -1.
         22    1    1    2    0    0  0.10070028660E+04 -0.15696984152E+04 -0.40333439350E+02  0.18653778902E+04  0.00000000000E+00 0. -1.
<mgrwt>
<rscale>  0 0.39604240E+04</rscale>
<asrwt>0</asrwt>
<pdfrwt beam="1">  1        1 0.21046537E+00 0.39604240E+04</pdfrwt>
<pdfrwt beam="2">  1       -1 0.44097708E+00 0.39604240E+04</pdfrwt>
<totfact> 0.23721345E-02</totfact>
</mgrwt>
</event>
<event>
 6    1  0.1028026E-006  0.3279880E+04  0.7818608E-02  0.8168034E-01
         -1   -1    0    0    0  501 -0.00000000000E+00  0.00000000000E+00  0.22117177738E+04  0.22117177738E+04  0.00000000000E+00 0.  1.
          1   -1    0    0  501    0  0.00000000000E+00 -0.00000000000E+00 -0.12159790729E+04  0.12159790729E+04  0.00000000000E+00 0. -1.
         23    2    1    2    0    0 -0.45034227510E+03  0.12904834177E+04  0.14428673387E+04  0.19896149176E+04  0.92443210921E+02 0.  0.
         11    1    3    3    0    0 -0.36937581880E+03  0.11018270418E+04  0.11810597245E+04  0.16569138175E+04  0.00000000000E+00 0. -1.
        -11    1    3    3    0    0 -0.80966456300E+02  0.18865637582E+03  0.26180761418E+03  0.33270110013E+03  0.00000000000E+00 0.  1.
         22    1    1    2    0    0  0.45034227510E+03 -0.12904834177E+04 -0.44712863783E+03  0.14380819291E+04  0.00000000000E+00 0. -1.
<mgrwt>
<rscale>  0 0.32798796E+04</rscale>
<asrwt>0</asrwt>
<pdfrwt beam="1">  1        1 0.18707370E+00 0.32798796E+04</pdfrwt>
<pdfrwt beam="2">  1       -1 0.34026427E+00 0.32798796E+04</pdfrwt>
<totfact> 0.15572776E-01</totfact>
</mgrwt>
</event>
<event>
 6    1  0.1028026E-006  0.6398346E+03  0.7818608E-02  0.9826043E-01
         -1   -1    0    0    0  501 -0.00000000000E+00  0.00000000000E+00  0.28319413216E+03  0.28319413216E+03  0.00000000000E+00 0.  1.
          1   -1    0    0  501    0  0.00000000000E+00 -0.00000000000E+00 -0.36140256571E+03  0.36140256571E+03  0.00000000000E+00 0. -1.
         23    2    1    2    0    0 -0.63622571001E+02  0.24691481120E+03 -0.22397025395E+03  0.35089401859E+03  0.89158185802E+02 0.  0.
         11    1    3    3    0    0 -0.37033386594E+02  0.56787046086E+02 -0.10517935807E+03  0.12513567713E+03  0.00000000000E+00 0.  1.
        -11    1    3    3    0    0 -0.26589184408E+02  0.19012776511E+03 -0.11879089587E+03  0.22575834146E+03  0.00000000000E+00 0. -1.
         22    1    1    2    0    0  0.63622571001E+02 -0.24691481120E+03  0.14576182040E+03  0.29370267928E+03  0.00000000000E+00 0.  1.
<mgrwt>
<rscale>  0 0.63983462E+03</rscale>
<asrwt>0</asrwt>
<pdfrwt beam="1">  1        1 0.55600394E-01 0.63983462E+03</pdfrwt>
<pdfrwt beam="2">  1       -1 0.43568328E-01 0.63983462E+03</pdfrwt>
<totfact> 0.36176682E+02</totfact>
</mgrwt>
</event>
<event>
 6    1  0.1028026E-006  0.3939755E+04  0.7818608E-02  0.8016811E-01
          1   -1    0    0  501    0  0.00000000000E+00  0.00000000000E+00  0.29614786447E+04  0.29614786447E+04  0.00000000000E+00 0. -1.
         -1   -1    0    0    0  501 -0.00000000000E+00 -0.00000000000E+00 -0.13102969650E+04  0.13102969650E+04  0.00000000000E+00 0.  1.
         23    2    1    2    0    0 -0.81669323948E+03  0.12974446729E+04  0.21654063951E+04  0.26547482182E+04  0.91393211641E+02 0.  0.
         13    1    3    3    0    0 -0.60753696073E+03  0.96472728044E+03  0.15394355376E+04  0.19156360977E+04  0.00000000000E+00 0. -1.
        -13    1    3    3    0    0 -0.20915627875E+03  0.33271739249E+03  0.62597085752E+03  0.73911212050E+03  0.00000000000E+00 0.  1.
         22    1    1    2    0    0  0.81669323948E+03 -0.12974446729E+04 -0.51422471541E+03  0.16170273914E+04  0.00000000000E+00 0.  1.
<mgrwt>
<rscale>  0 0.39397546E+04</rscale>
<asrwt>0</asrwt>
<pdfrwt beam="1">  1        1 0.45561210E+00 0.39397546E+04</pdfrwt>
<pdfrwt beam="2">  1       -1 0.20158415E+00 0.39397546E+04</pdfrwt>
<totfact> 0.73569172E-02</totfact>
</mgrwt>
</event>
<event>
 6    1  0.1028026E-006  0.1346569E+04  0.7818608E-02  0.8993430E-01
         -2   -1    0    0    0  501 -0.00000000000E+00  0.00000000000E+00  0.21640558205E+03  0.21640558205E+03  0.00000000000E+00 0.  1.
          2   -1    0    0  501    0  0.00000000000E+00 -0.00000000000E+00 -0.20947322469E+04  0.20947322469E+04  0.00000000000E+00 0. -1.
         23    2    1    2    0    0  0.35517430015E+03 -0.54515584093E+03 -0.12193454746E+04  0.13850709396E+04  0.90963987410E+02 0.  0.
         11    1    3    3    0    0  0.28772431995E+03 -0.46508269817E+03 -0.10821449596E+04  0.12124870779E+04  0.00000000000E+00 0. -1.
        -11    1    3    3    0    0  0.67449980201E+02 -0.80073142760E+02 -0.13720051491E+03  0.17258386168E+03  0.00000000000E+00 0.  1.
         22    1    1    2    0    0 -0.35517430015E+03  0.54515584093E+03 -0.65898119031E+03  0.92606688936E+03  0.00000000000E+00 0.  1.
<mgrwt>
<rscale>  0 0.13465686E+04</rscale>
<asrwt>0</asrwt>
<pdfrwt beam="1">  1        2 0.32226649E+00 0.13465686E+04</pdfrwt>
<pdfrwt beam="2">  1       -2 0.33293168E-01 0.13465686E+04</pdfrwt>
<totfact> 0.48768639E+01</totfact>
</mgrwt>
</event>
<event>
 6    1  0.1028026E-006  0.7532616E+03  0.7818608E-02  0.9630247E-01
          1   -1    0    0  501    0  0.00000000000E+00  0.00000000000E+00  0.59150793045E+03  0.59150793045E+03  0.00000000000E+00 0. -1.
         -1   -1    0    0    0  501 -0.00000000000E+00 -0.00000000000E+00 -0.23981208291E+03  0.23981208291E+03  0.00000000000E+00 0.  1.
         23    2    1    2    0    0 -0.23333030720E+03 -0.19780536002E+03 -0.54379685662E+02  0.32292318865E+03  0.88046821908E+02 0.  0.
         13    1    3    3    0    0 -0.15734266579E+03 -0.11439123756E+03  0.66414886911E+01  0.19464372345E+03  0.00000000000E+00 0. -1.
        -13    1    3    3    0    0 -0.75987641410E+02 -0.83414122455E+02 -0.61021174353E+02  0.12827946520E+03  0.00000000000E+00 0.  1.
         22    1    1    2    0    0  0.23333030720E+03  0.19780536002E+03  0.40607553320E+03  0.50839682471E+03  0.00000000000E+00 0. -1.
<mgrwt>
<rscale>  0 0.75326157E+03</rscale>
<asrwt>0</asrwt>
<pdfrwt beam="1">  1        1 0.91001219E-01 0.75326157E+03</pdfrwt>
<pdfrwt beam="2">  1       -1 0.36894167E-01 0.75326157E+03</pdfrwt>
<totfact> 0.24954319E+02</totfact>
</mgrwt>
</event>
<event>
 6    1  0.1028026E-006  0.1395514E+04  0.7818608E-02  0.8957072E-01
         -2   -1    0    0    0  501 -0.00000000000E+00  0.00000000000E+00  0.69516301630E+03  0.69516301630E+03  0.00000000000E+00 0.  1.
          2   -1    0    0  501    0  0.00000000000E+00 -0.00000000000E+00 -0.70036084909E+03  0.70036084909E+03  0.00000000000E+00 0. -1.
         23    2    1    2    0    0  0.66760202598E+03  0.11087962153E+03  0.15248468964E+03  0.70064939224E+03  0.98342435966E+02 0.  0.
         13    1    3    3    0    0  0.13290992681E+03  0.53959247848E+01 -0.57557944649E+01  0.13314388389E+03  0.00000000000E+00 0. -1.
        -13    1    3    3    0    0  0.53469209917E+03  0.10548369675E+03  0.15824048411E+03  0.56750550835E+03  0.00000000000E+00 0.  1.
         22    1    1    2    0    0 -0.66760202598E+03 -0.11087962153E+03 -0.15768252243E+03  0.69487447315E+03  0.00000000000E+00 0. -1.
<mgrwt>
<rscale>  0 0.13955142E+04</rscale>
<asrwt>0</asrwt>
<pdfrwt beam="1">  1        2 0.10774782E+00 0.13955142E+04</pdfrwt>
<pdfrwt beam="2">  1       -2 0.10694816E+00 0.13955142E+04</pdfrwt>
<totfact> 0.28039786E+01</totfact>
</mgrwt>
</event>
<event>
 6    1  0.1028026E-006  0.9298815E+03  0.7818608E-02  0.9388980E-01
         -2   -1    0    0    0  501 -0.00000000000E+00  0.00000000000E+00  0.20696994657E+04  0.20696994657E+04  0.00000000000E+00 0.  1.
          2   -1    0    0  501    0  0.00000000000E+00 -0.00000000000E+00 -0.10444507491E+03  0.10444507491E+03  0.00000000000E+00 0. -1.
         23    2    1    2    0    0 -0.44243183253E+03 -0.88152618999E+02  0.12068633419E+04  0.12917195899E+04  0.92214760834E+02 0.  0.
         13    1    3    3    0    0 -0.37271740074E+03 -0.54174995681E+02  0.10707989328E+04  0.11351050812E+04  0.00000000000E+00 0.  1.
        -13    1    3    3    0    0 -0.69714431786E+02 -0.33977623318E+02  0.13606440918E+03  0.15661450868E+03  0.00000000000E+00 0. -1.
         22    1    1    2    0    0  0.44243183253E+03  0.88152618999E+02  0.75839104888E+03  0.88242495074E+03  0.00000000000E+00 0. -1.
<mgrwt>
<rscale>  0 0.92988153E+03</rscale>
<asrwt>0</asrwt>
<pdfrwt beam="1">  1        2 0.16068475E-01 0.92988153E+03</pdfrwt>
<pdfrwt beam="2">  1       -2 0.31841527E+00 0.92988153E+03</pdfrwt>
<totfact> 0.92687423E+00</totfact>
</mgrwt>
</event>
<event>
 6    1  0.1028026E-006  0.4648306E+04  0.7818608E-02  0.7885175E-01
         -2   -1    0    0    0  501 -0.00000000000E+00  0.00000000000E+00  0.51316288090E+04  0.51316288090E+04  0.00000000000E+00 0.  1.
          2   -1    0    0  501    0  0.00000000000E+00 -0.00000000000E+00 -0.10526261128E+04  0.10526261128E+04  0.00000000000E+00 0. -1.
         23    2    1    2    0    0  0.13268971544E+04  0.18982705287E+04  0.22836494131E+04  0.32538316641E+04  0.90987900841E+02 0.  0.
         13    1    3    3    0    0  0.57825075929E+03  0.87975549009E+03  0.99023090531E+03  0.14453030509E+04  0.00000000000E+00 0.  1.
        -13    1    3    3    0    0  0.74864639509E+03  0.10185150386E+04  0.12934185078E+04  0.18085286132E+04  0.00000000000E+00 0. -1.
         22    1    1    2    0    0 -0.13268971544E+04 -0.18982705287E+04  0.17953532831E+04  0.29304232578E+04  0.00000000000E+00 0.  1.
<mgrwt>
<rscale>  0 0.46483057E+04</rscale>
<asrwt>0</asrwt>
<pdfrwt beam="1">  1        2 0.16194248E+00 0.46483057E+04</pdfrwt>
<pdfrwt beam="2">  1       -2 0.78948134E+00 0.46483057E+04</pdfrwt>
<totfact> 0.15803937E-03</totfact>
</mgrwt>
</event>
<event>
 6    1  0.1028026E-006  0.2011865E+04  0.7818608E-02  0.8601093E-01
          2   -1    0    0  501    0  0.00000000000E+00  0.00000000000E+00  0.75106890893E+03  0.75106890893E+03  0.00000000000E+00 0. -1.
         -2   -1    0    0    0  501 -0.00000000000E+00 -0.00000000000E+00 -0.13472802603E+04  0.13472802603E+04  0.00000000000E+00 0.  1.
         23    2    1    2    0    0  0.84028617841E+03 -0.10977480496E+03 -0.85995128623E+03  0.12108300862E+04  0.91988660449E+02 0.  0.
         11    1    3    3    0    0  0.80835793669E+02  0.41052279823E+01 -0.11741811328E+03  0.14261238292E+03  0.00000000000E+00 0.  1.
        -11    1    3    3    0    0  0.75945038474E+03 -0.11388003294E+03 -0.74253317295E+03  0.10682177033E+04  0.00000000000E+00 0. -1.
         22    1    1    2    0    0 -0.84028617841E+03  0.10977480496E+03  0.26373993486E+03  0.88751908299E+03  0.00000000000E+00 0. -1.
<mgrwt>
<rscale>  0 0.20118651E+04</rscale>
<asrwt>0</asrwt>
<pdfrwt beam="1">  1        2 0.11554907E+00 0.20118651E+04</pdfrwt>
<pdfrwt beam="2">  1       -2 0.20727388E+00 0.20118651E+04</pdfrwt>
<totfact> 0.41404017E+00</totfact>
</mgrwt>
</event>
<event>
 6    1  0.1028026E-006  0.1605342E+04  0.7818608E-02  0.8817273E-01
         -2   -1    0    0    0  501 -0.00000000000E+00  0.00000000000E+00  0.42058902879E+03  0.42058902879E+03  0.00000000000E+00 0.  1.
          2   -1    0    0  501    0  0.00000000000E+00 -0.00000000000E+00 -0.15318535221E+04  0.15318535221E+04  0.00000000000E+00 0. -1.
         23    2    1    2    0    0  0.16697499417E+03  0.43065266419E+03 -0.13520015501E+04  0.14315810565E+04  0.90408871159E+02 0.  0.
         13    1    3    3    0    0  0.16717922132E+02  0.13886212401E+03 -0.47562448100E+03  0.49576287208E+03  0.00000000000E+00 0. -1.
        -13    1    3    3    0    0  0.15025707203E+03  0.29179054018E+03 -0.87637706908E+03  0.93581818440E+03  0.00000000000E+00 0.  1.
         22    1    1    2    0    0 -0.16697499417E+03 -0.43065266419E+03  0.24073705678E+03  0.52086149441E+03  0.00000000000E+00 0.  1.
<mgrwt>
<rscale>  0 0.16053421E+04</rscale>
<asrwt>0</asrwt>
<pdfrwt beam="1">  1        2 0.23566977E+00 0.16053421E+04</pdfrwt>
<pdfrwt beam="2">  1       -2 0.64706006E-01 0.16053421E+04</pdfrwt>
<totfact> 0.25733732E+01</totfact>
</mgrwt>
</event>
<event>
 6    1  0.1028026E-006  0.6558599E+03  0.7818608E-02  0.9795845E-01
          2   -1    0    0  501    0  0.00000000000E+00  0.00000000000E+00  0.48960812644E+03  0.48960812644E+03  0.00000000000E+00 0. -1.
         -2   -1    0    0    0  501 -0.00000000000E+00 -0.00000000000E+00 -0.21964106936E+03  0.21964106936E+03  0.00000000000E+00 0.  1.
         23    2    1    2    0    0  0.27460751397E+03 -0.60259441329E+02  0.30606774104E+03  0.42579947119E+03  0.92667365146E+02 0.  0.
         11    1    3    3    0    0  0.20325558943E+03 -0.74989199205E+02  0.26456362218E+03  0.34195047128E+03  0.00000000000E+00 0. -1.
        -11    1    3    3    0    0  0.71351924543E+02  0.14729757876E+02  0.41504118862E+02  0.83848999908E+02  0.00000000000E+00 0.  1.
         22    1    1    2    0    0 -0.27460751397E+03  0.60259441329E+02 -0.36100683957E+02  0.28344972461E+03  0.00000000000E+00 0.  1.
<mgrwt>
<rscale>  0 0.65585990E+03</rscale>
<asrwt>0</asrwt>
<pdfrwt beam="1">  1        2 0.75324326E-01 0.65585990E+03</pdfrwt>
<pdfrwt beam="2">  1       -2 0.33790934E-01 0.65585990E+03</pdfrwt>
<totfact> 0.52056655E+02</totfact>
</mgrwt>
</event>
<event>
 6    1  0.1028026E-006  0.2771782E+04  0.7818608E-02  0.8312083E-01
          3   -1    0    0  501    0  0.00000000000E+00  0.00000000000E+00  0.11366870466E+04  0.11366870466E+04  0.00000000000E+00 0. -1.
         -3   -1    0    0    0  501 -0.00000000000E+00 -0.00000000000E+00 -0.16897297804E+04  0.16897297804E+04  0.00000000000E+00 0.  1.
         23    2    1    2    0    0  0.54607239676E+03  0.79790947099E+03 -0.12872537493E+04  0.16123655918E+04  0.88577650564E+02 0.  0.
         13    1    3    3    0    0  0.17424619022E+03  0.19087433897E+03 -0.31778527318E+03  0.40961228978E+03  0.00000000000E+00 0.  1.
        -13    1    3    3    0    0  0.37182620653E+03  0.60703513201E+03 -0.96946847616E+03  0.12027533021E+04  0.00000000000E+00 0. -1.
         22    1    1    2    0    0 -0.54607239676E+03 -0.79790947099E+03  0.73421101547E+03  0.12140512352E+04  0.00000000000E+00 0. -1.
<mgrwt>
<rscale>  0 0.27717821E+04</rscale>
<asrwt>0</asrwt>
<pdfrwt beam="1">  1        3 0.17487493E+00 0.27717821E+04</pdfrwt>
<pdfrwt beam="2">  1       -3 0.25995843E+00 0.27717821E+04</pdfrwt>
<totfact> 0.31218353E-02</totfact>
</mgrwt>
</event>
<event>
 6    1  0.1028026E-006  0.3759979E+04  0.7818608E-02  0.8054798E-01
         -2   -1    0    0    0  501 -0.00000000000E+00  0.00000000000E+00  0.13526701528E+04  0.13526701528E+04  0.00000000000E+00 0.  1.
          2   -1    0    0  501    0  0.00000000000E+00 -0.00000000000E+00 -0.26128771448E+04  0.26128771448E+04  0.00000000000E+00 0. -1.
         23    2    1    2    0    0  0.68230540128E+03  0.41612872305E+02  0.12153559452E+04  0.13973408909E+04  0.90549434286E+02 0.  0.
         13    1    3    3    0    0  0.55052615471E+03  0.10961865184E+02  0.91477673081E+03  0.10677151665E+04  0.00000000000E+00 0. -1.
        -13    1    3    3    0    0  0.13177924657E+03  0.30651007121E+02  0.30057921437E+03  0.32962572438E+03  0.00000000000E+00 0.  1.
         22    1    1    2    0    0 -0.68230540128E+03 -0.41612872305E+02 -0.24755629371E+04  0.25682064067E+04  0.00000000000E+00 0. -1.
<mgrwt>
<rscale>  0 0.37599792E+04</rscale>
<asrwt>0</asrwt>
<pdfrwt beam="1">  1        2 0.40198110E+00 0.37599792E+04</pdfrwt>
<pdfrwt beam="2">  1       -2 0.20810310E+00 0.37599792E+04</pdfrwt>
<totfact> 0.28331370E-01</totfact>
</mgrwt>
</event>
<event>
 6    1  0.1028026E-006  0.3454401E+04  0.7818608E-02  0.8124682E-01
          2   -1    0    0  501    0  0.00000000000E+00  0.00000000000E+00  0.25286911647E+04  0.25286911647E+04  0.00000000000E+00 0. -1.
         -2   -1    0    0    0  501 -0.00000000000E+00 -0.00000000000E+00 -0.11797495185E+04  0.11797495185E+04  0.00000000000E+00 0.  1.
         23    2    1    2    0    0  0.15034340100E+04 -0.68669397628E+03  0.14101392725E+03  0.16612592517E+04  0.89637794945E+02 0.  0.
         11    1    3    3    0    0  0.95294894164E+03 -0.46439516664E+03  0.56369824238E+02  0.10615800079E+04  0.00000000000E+00 0. -1.
        -11    1    3    3    0    0  0.55048506831E+03 -0.22229880964E+03  0.84644103012E+02  0.59967924375E+03  0.00000000000E+00 0.  1.
         22    1    1    2    0    0 -0.15034340100E+04  0.68669397628E+03  0.12079277189E+04  0.20471814315E+04  0.00000000000E+00 0. -1.
<mgrwt>
<rscale>  0 0.34544014E+04</rscale>
<asrwt>0</asrwt>
<pdfrwt beam="1">  1        2 0.38902941E+00 0.34544014E+04</pdfrwt>
<pdfrwt beam="2">  1       -2 0.18149993E+00 0.34544014E+04</pdfrwt>
<totfact> 0.48913473E-01</totfact>
</mgrwt>
</event>
<event>
 6    1  0.1028026E-006  0.1172137E+04  0.7818608E-02  0.9137601E-01
          2   -1    0    0  501    0  0.00000000000E+00  0.00000000000E+00  0.39493515031E+03  0.39493515031E+03  0.00000000000E+00 0. -1.
         -2   -1    0    0    0  501 -0.00000000000E+00 -0.00000000000E+00 -0.86970270565E+03  0.86970270565E+03  0.00000000000E+00 0.  1.
         23    2    1    2    0    0  0.51185633742E+03  0.55059524015E+01 -0.53891760902E+03  0.74874789186E+03  0.90354803861E+02 0.  0.
         13    1    3    3    0    0  0.49944479392E+03 -0.89927558728E+01 -0.50828946143E+03  0.71265991078E+03  0.00000000000E+00 0.  1.
        -13    1    3    3    0    0  0.12411543508E+02  0.14498708274E+02 -0.30628147590E+02  0.36087981084E+02  0.00000000000E+00 0. -1.
         22    1    1    2    0    0 -0.51185633742E+03 -0.55059524015E+01  0.64150053682E+02  0.51588996410E+03  0.00000000000E+00 0. -1.
<mgrwt>
<rscale>  0 0.11721368E+04</rscale>
<asrwt>0</asrwt>
<pdfrwt beam="1">  1        2 0.60759254E-01 0.11721368E+04</pdfrwt>
<pdfrwt beam="2">  1       -2 0.13380042E+00 0.11721368E+04</pdfrwt>
<totfact> 0.32161608E+01</totfact>
</mgrwt>
</event>
<event>
 6    1  0.1028026E-006  0.2037085E+04  0.7818608E-02  0.8589476E-01
          1   -1    0    0  501    0  0.00000000000E+00  0.00000000000E+00  0.12990148642E+04  0.12990148642E+04  0.00000000000E+00 0. -1.
         -1   -1    0    0    0  501 -0.00000000000E+00 -0.00000000000E+00 -0.79862736634E+03  0.79862736634E+03  0.00000000000E+00 0.  1.
         23    2    1    2    0    0 -0.90271708710E+03 -0.26887462259E+03 -0.14297656165E+03  0.95698057382E+03  0.90431296944E+02 0.  0.
         11    1    3    3    0    0 -0.30735535843E+03 -0.84906146605E+02 -0.91422408603E+02  0.33171437546E+03  0.00000000000E+00 0. -1.
        -11    1    3    3    0    0 -0.59536172867E+03 -0.18396847599E+03 -0.51554153045E+02  0.62526619837E+03  0.00000000000E+00 0.  1.
         22    1    1    2    0    0  0.90271708710E+03  0.26887462259E+03  0.64336405949E+03  0.11406616567E+04  0.00000000000E+00 0. -1.
<mgrwt>
<rscale>  0 0.20370850E+04</rscale>
<asrwt>0</asrwt>
<pdfrwt beam="1">  1        1 0.19984844E+00 0.20370850E+04</pdfrwt>
<pdfrwt beam="2">  1       -1 0.12286575E+00 0.20370850E+04</pdfrwt>
<totfact> 0.48938408E+00</totfact>
</mgrwt>
</event>
<event>
 6    1  0.1028026E-006  0.2775924E+04  0.7818608E-02  0.8310782E-01
          2   -1    0    0  501    0  0.00000000000E+00  0.00000000000E+00  0.40832388058E+04  0.40832388058E+04  0.00000000000E+00 0. -1.
         -2   -1    0    0    0  501 -0.00000000000E+00 -0.00000000000E+00 -0.47179184339E+03  0.47179184339E+03  0.00000000000E+00 0.  1.
         23    2    1    2    0    0 -0.32818158704E+03  0.16155732629E+03  0.40021130479E+04  0.40198447805E+04  0.91865594576E+02 0.  0.
         13    1    3    3    0    0 -0.94653252232E+02  0.65082568165E+02  0.86887617253E+03  0.87643641072E+03  0.00000000000E+00 0. -1.
        -13    1    3    3    0    0 -0.23352833481E+03  0.96474758124E+02  0.31332368754E+04  0.31434083698E+04  0.00000000000E+00 0.  1.
         22    1    1    2    0    0  0.32818158704E+03 -0.16155732629E+03 -0.39066608545E+03  0.53518586872E+03  0.00000000000E+00 0.  1.
<mgrwt>
<rscale>  0 0.27759242E+04</rscale>
<asrwt>0</asrwt>
<pdfrwt beam="1">  1        2 0.62819056E+00 0.27759242E+04</pdfrwt>
<pdfrwt beam="2">  1       -2 0.72583363E-01 0.27759242E+04</pdfrwt>
<totfact> 0.43793833E-01</totfact>
</mgrwt>
</event>
<event>
 6    1  0.1028026E-006  0.5173120E+03  0.7818608E-02  0.1009356E+00
          1   -1    0    0  501    0  0.00000000000E+00  0.00000000000E+00  0.27322961286E+03  0.27322961286E+03  0.00000000000E+00 0. -1.
         -1   -1    0    0    0  501 -0.00000000000E+00 -0.00000000000E+00 -0.24485968991E+03  0.24485968991E+03  0.00000000000E+00 0.  1.
         23    2    1    2    0    0 -0.15015101747E+03 -0.10158033006E+03  0.17830505556E+03  0.28283532194E+03  0.12385166529E+03 0.  0.
         11    1    3    3    0    0  0.24329790289E+01 -0.58102461745E+02  0.68656941310E+02  0.89975502432E+02  0.00000000000E+00 0. -1.
        -11    1    3    3    0    0 -0.15258399650E+03 -0.43477868312E+02  0.10964811425E+03  0.19285981951E+03  0.00000000000E+00 0.  1.
         22    1    1    2    0    0  0.15015101747E+03  0.10158033006E+03 -0.14993513262E+03  0.23525398083E+03  0.00000000000E+00 0.  1.
<mgrwt>
<rscale>  0 0.51731197E+03</rscale>
<asrwt>0</asrwt>
<pdfrwt beam="1">  1        1 0.42035325E-01 0.51731197E+03</pdfrwt>
<pdfrwt beam="2">  1       -1 0.37670722E-01 0.51731197E+03</pdfrwt>
<totfact> 0.67828984E+02</totfact>
</mgrwt>
</event>
<event>
 6    1  0.1028026E-006  0.2287037E+04  0.7818608E-02  0.8483050E-01
         -2   -1    0    0    0  501 -0.00000000000E+00  0.00000000000E+00  0.69659939092E+03  0.69659939092E+03  0.00000000000E+00 0.  1.
          2   -1    0    0  501    0  0.00000000000E+00 -0.00000000000E+00 -0.18771682042E+04  0.18771682042E+04  0.00000000000E+00 0. -1.
         23    2    1    2    0    0  0.10481912060E+04 -0.15753354315E+03 -0.11328316814E+03  0.10695667209E+04  0.87282716935E+02 0.  0.
         11    1    3    3    0    0  0.64991756196E+03 -0.83616670543E+02 -0.11022512373E+03  0.66448037054E+03  0.00000000000E+00 0.  1.
        -11    1    3    3    0    0  0.39827364408E+03 -0.73916872609E+02 -0.30580444139E+01  0.40508635038E+03  0.00000000000E+00 0. -1.
         22    1    1    2    0    0 -0.10481912060E+04  0.15753354315E+03 -0.10672856451E+04  0.15042008742E+04  0.00000000000E+00 0.  1.
<mgrwt>
<rscale>  0 0.22870367E+04</rscale>
<asrwt>0</asrwt>
<pdfrwt beam="1">  1        2 0.28879511E+00 0.22870367E+04</pdfrwt>
<pdfrwt beam="2">  1       -2 0.10716914E+00 0.22870367E+04</pdfrwt>
<totfact> 0.49653972E+00</totfact>
</mgrwt>
</event>
<event>
 6    1  0.1028026E-006  0.1814577E+04  0.7818608E-02  0.8698586E-01
         -2   -1    0    0    0  501 -0.00000000000E+00  0.00000000000E+00  0.31744159952E+03  0.31744159952E+03  0.00000000000E+00 0.  1.
          2   -1    0    0  501    0  0.00000000000E+00 -0.00000000000E+00 -0.25931451603E+04  0.25931451603E+04  0.00000000000E+00 0. -1.
         23    2    1    2    0    0  0.75971214187E+03  0.15531725819E+03 -0.39228908223E+03  0.87379121603E+03  0.91292803533E+02 0.  0.
         11    1    3    3    0    0  0.54497950448E+03  0.14397319871E+03 -0.31196800521E+03  0.64424760653E+03  0.00000000000E+00 0. -1.
        -11    1    3    3    0    0  0.21473263740E+03  0.11344059477E+02 -0.80321077018E+02  0.22954360950E+03  0.00000000000E+00 0.  1.
         22    1    1    2    0    0 -0.75971214187E+03 -0.15531725819E+03 -0.18834144785E+04  0.20367955438E+04  0.00000000000E+00 0. -1.
<mgrwt>
<rscale>  0 0.18145767E+04</rscale>
<asrwt>0</asrwt>
<pdfrwt beam="1">  1        2 0.39894542E+00 0.18145767E+04</pdfrwt>
<pdfrwt beam="2">  1       -2 0.48837168E-01 0.18145767E+04</pdfrwt>
<totfact> 0.11516515E+01</totfact>
</mgrwt>
</event>
<event>
 6    1  0.1028026E-006  0.1483793E+04  0.7818608E-02  0.8895303E-01
          1   -1    0    0  501    0  0.00000000000E+00  0.00000000000E+00  0.13363629244E+04  0.13363629244E+04  0.00000000000E+00 0. -1.
         -1   -1    0    0    0  501 -0.00000000000E+00 -0.00000000000E+00 -0.41187193193E+03  0.41187193193E+03  0.00000000000E+00 0.  1.
         23    2    1    2    0    0 -0.49662868259E+03 -0.54708763937E+03  0.49006447023E+03  0.89110514809E+03  0.89220325294E+02 0.  0.
         13    1    3    3    0    0 -0.33998945654E+03 -0.31007780156E+03  0.30246170987E+03  0.55065793331E+03  0.00000000000E+00 0.  1.
        -13    1    3    3    0    0 -0.15663922605E+03 -0.23700983781E+03  0.18760276036E+03  0.34044721478E+03  0.00000000000E+00 0. -1.
         22    1    1    2    0    0  0.49662868259E+03  0.54708763937E+03  0.43442652224E+03  0.85712970824E+03  0.00000000000E+00 0. -1.
<mgrwt>
<rscale>  0 0.14837929E+04</rscale>
<asrwt>0</asrwt>
<pdfrwt beam="1">  1        1 0.20559429E+00 0.14837929E+04</pdfrwt>
<pdfrwt beam="2">  1       -1 0.63364913E-01 0.14837929E+04</pdfrwt>
<totfact> 0.20848556E+01</totfact>
</mgrwt>
</event>
<event>
 6    1  0.1028026E-006  0.4802255E+04  0.7818608E-02  0.7859757E-01
         -2   -1    0    0    0  501 -0.00000000000E+00  0.00000000000E+00  0.15175366233E+04  0.15175366233E+04  0.00000000000E+00 0.  1.
          2   -1    0    0  501    0  0.00000000000E+00 -0.00000000000E+00 -0.37991915139E+04  0.37991915139E+04  0.00000000000E+00 0. -1.
         23    2    1    2    0    0  0.26608713190E+03 -0.72408806775E+03  0.13752834152E+04  0.15793087516E+04  0.87782509392E+02 0.  0.
         11    1    3    3    0    0  0.23782143144E+03 -0.58973154817E+03  0.10722005098E+04  0.12465778216E+04  0.00000000000E+00 0. -1.
        -11    1    3    3    0    0  0.28265700461E+02 -0.13435651958E+03  0.30308290542E+03  0.33273092993E+03  0.00000000000E+00 0.  1.
         22    1    1    2    0    0 -0.26608713190E+03  0.72408806775E+03 -0.36569383059E+04  0.37374193857E+04  0.00000000000E+00 0. -1.
<mgrwt>
<rscale>  0 0.48022546E+04</rscale>
<asrwt>0</asrwt>
<pdfrwt beam="1">  1        2 0.58449099E+00 0.48022546E+04</pdfrwt>
<pdfrwt beam="2">  1       -2 0.23346718E+00 0.48022546E+04</pdfrwt>
<totfact> 0.29485387E-02</totfact>
</mgrwt>
</event>
<event>
 6    1  0.1028026E-006  0.2056592E+04  0.7818608E-02  0.8580610E-01
         -2   -1    0    0    0  501 -0.00000000000E+00  0.00000000000E+00  0.43804587402E+03  0.43804587402E+03  0.00000000000E+00 0.  1.
          2   -1    0    0  501    0  0.00000000000E+00 -0.00000000000E+00 -0.24138864318E+04  0.24138864318E+04  0.00000000000E+00 0. -1.
         23    2    1    2    0    0 -0.20629878553E+03 -0.34535227559E+03 -0.22991239801E+04  0.23358513487E+04  0.91668227466E+02 0.  0.
         11    1    3    3    0    0 -0.12908895304E+02 -0.90091189021E+02 -0.59089353413E+03  0.59786138075E+03  0.00000000000E+00 0. -1.
        -11    1    3    3    0    0 -0.19338989023E+03 -0.25526108657E+03 -0.17082304460E+04  0.17379899679E+04  0.00000000000E+00 0.  1.
         22    1    1    2    0    0  0.20629878553E+03  0.34535227559E+03  0.32328342234E+03  0.51608095715E+03  0.00000000000E+00 0.  1.
<mgrwt>
<rscale>  0 0.20565923E+04</rscale>
<asrwt>0</asrwt>
<pdfrwt beam="1">  1        2 0.37136715E+00 0.20565923E+04</pdfrwt>
<pdfrwt beam="2">  1       -2 0.67391671E-01 0.20565923E+04</pdfrwt>
<totfact> 0.72904618E+00</totfact>
</mgrwt>
</event>
<event>
 6    1  0.1028026E-006  0.2648048E+04  0.7818608E-02  0.8352061E-01
         -1   -1    0    0    0  501 -0.00000000000E+00  0.00000000000E+00  0.15067014804E+04  0.15067014804E+04  0.00000000000E+00 0.  1.
          1   -1    0    0  501    0  0.00000000000E+00 -0.00000000000E+00 -0.11634951619E+04  0.11634951619E+04  0.00000000000E+00 0. -1.
         23    2    1    2    0    0  0.11514745323E+04  0.54661628924E+02  0.82535382425E+03  0.14206576436E+04  0.90430707289E+02 0.  0.
         11    1    3    3    0    0  0.68421005577E+03  0.76754643758E+02  0.48690562408E+03  0.84327442895E+03  0.00000000000E+00 0.  1.
        -11    1    3    3    0    0  0.46726447651E+03 -0.22093014834E+02  0.33844820017E+03  0.57738321461E+03  0.00000000000E+00 0. -1.
         22    1    1    2    0    0 -0.11514745323E+04 -0.54661628924E+02 -0.48214750579E+03  0.12495389988E+04  0.00000000000E+00 0. -1.
<mgrwt>
<rscale>  0 0.26480482E+04</rscale>
<asrwt>0</asrwt>
<pdfrwt beam="1">  1        1 0.17899926E+00 0.26480482E+04</pdfrwt>
<pdfrwt beam="2">  1       -1 0.23180023E+00 0.26480482E+04</pdfrwt>
<totfact> 0.91557600E-01</totfact>
</mgrwt>
</event>
<event>
 6    1  0.1028026E-006  0.1992300E+04  0.7818608E-02  0.8610229E-01
         -4   -1    0    0    0  501 -0.00000000000E+00  0.00000000000E+00  0.95044028900E+03  0.95044028900E+03  0.00000000000E+00 0.  1.
          4   -1    0    0  501    0  0.00000000000E+00 -0.00000000000E+00 -0.10440582875E+04  0.10440582875E+04  0.00000000000E+00 0. -1.
         23    2    1    2    0    0 -0.39326332195E+03  0.83942977457E+03 -0.40640521442E+03  0.10161662050E+04  0.90167460912E+02 0.  0.
         13    1    3    3    0    0 -0.34749292314E+03  0.68321539198E+03 -0.36040218699E+03  0.84700905536E+03  0.00000000000E+00 0.  1.
        -13    1    3    3    0    0 -0.45770398809E+02  0.15621438259E+03 -0.46003027430E+02  0.16915714962E+03  0.00000000000E+00 0. -1.
         22    1    1    2    0    0  0.39326332195E+03 -0.83942977457E+03  0.31278721588E+03  0.97833237156E+03  0.00000000000E+00 0.  1.
<mgrwt>
<rscale>  0 0.19923002E+04</rscale>
<asrwt>0</asrwt>
<pdfrwt beam="1">  1        4 0.16062435E+00 0.19923002E+04</pdfrwt>
<pdfrwt beam="2">  1       -4 0.14622158E+00 0.19923002E+04</pdfrwt>
<totfact> 0.14673905E-01</totfact>
</mgrwt>
</event>
<event>
 6    1  0.1028026E-006  0.3166004E+04  0.7818608E-02  0.8197854E-01
          2   -1    0    0  501    0  0.00000000000E+00  0.00000000000E+00  0.15874714767E+04  0.15874714767E+04  0.00000000000E+00 0. -1.
         -2   -1    0    0    0  501 -0.00000000000E+00 -0.00000000000E+00 -0.15785447317E+04  0.15785447317E+04  0.00000000000E+00 0.  1.
         23    2    1    2    0    0  0.29541445002E+03 -0.14877539172E+04 -0.44348980714E+03  0.15831826251E+04  0.95407546954E+02 0.  0.
         13    1    3    3    0    0  0.10981329289E+03 -0.71268369422E+03 -0.24829028613E+03  0.76264347731E+03  0.00000000000E+00 0. -1.
        -13    1    3    3    0    0  0.18560115713E+03 -0.77507022300E+03 -0.19519952101E+03  0.82053914783E+03  0.00000000000E+00 0.  1.
         22    1    1    2    0    0 -0.29541445002E+03  0.14877539172E+04  0.45241655213E+03  0.15828335832E+04  0.00000000000E+00 0. -1.
<mgrwt>
<rscale>  0 0.31660036E+04</rscale>
<asrwt>0</asrwt>
<pdfrwt beam="1">  1        2 0.24422638E+00 0.31660036E+04</pdfrwt>
<pdfrwt beam="2">  1       -2 0.24285304E+00 0.31660036E+04</pdfrwt>
<totfact> 0.68071842E-01</totfact>
</mgrwt>
</event>
<event>
 6    1  0.1028026E-006  0.1290594E+04  0.7818608E-02  0.9037057E-01
         -2   -1    0    0    0  501 -0.00000000000E+00  0.00000000000E+00  0.40806133642E+03  0.40806133642E+03  0.00000000000E+00 0.  1.
          2   -1    0    0  501    0  0.00000000000E+00 -0.00000000000E+00 -0.10204553569E+04  0.10204553569E+04  0.00000000000E+00 0. -1.
         23    2    1    2    0    0 -0.24827333871E+02 -0.15495017688E+03 -0.99690680176E+03  0.10132143542E+04  0.90300622501E+02 0.  0.
         13    1    3    3    0    0 -0.54043676347E+02 -0.71986913676E+02 -0.59706225027E+03  0.60380970958E+03  0.00000000000E+00 0. -1.
        -13    1    3    3    0    0  0.29216342476E+02 -0.82963263200E+02 -0.39984455150E+03  0.40940464466E+03  0.00000000000E+00 0.  1.
         22    1    1    2    0    0  0.24827333871E+02  0.15495017688E+03  0.38451278131E+03  0.41530233904E+03  0.00000000000E+00 0.  1.
<mgrwt>
<rscale>  0 0.12905942E+04</rscale>
<asrwt>0</asrwt>
<pdfrwt beam="1">  1        2 0.15699313E+00 0.12905942E+04</pdfrwt>
<pdfrwt beam="2">  1       -2 0.62778668E-01 0.12905942E+04</pdfrwt>
<totfact> 0.56391805E+01</totfact>
</mgrwt>
</event>
<event>
 6    1  0.1028026E-006  0.2565143E+04  0.7818608E-02  0.8380139E-01
          1   -1    0    0  501    0  0.00000000000E+00  0.00000000000E+00  0.12191804997E+04  0.12191804997E+04  0.00000000000E+00 0. -1.
         -1   -1    0    0    0  501 -0.00000000000E+00 -0.00000000000E+00 -0.13492581807E+04  0.13492581807E+04  0.00000000000E+00 0.  1.
         23    2    1    2    0    0 -0.96275451779E+02  0.66475837236E+03  0.10269798613E+04  0.12305467519E+04  0.91569737616E+02 0.  0.
         11    1    3    3    0    0 -0.29559445314E+02  0.92857339934E+02  0.10253674747E+03  0.14145681662E+03  0.00000000000E+00 0. -1.
        -11    1    3    3    0    0 -0.66716006465E+02  0.57190103242E+03  0.92444311385E+03  0.10890899353E+04  0.00000000000E+00 0.  1.
         22    1    1    2    0    0  0.96275451779E+02 -0.66475837236E+03 -0.11570575423E+04  0.13378919286E+04  0.00000000000E+00 0.  1.
<mgrwt>
<rscale>  0 0.25651427E+04</rscale>
<asrwt>0</asrwt>
<pdfrwt beam="1">  1        1 0.18756623E+00 0.25651427E+04</pdfrwt>
<pdfrwt beam="2">  1       -1 0.20757818E+00 0.25651427E+04</pdfrwt>
<totfact> 0.12204879E+00</totfact>
</mgrwt>
</event>
<event>
 6    1  0.1028026E-006  0.2312456E+04  0.7818608E-02  0.8473026E-01
          2   -1    0    0  501    0  0.00000000000E+00  0.00000000000E+00  0.14469207620E+04  0.14469207620E+04  0.00000000000E+00 0. -1.
         -2   -1    0    0    0  501 -0.00000000000E+00 -0.00000000000E+00 -0.92393665308E+03  0.92393665308E+03  0.00000000000E+00 0.  1.
         23    2    1    2    0    0  0.11447542307E+04  0.21395608577E+02  0.41279041497E+03  0.12206128015E+04  0.92626474955E+02 0.  0.
         13    1    3    3    0    0  0.95134822685E+03  0.26525404660E+01  0.30873792289E+03  0.10001947759E+04  0.00000000000E+00 0.  1.
        -13    1    3    3    0    0  0.19340600382E+03  0.18743068111E+02  0.10405249208E+03  0.22041802563E+03  0.00000000000E+00 0. -1.
         22    1    1    2    0    0 -0.11447542307E+04 -0.21395608577E+02  0.11019369391E+03  0.11502446135E+04  0.00000000000E+00 0. -1.
<mgrwt>
<rscale>  0 0.23124559E+04</rscale>
<asrwt>0</asrwt>
<pdfrwt beam="1">  1        2 0.22260319E+00 0.23124559E+04</pdfrwt>
<pdfrwt beam="2">  1       -2 0.14214410E+00 0.23124559E+04</pdfrwt>
<totfact> 0.42543442E+00</totfact>
</mgrwt>
</event>
<event>
 6    1  0.1028026E-006  0.1080565E+04  0.7818608E-02  0.9224344E-01
          1   -1    0    0  501    0  0.00000000000E+00  0.00000000000E+00  0.84244963332E+03  0.84244963332E+03  0.00000000000E+00 0. -1.
         -1   -1    0    0    0  501 -0.00000000000E+00 -0.00000000000E+00 -0.34649567360E+03  0.34649567360E+03  0.00000000000E+00 0.  1.
         23    2    1    2    0    0  0.46048449898E+03  0.27512056405E+03  0.23615249199E+03  0.59293012155E+03  0.89782130748E+02 0.  0.
         11    1    3    3    0    0  0.22576597529E+03  0.14220452586E+03  0.16590852220E+03  0.31419427192E+03  0.00000000000E+00 0. -1.
        -11    1    3    3    0    0  0.23471852370E+03  0.13291603818E+03  0.70243969789E+02  0.27873584962E+03  0.00000000000E+00 0.  1.
         22    1    1    2    0    0 -0.46048449898E+03 -0.27512056405E+03  0.25980146774E+03  0.59601518538E+03  0.00000000000E+00 0.  1.
<mgrwt>
<rscale>  0 0.10805650E+04</rscale>
<asrwt>0</asrwt>
<pdfrwt beam="1">  1        1 0.12960764E+00 0.10805650E+04</pdfrwt>
<pdfrwt beam="2">  1       -1 0.53307027E-01 0.10805650E+04</pdfrwt>
<totfact> 0.71970047E+01</totfact>
</mgrwt>
</event>
<event>
 6    1  0.1028026E-006  0.7548456E+03  0.7818608E-02  0.9627779E-01
         -2   -1    0    0    0  501 -0.00000000000E+00  0.00000000000E+00  0.79176359374E+03  0.79176359374E+03  0.00000000000E+00 0.  1.
          2   -1    0    0  501    0  0.00000000000E+00 -0.00000000000E+00 -0.17991226272E+03  0.17991226272E+03  0.00000000000E+00 0. -1.
         23    2    1    2    0    0 -0.19404264997E+03 -0.31729649342E+03  0.30653522765E+03  0.49048198937E+03  0.90989677222E+02 0.  0.
         13    1    3    3    0    0 -0.17262183461E+03 -0.20264163289E+03  0.20921479069E+03  0.33857459711E+03  0.00000000000E+00 0. -1.
        -13    1    3    3    0    0 -0.21420815368E+02 -0.11465486053E+03  0.97320436962E+02  0.15190739226E+03  0.00000000000E+00 0.  1.
         22    1    1    2    0    0  0.19404264997E+03  0.31729649342E+03  0.30531610337E+03  0.48119386709E+03  0.00000000000E+00 0.  1.
<mgrwt>
<rscale>  0 0.75484563E+03</rscale>
<asrwt>0</asrwt>
<pdfrwt beam="1">  1        2 0.27678810E-01 0.75484563E+03</pdfrwt>
<pdfrwt beam="2">  1       -2 0.12180978E+00 0.75484563E+03</pdfrwt>
<totfact> 0.10067502E+02</totfact>
</mgrwt>
</event>
<event>
 6    1  0.1028026E-006  0.1355874E+04  0.7818608E-02  0.8986393E-01
          2   -1    0    0  501    0  0.00000000000E+00  0.00000000000E+00  0.15334906689E+04  0.15334906689E+04  0.00000000000E+00 0. -1.
         -2   -1    0    0    0  501 -0.00000000000E+00 -0.00000000000E+00 -0.29970741839E+03  0.29970741839E+03  0.00000000000E+00 0.  1.
         23    2    1    2    0    0  0.26072969491E+03  0.61629059689E+03  0.50203668433E+03  0.84160991133E+03  0.92045297581E+02 0.  0.
         11    1    3    3    0    0  0.58555938847E+02  0.25218151349E+03  0.19990350365E+03  0.32708672319E+03  0.00000000000E+00 0.  1.
        -11    1    3    3    0    0  0.20217375606E+03  0.36410908341E+03  0.30213318068E+03  0.51452318813E+03  0.00000000000E+00 0. -1.
         22    1    1    2    0    0 -0.26072969491E+03 -0.61629059689E+03  0.73174656622E+03  0.99158817601E+03  0.00000000000E+00 0. -1.
<mgrwt>
<rscale>  0 0.13558739E+04</rscale>
<asrwt>0</asrwt>
<pdfrwt beam="1">  1        2 0.23592164E+00 0.13558739E+04</pdfrwt>
<pdfrwt beam="2">  1       -2 0.46108834E-01 0.13558739E+04</pdfrwt>
<totfact> 0.52906502E+01</totfact>
</mgrwt>
</event>
<event>
 6    1  0.1028026E-006  0.6560569E+03  0.7818608E-02  0.9795480E-01
         -1   -1    0    0    0  501 -0.00000000000E+00  0.00000000000E+00  0.19293852470E+03  0.19293852470E+03  0.00000000000E+00 0.  1.
          1   -1    0    0  501    0  0.00000000000E+00 -0.00000000000E+00 -0.55770442699E+03  0.55770442699E+03  0.00000000000E+00 0. -1.
         23    2    1    2    0    0 -0.49676650391E+02 -0.54516390261E+02 -0.54279462348E+03  0.55794102650E+03  0.10598292015E+03 0.  0.
         11    1    3    3    0    0  0.26519072916E+02 -0.22813346032E+02 -0.28794080578E+03  0.29005795562E+03  0.00000000000E+00 0.  1.
        -11    1    3    3    0    0 -0.76195723307E+02 -0.31703044229E+02 -0.25485381770E+03  0.26788307087E+03  0.00000000000E+00 0. -1.
         22    1    1    2    0    0  0.49676650391E+02  0.54516390261E+02  0.17802872120E+03  0.19270192519E+03  0.00000000000E+00 0.  1.
<mgrwt>
<rscale>  0 0.65605692E+03</rscale>
<asrwt>0</asrwt>
<pdfrwt beam="1">  1        1 0.85800682E-01 0.65605692E+03</pdfrwt>
<pdfrwt beam="2">  1       -1 0.29682850E-01 0.65605692E+03</pdfrwt>
<totfact> 0.39986892E+02</totfact>
</mgrwt>
</event>
<event>
 6    1  0.1233403E-006  0.4075714E+04  0.7818608E-02  0.7989445E-01
         -1   -1    0    0    0  501 -0.00000000000E+00  0.00000000000E+00  0.22390090041E+04  0.22390090041E+04  0.00000000000E+00 0.  1.
          1   -1    0    0  501    0  0.00000000000E+00 -0.00000000000E+00 -0.18547760533E+04  0.18547760533E+04  0.00000000000E+00 0. -1.
         23    2    1    2    0    0  0.19888167922E+04 -0.77498692839E+02 -0.24255289456E+03  0.20070989822E+04  0.90642912451E+02 0.  0.
         13    1    3    3    0    0  0.10863508397E+04  0.73934765270E+00 -0.14595722112E+03  0.10961123136E+04  0.00000000000E+00 0. -1.
        -13    1    3    3    0    0  0.90246595249E+03 -0.78238040491E+02 -0.96595673436E+02  0.91098666868E+03  0.00000000000E+00 0.  1.
         22    1    1    2    0    0 -0.19888167922E+04  0.77498692839E+02  0.62678584534E+03  0.20866860751E+04  0.00000000000E+00 0.  1.
<mgrwt>
<rscale>  0 0.40757136E+04</rscale>
<asrwt>0</asrwt>
<pdfrwt beam="1">  1        1 0.28535016E+00 0.40757136E+04</pdfrwt>
<pdfrwt beam="2">  1       -1 0.34446292E+00 0.40757136E+04</pdfrwt>
<totfact> 0.49160212E-02</totfact>
</mgrwt>
</event>
<event>
 6    1  0.1028026E-006  0.1890812E+04  0.7818608E-02  0.8659443E-01
         -2   -1    0    0    0  501 -0.00000000000E+00  0.00000000000E+00  0.57306839505E+03  0.57306839505E+03  0.00000000000E+00 0.  1.
          2   -1    0    0  501    0  0.00000000000E+00 -0.00000000000E+00 -0.15596614611E+04  0.15596614611E+04  0.00000000000E+00 0. -1.
         23    2    1    2    0    0 -0.78380653103E+03 -0.49558605983E+03 -0.68954496881E+03  0.11589764003E+04  0.88293893197E+02 0.  0.
         11    1    3    3    0    0 -0.26029204177E+03 -0.13528488042E+03 -0.25923127141E+03  0.39147771068E+03  0.00000000000E+00 0. -1.
        -11    1    3    3    0    0 -0.52351448925E+03 -0.36030117942E+03 -0.43031369740E+03  0.76749868959E+03  0.00000000000E+00 0.  1.
         22    1    1    2    0    0  0.78380653103E+03  0.49558605983E+03 -0.29704809725E+03  0.97375345589E+03  0.00000000000E+00 0.  1.
<mgrwt>
<rscale>  0 0.18908122E+04</rscale>
<asrwt>0</asrwt>
<pdfrwt beam="1">  1        2 0.23994791E+00 0.18908122E+04</pdfrwt>
<pdfrwt beam="2">  1       -2 0.88164371E-01 0.18908122E+04</pdfrwt>
<totfact> 0.12202730E+01</totfact>
</mgrwt>
</event>
<event>
 6    1  0.1028026E-006  0.2011879E+04  0.7818608E-02  0.8601087E-01
         -2   -1    0    0    0  501 -0.00000000000E+00  0.00000000000E+00  0.80953109617E+03  0.80953109617E+03  0.00000000000E+00 0.  1.
          2   -1    0    0  501    0  0.00000000000E+00 -0.00000000000E+00 -0.12500000748E+04  0.12500000748E+04  0.00000000000E+00 0. -1.
         23    2    1    2    0    0 -0.11910885916E+03  0.81269330417E+03 -0.81146009170E+03  0.11582588853E+04  0.91863148735E+02 0.  0.
         13    1    3    3    0    0 -0.12692862339E+03  0.66433025202E+03 -0.63677751592E+03  0.92894088292E+03  0.00000000000E+00 0. -1.
        -13    1    3    3    0    0  0.78197642309E+01  0.14836305215E+03 -0.17468257577E+03  0.22931800243E+03  0.00000000000E+00 0.  1.
         22    1    1    2    0    0  0.11910885916E+03 -0.81269330417E+03  0.37099111302E+03  0.90127228567E+03  0.00000000000E+00 0.  1.
<mgrwt>
<rscale>  0 0.20118787E+04</rscale>
<asrwt>0</asrwt>
<pdfrwt beam="1">  1        2 0.19230770E+00 0.20118787E+04</pdfrwt>
<pdfrwt beam="2">  1       -2 0.12454325E+00 0.20118787E+04</pdfrwt>
<totfact> 0.79457316E+00</totfact>
</mgrwt>
</event>
<event>
 6    1  0.1028026E-006  0.2318798E+04  0.7818608E-02  0.8470546E-01
         -1   -1    0    0    0  501 -0.00000000000E+00  0.00000000000E+00  0.13698224951E+04  0.13698224951E+04  0.00000000000E+00 0.  1.
          1   -1    0    0  501    0  0.00000000000E+00 -0.00000000000E+00 -0.98129950269E+03  0.98129950269E+03  0.00000000000E+00 0. -1.
         23    2    1    2    0    0  0.76371533555E+03  0.62241579551E+02 -0.68534374181E+03  0.10319082582E+04  0.89462175467E+02 0.  0.
         11    1    3    3    0    0  0.42716905217E+03  0.11482763866E+02 -0.33045045928E+03  0.54018770723E+03  0.00000000000E+00 0.  1.
        -11    1    3    3    0    0  0.33654628338E+03  0.50758815685E+02 -0.35489328253E+03  0.49172055093E+03  0.00000000000E+00 0. -1.
         22    1    1    2    0    0 -0.76371533555E+03 -0.62241579551E+02  0.10738667342E+04  0.13192137396E+04  0.00000000000E+00 0.  1.
<mgrwt>
<rscale>  0 0.23187981E+04</rscale>
<asrwt>0</asrwt>
<pdfrwt beam="1">  1        1 0.15096915E+00 0.23187981E+04</pdfrwt>
<pdfrwt beam="2">  1       -1 0.21074192E+00 0.23187981E+04</pdfrwt>
<totfact> 0.17948325E+00</totfact>
</mgrwt>
</event>
<event>
 6    1  0.1028026E-006  0.2959210E+04  0.7818608E-02  0.8255476E-01
         -2   -1    0    0    0  501 -0.00000000000E+00  0.00000000000E+00  0.82134927687E+03  0.82134927687E+03  0.00000000000E+00 0.  1.
          2   -1    0    0  501    0  0.00000000000E+00 -0.00000000000E+00 -0.26654078928E+04  0.26654078928E+04  0.00000000000E+00 0. -1.
         23    2    1    2    0    0  0.91163070852E+03 -0.10382043652E+04 -0.15420279366E+04  0.20724865506E+04  0.91714188794E+02 0.  0.
         13    1    3    3    0    0  0.24574032887E+03 -0.23176696604E+03 -0.34214707981E+03  0.48080022879E+03  0.00000000000E+00 0.  1.
        -13    1    3    3    0    0  0.66589037965E+03 -0.80643739918E+03 -0.11998808568E+04  0.15916863218E+04  0.00000000000E+00 0. -1.
         22    1    1    2    0    0 -0.91163070852E+03  0.10382043652E+04 -0.30203067931E+03  0.14142706191E+04  0.00000000000E+00 0.  1.
<mgrwt>
<rscale>  0 0.29592099E+04</rscale>
<asrwt>0</asrwt>
<pdfrwt beam="1">  1        2 0.41006275E+00 0.29592099E+04</pdfrwt>
<pdfrwt beam="2">  1       -2 0.12636143E+00 0.29592099E+04</pdfrwt>
<totfact> 0.11154367E+00</totfact>
</mgrwt>
</event>
<event>
 6    1  0.1028026E-006  0.2572181E+04  0.7818608E-02  0.8377712E-01
          2   -1    0    0  501    0  0.00000000000E+00  0.00000000000E+00  0.28335248138E+04  0.28335248138E+04  0.00000000000E+00 0. -1.
         -2   -1    0    0    0  501 -0.00000000000E+00 -0.00000000000E+00 -0.58373545917E+03  0.58373545917E+03  0.00000000000E+00 0.  1.
         23    2    1    2    0    0  0.65877116356E+03  0.20825147723E+03  0.25649286031E+04  0.26578783732E+04  0.90058781563E+02 0.  0.
         11    1    3    3    0    0  0.15210077594E+01  0.35074245408E+01  0.58711743012E+02  0.58836079569E+02  0.00000000000E+00 0.  1.
        -11    1    3    3    0    0  0.65725015580E+03  0.20474405268E+03  0.25062168601E+04  0.25990422936E+04  0.00000000000E+00 0. -1.
         22    1    1    2    0    0 -0.65877116356E+03 -0.20825147723E+03 -0.31513924848E+03  0.75938189973E+03  0.00000000000E+00 0.  1.
<mgrwt>
<rscale>  0 0.25721811E+04</rscale>
<asrwt>0</asrwt>
<pdfrwt beam="1">  1        2 0.43592689E+00 0.25721811E+04</pdfrwt>
<pdfrwt beam="2">  1       -2 0.89805457E-01 0.25721811E+04</pdfrwt>
<totfact> 0.20774708E+00</totfact>
</mgrwt>
</event>
<event>
 6    1  0.1028026E-006  0.4636171E+04  0.7818608E-02  0.7887222E-01
          2   -1    0    0  501    0  0.00000000000E+00  0.00000000000E+00  0.40973877610E+04  0.40973877610E+04  0.00000000000E+00 0. -1.
         -2   -1    0    0    0  501 -0.00000000000E+00 -0.00000000000E+00 -0.13114503275E+04  0.13114503275E+04  0.00000000000E+00 0.  1.
         23    2    1    2    0    0 -0.30191676250E+03  0.18665053822E+04  0.29563336950E+04  0.35104095386E+04  0.89833953397E+02 0.  0.
         13    1    3    3    0    0 -0.26660945723E+03  0.14859523155E+04  0.24046753960E+04  0.28392954490E+04  0.00000000000E+00 0.  1.
        -13    1    3    3    0    0 -0.35307305272E+02  0.38055306677E+03  0.55165829901E+03  0.67111408963E+03  0.00000000000E+00 0. -1.
         22    1    1    2    0    0  0.30191676250E+03 -0.18665053822E+04 -0.17039626145E+03  0.18984285500E+04  0.00000000000E+00 0.  1.
<mgrwt>
<rscale>  0 0.46361711E+04</rscale>
<asrwt>0</asrwt>
<pdfrwt beam="1">  1        2 0.63036734E+00 0.46361711E+04</pdfrwt>
<pdfrwt beam="2">  1       -2 0.20176159E+00 0.46361711E+04</pdfrwt>
<totfact> 0.27466569E-02</totfact>
</mgrwt>
</event>
<event>
 6    1  0.1028026E-006  0.2950232E+04  0.7818608E-02  0.8258087E-01
         -1   -1    0    0    0  501 -0.00000000000E+00  0.00000000000E+00  0.15910433106E+04  0.15910433106E+04  0.00000000000E+00 0.  1.
          1   -1    0    0  501    0  0.00000000000E+00 -0.00000000000E+00 -0.13676355913E+04  0.13676355913E+04  0.00000000000E+00 0. -1.
         23    2    1    2    0    0 -0.77357933990E+03  0.95197668483E+03 -0.70728205530E+03  0.14189165631E+04  0.91606243073E+02 0.  0.
         11    1    3    3    0    0 -0.59632407217E+03  0.69916453994E+03 -0.49042110462E+03  0.10416075618E+04  0.00000000000E+00 0. -1.
        -11    1    3    3    0    0 -0.17725526773E+03  0.25281214489E+03 -0.21686095068E+03  0.37730900131E+03  0.00000000000E+00 0.  1.
         22    1    1    2    0    0  0.77357933990E+03 -0.95197668483E+03  0.93068977452E+03  0.15397623388E+04  0.00000000000E+00 0.  1.
<mgrwt>
<rscale>  0 0.29502322E+04</rscale>
<asrwt>0</asrwt>
<pdfrwt beam="1">  1        1 0.21040548E+00 0.29502322E+04</pdfrwt>
<pdfrwt beam="2">  1       -1 0.24477589E+00 0.29502322E+04</pdfrwt>
<totfact> 0.52201207E-01</totfact>
</mgrwt>
</event>
<event>
 6    1  0.1028026E-006  0.2925552E+04  0.7818608E-02  0.8265315E-01
          2   -1    0    0  501    0  0.00000000000E+00  0.00000000000E+00  0.29198381984E+04  0.29198381984E+04  0.00000000000E+00 0. -1.
         -2   -1    0    0    0  501 -0.00000000000E+00 -0.00000000000E+00 -0.73281934351E+03  0.73281934351E+03  0.00000000000E+00 0.  1.
         23    2    1    2    0    0  0.96823809349E+03  0.10181387818E+04  0.59312217048E+03  0.15278991497E+04  0.92683967475E+02 0.  0.
         11    1    3    3    0    0  0.79950883166E+03  0.88035535952E+03  0.52204783632E+03  0.12987585897E+04  0.00000000000E+00 0.  1.
        -11    1    3    3    0    0  0.16872926184E+03  0.13778342228E+03  0.71074334160E+02  0.22914055999E+03  0.00000000000E+00 0. -1.
         22    1    1    2    0    0 -0.96823809349E+03 -0.10181387818E+04  0.15938966844E+04  0.21247583922E+04  0.00000000000E+00 0. -1.
<mgrwt>
<rscale>  0 0.29255522E+04</rscale>
<asrwt>0</asrwt>
<pdfrwt beam="1">  1        2 0.44920587E+00 0.29255522E+04</pdfrwt>
<pdfrwt beam="2">  1       -2 0.11274144E+00 0.29255522E+04</pdfrwt>
<totfact> 0.10405741E+00</totfact>
</mgrwt>
</event>
<event>
 6    1  0.1028026E-006  0.3835480E+04  0.7818608E-02  0.8038584E-01
         -1   -1    0    0    0  501 -0.00000000000E+00  0.00000000000E+00  0.22691733883E+04  0.22691733883E+04  0.00000000000E+00 0.  1.
          1   -1    0    0  501    0  0.00000000000E+00 -0.00000000000E+00 -0.16207342106E+04  0.16207342106E+04  0.00000000000E+00 0. -1.
         23    2    1    2    0    0 -0.47968629226E+03 -0.13768552410E+04  0.15861547339E+04  0.21563737058E+04  0.90727203872E+02 0.  0.
         13    1    3    3    0    0 -0.25823806849E+03 -0.87222441316E+03  0.97485780480E+03  0.13333454416E+04  0.00000000000E+00 0. -1.
        -13    1    3    3    0    0 -0.22144822377E+03 -0.50463082788E+03  0.61129692911E+03  0.82302826428E+03  0.00000000000E+00 0.  1.
         22    1    1    2    0    0  0.47968629226E+03  0.13768552410E+04 -0.93771555624E+03  0.17335338930E+04  0.00000000000E+00 0. -1.
<mgrwt>
<rscale>  0 0.38354801E+04</rscale>
<asrwt>0</asrwt>
<pdfrwt beam="1">  1        1 0.24934372E+00 0.38354801E+04</pdfrwt>
<pdfrwt beam="2">  1       -1 0.34910360E+00 0.38354801E+04</pdfrwt>
<totfact> 0.67453725E-02</totfact>
</mgrwt>
</event>
<event>
 6    1  0.1028026E-006  0.3220164E+04  0.7818608E-02  0.8183512E-01
         -2   -1    0    0    0  501 -0.00000000000E+00  0.00000000000E+00  0.89784401717E+03  0.89784401717E+03  0.00000000000E+00 0.  1.
          2   -1    0    0  501    0  0.00000000000E+00 -0.00000000000E+00 -0.28873219800E+04  0.28873219800E+04  0.00000000000E+00 0. -1.
         23    2    1    2    0    0 -0.36835067991E+03 -0.25839291132E+03 -0.28111012968E+04  0.28484088125E+04  0.93237020528E+02 0.  0.
         11    1    3    3    0    0 -0.29094230915E+03 -0.24395714685E+03 -0.22504800166E+04  0.22822845620E+04  0.00000000000E+00 0. -1.
        -11    1    3    3    0    0 -0.77408370766E+02 -0.14435764462E+02 -0.56062128017E+03  0.56612425044E+03  0.00000000000E+00 0.  1.
         22    1    1    2    0    0  0.36835067991E+03  0.25839291132E+03  0.82162333402E+03  0.93675718466E+03  0.00000000000E+00 0.  1.
<mgrwt>
<rscale>  0 0.32201644E+04</rscale>
<asrwt>0</asrwt>
<pdfrwt beam="1">  1        2 0.44420338E+00 0.32201644E+04</pdfrwt>
<pdfrwt beam="2">  1       -2 0.13812985E+00 0.32201644E+04</pdfrwt>
<totfact> 0.63916713E-01</totfact>
</mgrwt>
</event>
<event>
 6    1  0.1028026E-006  0.2240639E+04  0.7818608E-02  0.8501701E-01
          1   -1    0    0  501    0  0.00000000000E+00  0.00000000000E+00  0.16569392742E+04  0.16569392742E+04  0.00000000000E+00 0. -1.
         -1   -1    0    0    0  501 -0.00000000000E+00 -0.00000000000E+00 -0.75749082445E+03  0.75749082445E+03  0.00000000000E+00 0.  1.
         23    2    1    2    0    0  0.46337812955E+03 -0.87941395938E+03  0.10030074414E+04  0.14150239412E+04  0.90446800506E+02 0.  0.
         11    1    3    3    0    0  0.42033633934E+03 -0.74122093959E+03  0.83116760648E+03  0.11903489864E+04  0.00000000000E+00 0. -1.
        -11    1    3    3    0    0  0.43041790207E+02 -0.13819301979E+03  0.17183983494E+03  0.22467495476E+03  0.00000000000E+00 0.  1.
         22    1    1    2    0    0 -0.46337812955E+03  0.87941395938E+03 -0.10355899161E+03  0.99940615750E+03  0.00000000000E+00 0.  1.
<mgrwt>
<rscale>  0 0.22406395E+04</rscale>
<asrwt>0</asrwt>
<pdfrwt beam="1">  1        1 0.25491373E+00 0.22406395E+04</pdfrwt>
<pdfrwt beam="2">  1       -1 0.11653705E+00 0.22406395E+04</pdfrwt>
<totfact> 0.30802738E+00</totfact>
</mgrwt>
</event>
<event>
 6    1  0.1028026E-006  0.1585958E+04  0.7818608E-02  0.8829221E-01
         -3   -1    0    0    0  501 -0.00000000000E+00  0.00000000000E+00  0.82523545728E+03  0.82523545728E+03  0.00000000000E+00 0.  1.
          3   -1    0    0  501    0  0.00000000000E+00 -0.00000000000E+00 -0.76198331355E+03  0.76198331355E+03  0.00000000000E+00 0. -1.
         23    2    1    2    0    0 -0.25784933502E+03 -0.11841133866E+03 -0.70690676186E+03  0.76645555007E+03  0.85025970020E+02 0.  0.
         11    1    3    3    0    0 -0.62767218685E+02 -0.20847323980E+02 -0.27189090387E+03  0.27981958164E+03  0.00000000000E+00 0. -1.
        -11    1    3    3    0    0 -0.19508211633E+03 -0.97564014675E+02 -0.43501585798E+03  0.48663596843E+03  0.00000000000E+00 0.  1.
         22    1    1    2    0    0  0.25784933502E+03  0.11841133866E+03  0.77015890559E+03  0.82076322076E+03  0.00000000000E+00 0.  1.
<mgrwt>
<rscale>  0 0.15859579E+04</rscale>
<asrwt>0</asrwt>
<pdfrwt beam="1">  1        3 0.11722820E+00 0.15859579E+04</pdfrwt>
<pdfrwt beam="2">  1       -3 0.12695930E+00 0.15859579E+04</pdfrwt>
<totfact> 0.74168955E-01</totfact>
</mgrwt>
</event>
<event>
 6    1  0.1028026E-006  0.2335430E+04  0.7818608E-02  0.8464081E-01
         -2   -1    0    0    0  501 -0.00000000000E+00  0.00000000000E+00  0.10698465416E+04  0.10698465416E+04  0.00000000000E+00 0.  1.
          2   -1    0    0  501    0  0.00000000000E+00 -0.00000000000E+00 -0.12745358300E+04  0.12745358300E+04  0.00000000000E+00 0. -1.
         23    2    1    2    0    0  0.10710433925E+04 -0.27959310046E+03 -0.47013539504E+03  0.12060643642E+04  0.90871945078E+02 0.  0.
         11    1    3    3    0    0  0.40553016571E+03 -0.71732727450E+02 -0.20617029413E+03  0.46055020321E+03  0.00000000000E+00 0. -1.
        -11    1    3    3    0    0  0.66551322680E+03 -0.20786037301E+03 -0.26396510091E+03  0.74551416098E+03  0.00000000000E+00 0.  1.
         22    1    1    2    0    0 -0.10710433925E+04  0.27959310046E+03  0.26544610666E+03  0.11383180074E+04  0.00000000000E+00 0.  1.
<mgrwt>
<rscale>  0 0.23354295E+04</rscale>
<asrwt>0</asrwt>
<pdfrwt beam="1">  1        2 0.19608244E+00 0.23354295E+04</pdfrwt>
<pdfrwt beam="2">  1       -2 0.16459177E+00 0.23354295E+04</pdfrwt>
<totfact> 0.36055596E+00</totfact>
</mgrwt>
</event>
<event>
 6    1  0.1028026E-006  0.2842870E+04  0.7818608E-02  0.8290081E-01
         -1   -1    0    0    0  501 -0.00000000000E+00  0.00000000000E+00  0.14825868974E+04  0.14825868974E+04  0.00000000000E+00 0.  1.
          1   -1    0    0  501    0  0.00000000000E+00 -0.00000000000E+00 -0.13628058749E+04  0.13628058749E+04  0.00000000000E+00 0. -1.
         23    2    1    2    0    0  0.58103570081E+03 -0.73324094328E+03 -0.10092480790E+04  0.13791214882E+04  0.90275289430E+02 0.  0.
         13    1    3    3    0    0  0.35316892763E+03 -0.46624567712E+03 -0.69101722182E+03  0.90532763336E+03  0.00000000000E+00 0. -1.
        -13    1    3    3    0    0  0.22786677318E+03 -0.26699526616E+03 -0.31823085716E+03  0.47379385487E+03  0.00000000000E+00 0.  1.
         22    1    1    2    0    0 -0.58103570081E+03  0.73324094328E+03  0.11290291015E+04  0.14662712841E+04  0.00000000000E+00 0.  1.
<mgrwt>
<rscale>  0 0.28428705E+04</rscale>
<asrwt>0</asrwt>
<pdfrwt beam="1">  1        1 0.20966244E+00 0.28428705E+04</pdfrwt>
<pdfrwt beam="2">  1       -1 0.22809029E+00 0.28428705E+04</pdfrwt>
<totfact> 0.68417884E-01</totfact>
</mgrwt>
</event>
<event>
 6    1  0.1028026E-006  0.2820694E+04  0.7818608E-02  0.8296872E-01
          1   -1    0    0  501    0  0.00000000000E+00  0.00000000000E+00  0.27037586268E+04  0.27037586268E+04  0.00000000000E+00 0. -1.
         -1   -1    0    0    0  501 -0.00000000000E+00 -0.00000000000E+00 -0.73567145329E+03  0.73567145329E+03  0.00000000000E+00 0.  1.
         23    2    1    2    0    0  0.13112717443E+03 -0.13978865063E+04  0.11272679845E+04  0.18028916818E+04  0.91674900867E+02 0.  0.
         11    1    3    3    0    0  0.76681035418E+02 -0.10480525690E+04  0.79944074483E+03  0.13203786097E+04  0.00000000000E+00 0.  1.
        -11    1    3    3    0    0  0.54446139015E+02 -0.34983393728E+03  0.32782723963E+03  0.48251307212E+03  0.00000000000E+00 0. -1.
         22    1    1    2    0    0 -0.13112717443E+03  0.13978865063E+04  0.84081918904E+03  0.16365383982E+04  0.00000000000E+00 0.  1.
<mgrwt>
<rscale>  0 0.28206936E+04</rscale>
<asrwt>0</asrwt>
<pdfrwt beam="1">  1        1 0.41596286E+00 0.28206936E+04</pdfrwt>
<pdfrwt beam="2">  1       -1 0.11318022E+00 0.28206936E+04</pdfrwt>
<totfact> 0.60081203E-01</totfact>
</mgrwt>
</event>
<event>
 6    1  0.1028026E-006  0.3044276E+04  0.7818608E-02  0.8231199E-01
         -2   -1    0    0    0  501 -0.00000000000E+00  0.00000000000E+00  0.14848618519E+04  0.14848618519E+04  0.00000000000E+00 0.  1.
          2   -1    0    0  501    0  0.00000000000E+00 -0.00000000000E+00 -0.15603497761E+04  0.15603497761E+04  0.00000000000E+00 0. -1.
         23    2    1    2    0    0 -0.64779886100E+03 -0.11124923917E+04  0.77216247497E+03  0.15038505785E+04  0.89716156729E+02 0.  0.
         11    1    3    3    0    0 -0.34415759819E+03 -0.61552397122E+03  0.37272592255E+03  0.79764580164E+03  0.00000000000E+00 0.  1.
        -11    1    3    3    0    0 -0.30364126281E+03 -0.49696842047E+03  0.39943655242E+03  0.70620477684E+03  0.00000000000E+00 0. -1.
         22    1    1    2    0    0  0.64779886100E+03  0.11124923917E+04 -0.84765039911E+03  0.15413610495E+04  0.00000000000E+00 0. -1.
<mgrwt>
<rscale>  0 0.30442758E+04</rscale>
<asrwt>0</asrwt>
<pdfrwt beam="1">  1        2 0.24005381E+00 0.30442758E+04</pdfrwt>
<pdfrwt beam="2">  1       -2 0.22844029E+00 0.30442758E+04</pdfrwt>
<totfact> 0.87550224E-01</totfact>
</mgrwt>
</event>
<event>
 6    1  0.1028026E-006  0.3393979E+04  0.7818608E-02  0.8139386E-01
         -1   -1    0    0    0  501 -0.00000000000E+00  0.00000000000E+00  0.82924271147E+03  0.82924271147E+03  0.00000000000E+00 0.  1.
          1   -1    0    0  501    0  0.00000000000E+00 -0.00000000000E+00 -0.34727743714E+04  0.34727743714E+04  0.00000000000E+00 0. -1.
         23    2    1    2    0    0  0.29736712401E+03  0.93306481789E+03  0.43204782449E+03  0.10742893487E+04  0.91624894502E+02 0.  0.
         11    1    3    3    0    0  0.18631650108E+03  0.71415468999E+03  0.32916288379E+03  0.80813301125E+03  0.00000000000E+00 0. -1.
        -11    1    3    3    0    0  0.11105062292E+03  0.21891012790E+03  0.10288494070E+03  0.26615633746E+03  0.00000000000E+00 0.  1.
         22    1    1    2    0    0 -0.29736712401E+03 -0.93306481789E+03 -0.30755794844E+04  0.32277277341E+04  0.00000000000E+00 0. -1.
<mgrwt>
<rscale>  0 0.33939787E+04</rscale>
<asrwt>0</asrwt>
<pdfrwt beam="1">  1        1 0.53427298E+00 0.33939787E+04</pdfrwt>
<pdfrwt beam="2">  1       -1 0.12757580E+00 0.33939787E+04</pdfrwt>
<totfact> 0.11475187E-01</totfact>
</mgrwt>
</event>
<event>
 6    1  0.1028026E-006  0.1811877E+04  0.7818608E-02  0.8700009E-01
          1   -1    0    0  501    0  0.00000000000E+00  0.00000000000E+00  0.99255991266E+03  0.99255991266E+03  0.00000000000E+00 0. -1.
         -1   -1    0    0    0  501 -0.00000000000E+00 -0.00000000000E+00 -0.82687632630E+03  0.82687632630E+03  0.00000000000E+00 0.  1.
         23    2    1    2    0    0 -0.46774394267E+02  0.78110789434E+03  0.53725606166E+03  0.95318945486E+03  0.87227716312E+02 0.  0.
         11    1    3    3    0    0 -0.55226413380E+02  0.57345484969E+03  0.43295691614E+03  0.72066088600E+03  0.00000000000E+00 0.  1.
        -11    1    3    3    0    0  0.84520191123E+01  0.20765304465E+03  0.10429914552E+03  0.23252856886E+03  0.00000000000E+00 0. -1.
         22    1    1    2    0    0  0.46774394267E+02 -0.78110789434E+03 -0.37157247530E+03  0.86624678410E+03  0.00000000000E+00 0. -1.
<mgrwt>
<rscale>  0 0.18118767E+04</rscale>
<asrwt>0</asrwt>
<pdfrwt beam="1">  1        1 0.15270153E+00 0.18118767E+04</pdfrwt>
<pdfrwt beam="2">  1       -1 0.12721174E+00 0.18118767E+04</pdfrwt>
<totfact> 0.77441855E+00</totfact>
</mgrwt>
</event>
<event>
 6    1  0.1028026E-006  0.1463790E+04  0.7818608E-02  0.8908896E-01
         -1   -1    0    0    0  501 -0.00000000000E+00  0.00000000000E+00  0.68985324497E+03  0.68985324497E+03  0.00000000000E+00 0.  1.
          1   -1    0    0  501    0  0.00000000000E+00 -0.00000000000E+00 -0.77649922799E+03  0.77649922799E+03  0.00000000000E+00 0. -1.
         23    2    1    2    0    0 -0.64642447804E+02  0.19018393503E+03  0.65816372010E+03  0.69493166104E+03  0.96963683164E+02 0.  0.
         13    1    3    3    0    0 -0.66732519836E+02  0.61470280418E+02  0.21275022005E+03  0.23128873883E+03  0.00000000000E+00 0. -1.
        -13    1    3    3    0    0  0.20900720317E+01  0.12871365462E+03  0.44541350005E+03  0.46364292221E+03  0.00000000000E+00 0.  1.
         22    1    1    2    0    0  0.64642447804E+02 -0.19018393503E+03 -0.74480970312E+03  0.77142081192E+03  0.00000000000E+00 0. -1.
<mgrwt>
<rscale>  0 0.14637903E+04</rscale>
<asrwt>0</asrwt>
<pdfrwt beam="1">  1        1 0.11946142E+00 0.14637903E+04</pdfrwt>
<pdfrwt beam="2">  1       -1 0.10613127E+00 0.14637903E+04</pdfrwt>
<totfact> 0.18686462E+01</totfact>
</mgrwt>
</event>
<event>
 6    1  0.1028026E-006  0.1881245E+04  0.7818608E-02  0.8664248E-01
          2   -1    0    0  501    0  0.00000000000E+00  0.00000000000E+00  0.15284260477E+04  0.15284260477E+04  0.00000000000E+00 0. -1.
         -2   -1    0    0    0  501 -0.00000000000E+00 -0.00000000000E+00 -0.57887725865E+03  0.57887725865E+03  0.00000000000E+00 0.  1.
         23    2    1    2    0    0 -0.21371613253E+03 -0.25346727862E+03 -0.50763795996E+03  0.61287583468E+03  0.89444081437E+02 0.  0.
         11    1    3    3    0    0 -0.82671149685E+02 -0.38096369780E+02 -0.14543735850E+03  0.17157469985E+03  0.00000000000E+00 0. -1.
        -11    1    3    3    0    0 -0.13104498285E+03 -0.21537090884E+03 -0.36220060146E+03  0.44130113483E+03  0.00000000000E+00 0.  1.
         22    1    1    2    0    0  0.21371613253E+03  0.25346727862E+03  0.14571867490E+04  0.14944274717E+04  0.00000000000E+00 0. -1.
<mgrwt>
<rscale>  0 0.18812454E+04</rscale>
<asrwt>0</asrwt>
<pdfrwt beam="1">  1        2 0.23514247E+00 0.18812454E+04</pdfrwt>
<pdfrwt beam="2">  1       -2 0.89058040E-01 0.18812454E+04</pdfrwt>
<totfact> 0.12424839E+01</totfact>
</mgrwt>
</event>
<event>
 6    1  0.1028026E-006  0.1686897E+04  0.7818608E-02  0.8768873E-01
         -1   -1    0    0    0  501 -0.00000000000E+00  0.00000000000E+00  0.31639388895E+03  0.31639388895E+03  0.00000000000E+00 0.  1.
          1   -1    0    0  501    0  0.00000000000E+00 -0.00000000000E+00 -0.22484810387E+04  0.22484810387E+04  0.00000000000E+00 0. -1.
         23    2    1    2    0    0  0.36264873687E+03 -0.50942672762E+03 -0.18239364325E+04  0.19302677462E+04  0.90331417793E+02 0.  0.
         13    1    3    3    0    0  0.66503829105E+02 -0.10646392803E+03 -0.26797684239E+03  0.29592045437E+03  0.00000000000E+00 0.  1.
        -13    1    3    3    0    0  0.29614490776E+03 -0.40296279960E+03 -0.15559595901E+04  0.16343472918E+04  0.00000000000E+00 0. -1.
         22    1    1    2    0    0 -0.36264873687E+03  0.50942672762E+03 -0.10815071730E+03  0.63460718151E+03  0.00000000000E+00 0.  1.
<mgrwt>
<rscale>  0 0.16868973E+04</rscale>
<asrwt>0</asrwt>
<pdfrwt beam="1">  1        1 0.34592015E+00 0.16868973E+04</pdfrwt>
<pdfrwt beam="2">  1       -1 0.48675984E-01 0.16868973E+04</pdfrwt>
<totfact> 0.81296036E+00</totfact>
</mgrwt>
</event>
<event>
 6    1  0.1028026E-006  0.1311929E+04  0.7818608E-02  0.9020158E-01
          1   -1    0    0  501    0  0.00000000000E+00  0.00000000000E+00  0.40869365045E+04  0.40869365045E+04  0.00000000000E+00 0. -1.
         -1   -1    0    0    0  501 -0.00000000000E+00 -0.00000000000E+00 -0.10528416566E+03  0.10528416566E+03  0.00000000000E+00 0.  1.
         23    2    1    2    0    0  0.24153991691E+03  0.13480894823E+03  0.38898599344E+04  0.39007745696E+04  0.92287320647E+02 0.  0.
         13    1    3    3    0    0  0.18986726833E+03  0.70181625108E+02  0.30971044788E+04  0.31037124855E+04  0.00000000000E+00 0.  1.
        -13    1    3    3    0    0  0.51672648573E+02  0.64627323125E+02  0.79275545561E+03  0.79706208410E+03  0.00000000000E+00 0. -1.
         22    1    1    2    0    0 -0.24153991691E+03 -0.13480894823E+03  0.91792404351E+02  0.29144610047E+03  0.00000000000E+00 0.  1.
<mgrwt>
<rscale>  0 0.13119294E+04</rscale>
<asrwt>0</asrwt>
<pdfrwt beam="1">  1        1 0.62875934E+00 0.13119294E+04</pdfrwt>
<pdfrwt beam="2">  1       -1 0.16197567E-01 0.13119294E+04</pdfrwt>
<totfact> 0.23560475E+00</totfact>
</mgrwt>
</event>
<event>
 6    1  0.1028026E-006  0.1108479E+04  0.7818608E-02  0.9196966E-01
          2   -1    0    0  501    0  0.00000000000E+00  0.00000000000E+00  0.25796690742E+04  0.25796690742E+04  0.00000000000E+00 0. -1.
         -2   -1    0    0    0  501 -0.00000000000E+00 -0.00000000000E+00 -0.11907794381E+03  0.11907794381E+03  0.00000000000E+00 0.  1.
         23    2    1    2    0    0 -0.32590071224E+03 -0.86015999112E+02  0.22982383432E+04  0.23246234370E+04  0.91458270411E+02 0.  0.
         11    1    3    3    0    0 -0.31663265606E+02 -0.39422546414E+02  0.28227342180E+03  0.28676642797E+03  0.00000000000E+00 0.  1.
        -11    1    3    3    0    0 -0.29423744663E+03 -0.46593452698E+02  0.20159649214E+04  0.20378570091E+04  0.00000000000E+00 0. -1.
         22    1    1    2    0    0  0.32590071224E+03  0.86015999112E+02  0.16235278710E+03  0.37412358095E+03  0.00000000000E+00 0.  1.
<mgrwt>
<rscale>  0 0.11084795E+04</rscale>
<asrwt>0</asrwt>
<pdfrwt beam="1">  1        2 0.39687212E+00 0.11084795E+04</pdfrwt>
<pdfrwt beam="2">  1       -2 0.18319686E-01 0.11084795E+04</pdfrwt>
<totfact> 0.78123991E+01</totfact>
</mgrwt>
</event>
<event>
 6    1  0.1028026E-006  0.2138440E+04  0.7818608E-02  0.8544497E-01
          2   -1    0    0  501    0  0.00000000000E+00  0.00000000000E+00  0.82681369908E+03  0.82681369908E+03  0.00000000000E+00 0. -1.
         -2   -1    0    0    0  501 -0.00000000000E+00 -0.00000000000E+00 -0.13826950494E+04  0.13826950494E+04  0.00000000000E+00 0.  1.
         23    2    1    2    0    0  0.64419360389E+03 -0.11152507812E+03  0.59318480883E+03  0.88747384711E+03  0.91205096002E+02 0.  0.
         11    1    3    3    0    0  0.47102892304E+03 -0.66665492186E+02  0.47992550955E+03  0.67575219489E+03  0.00000000000E+00 0. -1.
        -11    1    3    3    0    0  0.17316468085E+03 -0.44859585930E+02  0.11325929928E+03  0.21172165222E+03  0.00000000000E+00 0.  1.
         22    1    1    2    0    0 -0.64419360389E+03  0.11152507812E+03 -0.11490661592E+04  0.13220349014E+04  0.00000000000E+00 0.  1.
<mgrwt>
<rscale>  0 0.21384398E+04</rscale>
<asrwt>0</asrwt>
<pdfrwt beam="1">  1        2 0.12720211E+00 0.21384398E+04</pdfrwt>
<pdfrwt beam="2">  1       -2 0.21272231E+00 0.21384398E+04</pdfrwt>
<totfact> 0.33283216E+00</totfact>
</mgrwt>
</event>
<event>
 6    1  0.1028026E-006  0.5813044E+04  0.7818608E-02  0.7714024E-01
          2   -1    0    0  501    0  0.00000000000E+00  0.00000000000E+00  0.34575391068E+04  0.34575391068E+04  0.00000000000E+00 0. -1.
         -2   -1    0    0    0  501 -0.00000000000E+00 -0.00000000000E+00 -0.24433184270E+04  0.24433184270E+04  0.00000000000E+00 0.  1.
         23    2    1    2    0    0 -0.15966253020E+04  0.59646299985E+03 -0.18818204305E+04  0.25404952650E+04  0.88812126523E+02 0.  0.
         13    1    3    3    0    0 -0.13891214733E+04  0.54977168426E+03 -0.16399992265E+04  0.22184464914E+04  0.00000000000E+00 0. -1.
        -13    1    3    3    0    0 -0.20750382864E+03  0.46691315588E+02 -0.24182120404E+03  0.32204877360E+03  0.00000000000E+00 0.  1.
         22    1    1    2    0    0  0.15966253020E+04 -0.59646299985E+03  0.28960411103E+04  0.33603622688E+04  0.00000000000E+00 0. -1.
<mgrwt>
<rscale>  0 0.58130436E+04</rscale>
<asrwt>0</asrwt>
<pdfrwt beam="1">  1        2 0.53192909E+00 0.58130436E+04</pdfrwt>
<pdfrwt beam="2">  1       -2 0.37589514E+00 0.58130436E+04</pdfrwt>
<totfact> 0.63152884E-03</totfact>
</mgrwt>
</event>
<event>
 6    1  0.1028026E-006  0.2133488E+04  0.7818608E-02  0.8546633E-01
         -1   -1    0    0    0  501 -0.00000000000E+00  0.00000000000E+00  0.12868634372E+04  0.12868634372E+04  0.00000000000E+00 0.  1.
          1   -1    0    0  501    0  0.00000000000E+00 -0.00000000000E+00 -0.88427662449E+03  0.88427662449E+03  0.00000000000E+00 0. -1.
         23    2    1    2    0    0 -0.33179422375E+03 -0.33858982178E+03  0.11719645363E+04  0.12674406892E+04  0.90413228979E+02 0.  0.
         13    1    3    3    0    0 -0.16821049046E+03 -0.20172642306E+03  0.54073741526E+03  0.60115328422E+03  0.00000000000E+00 0.  1.
        -13    1    3    3    0    0 -0.16358373329E+03 -0.13686339871E+03  0.63122712107E+03  0.66628740501E+03  0.00000000000E+00 0. -1.
         22    1    1    2    0    0  0.33179422375E+03  0.33858982178E+03 -0.76937772358E+03  0.90369937250E+03  0.00000000000E+00 0. -1.
<mgrwt>
<rscale>  0 0.21334885E+04</rscale>
<asrwt>0</asrwt>
<pdfrwt beam="1">  1        1 0.13604256E+00 0.21334885E+04</pdfrwt>
<pdfrwt beam="2">  1       -1 0.19797899E+00 0.21334885E+04</pdfrwt>
<totfact> 0.26720002E+00</totfact>
</mgrwt>
</event>
<event>
 6    1  0.1028026E-006  0.3550582E+04  0.7818608E-02  0.8101906E-01
          2   -1    0    0  501    0  0.00000000000E+00  0.00000000000E+00  0.19816227184E+04  0.19816227184E+04  0.00000000000E+00 0. -1.
         -2   -1    0    0    0  501 -0.00000000000E+00 -0.00000000000E+00 -0.15904430561E+04  0.15904430561E+04  0.00000000000E+00 0.  1.
         23    2    1    2    0    0 -0.17293506412E+04 -0.23515008855E+03  0.51630829965E+03  0.18223211131E+04  0.91273075789E+02 0.  0.
         13    1    3    3    0    0 -0.35708669655E+03 -0.11703223919E+02  0.11017457930E+03  0.37388007733E+03  0.00000000000E+00 0.  1.
        -13    1    3    3    0    0 -0.13722639447E+04 -0.22344686463E+03  0.40613372035E+03  0.14484410357E+04  0.00000000000E+00 0. -1.
         22    1    1    2    0    0  0.17293506412E+04  0.23515008855E+03 -0.12512863732E+03  0.17497446615E+04  0.00000000000E+00 0.  1.
<mgrwt>
<rscale>  0 0.35505820E+04</rscale>
<asrwt>0</asrwt>
<pdfrwt beam="1">  1        2 0.30486503E+00 0.35505820E+04</pdfrwt>
<pdfrwt beam="2">  1       -2 0.24468355E+00 0.35505820E+04</pdfrwt>
<totfact> 0.38793193E-01</totfact>
</mgrwt>
</event>
<event>
 6    1  0.1028026E-006  0.2713638E+03  0.7818608E-02  0.1100502E+00
         -2   -1    0    0    0  501 -0.00000000000E+00  0.00000000000E+00  0.67403825935E+01  0.67403825935E+01  0.00000000000E+00 0.  1.
          2   -1    0    0  501    0  0.00000000000E+00 -0.00000000000E+00 -0.27312360949E+04  0.27312360949E+04  0.00000000000E+00 0. -1.
         23    2    1    2    0    0  0.32541161277E+02 -0.17234661717E+02 -0.26723198795E+04  0.26741150786E+04  0.90785210421E+02 0.  0.
         13    1    3    3    0    0 -0.60257287924E+01  0.23408311927E+02 -0.17066328073E+04  0.17068039716E+04  0.00000000000E+00 0.  1.
        -13    1    3    3    0    0  0.38566890070E+02 -0.40642973644E+02 -0.96568707216E+03  0.96731110696E+03  0.00000000000E+00 0. -1.
         22    1    1    2    0    0 -0.32541161277E+02  0.17234661717E+02 -0.52175832849E+02  0.63861398945E+02  0.00000000000E+00 0.  1.
<mgrwt>
<rscale>  0 0.27136379E+03</rscale>
<asrwt>0</asrwt>
<pdfrwt beam="1">  1        2 0.42019071E+00 0.27136379E+03</pdfrwt>
<pdfrwt beam="2">  1       -2 0.10369806E-02 0.27136379E+03</pdfrwt>
<totfact> 0.60305434E+03</totfact>
</mgrwt>
</event>
<event>
 6    1  0.1028026E-006  0.1653236E+04  0.7818608E-02  0.8788494E-01
         -1   -1    0    0    0  501 -0.00000000000E+00  0.00000000000E+00  0.64275917210E+03  0.64275917210E+03  0.00000000000E+00 0.  1.
          1   -1    0    0  501    0  0.00000000000E+00 -0.00000000000E+00 -0.10630693603E+04  0.10630693603E+04  0.00000000000E+00 0. -1.
         23    2    1    2    0    0  0.77154131129E+03  0.29215802396E+02  0.86173668740E+02  0.78243508673E+03  0.93001105499E+02 0.  0.
         13    1    3    3    0    0  0.40907857734E+03  0.44467408353E+02  0.92842769063E+01  0.41159304008E+03  0.00000000000E+00 0.  1.
        -13    1    3    3    0    0  0.36246273394E+03 -0.15251605956E+02  0.76889391834E+02  0.37084204664E+03  0.00000000000E+00 0. -1.
         22    1    1    2    0    0 -0.77154131129E+03 -0.29215802396E+02 -0.50648385691E+03  0.92339344564E+03  0.00000000000E+00 0. -1.
<mgrwt>
<rscale>  0 0.16532363E+04</rscale>
<asrwt>0</asrwt>
<pdfrwt beam="1">  1        1 0.16354913E+00 0.16532363E+04</pdfrwt>
<pdfrwt beam="2">  1       -1 0.98886027E-01 0.16532363E+04</pdfrwt>
<totfact> 0.12635858E+01</totfact>
</mgrwt>
</event>
<event>
 6    1  0.1028026E-006  0.1907317E+04  0.7818608E-02  0.8651223E-01
         -2   -1    0    0    0  501 -0.00000000000E+00  0.00000000000E+00  0.39182254320E+03  0.39182254320E+03  0.00000000000E+00 0.  1.
          2   -1    0    0  501    0  0.00000000000E+00 -0.00000000000E+00 -0.23211128514E+04  0.23211128514E+04  0.00000000000E+00 0. -1.
         23    2    1    2    0    0  0.47339700247E+03 -0.60588562149E+03 -0.17640340843E+04  0.19264802288E+04  0.91146656899E+02 0.  0.
         11    1    3    3    0    0  0.21464680862E+02 -0.12065534063E+02 -0.96430229711E+02  0.99524363042E+02  0.00000000000E+00 0. -1.
        -11    1    3    3    0    0  0.45193232161E+03 -0.59382008743E+03 -0.16676038546E+04  0.18269558658E+04  0.00000000000E+00 0.  1.
         22    1    1    2    0    0 -0.47339700247E+03  0.60588562149E+03 -0.16525622389E+03  0.78645516580E+03  0.00000000000E+00 0.  1.
<mgrwt>
<rscale>  0 0.19073168E+04</rscale>
<asrwt>0</asrwt>
<pdfrwt beam="1">  1        2 0.35709429E+00 0.19073168E+04</pdfrwt>
<pdfrwt beam="2">  1       -2 0.60280391E-01 0.19073168E+04</pdfrwt>
<totfact> 0.10589579E+01</totfact>
</mgrwt>
</event>
<event>
 6    1  0.1028026E-006  0.2612663E+04  0.7818608E-02  0.8363913E-01
          2   -1    0    0  501    0  0.00000000000E+00  0.00000000000E+00  0.13657926183E+04  0.13657926183E+04  0.00000000000E+00 0. -1.
         -2   -1    0    0    0  501 -0.00000000000E+00 -0.00000000000E+00 -0.12494586797E+04  0.12494586797E+04  0.00000000000E+00 0.  1.
         23    2    1    2    0    0  0.73589936670E+02  0.61644800026E+03  0.12069197190E+04  0.13603405601E+04  0.91910911421E+02 0.  0.
         13    1    3    3    0    0  0.14657110031E+01  0.86597215086E+02  0.24386044359E+03  0.25878396766E+03  0.00000000000E+00 0. -1.
        -13    1    3    3    0    0  0.72124225667E+02  0.52985078517E+03  0.96305927539E+03  0.11015565925E+04  0.00000000000E+00 0.  1.
         22    1    1    2    0    0 -0.73589936670E+02 -0.61644800026E+03 -0.10905857803E+04  0.12549107379E+04  0.00000000000E+00 0.  1.
<mgrwt>
<rscale>  0 0.26126626E+04</rscale>
<asrwt>0</asrwt>
<pdfrwt beam="1">  1        2 0.21012194E+00 0.26126626E+04</pdfrwt>
<pdfrwt beam="2">  1       -2 0.19222441E+00 0.26126626E+04</pdfrwt>
<totfact> 0.20039448E+00</totfact>
</mgrwt>
</event>
<event>
 6    1  0.1028026E-006  0.4239288E+04  0.7818608E-02  0.7957941E-01
         -2   -1    0    0    0  501 -0.00000000000E+00  0.00000000000E+00  0.15306269245E+04  0.15306269245E+04  0.00000000000E+00 0.  1.
          2   -1    0    0  501    0  0.00000000000E+00 -0.00000000000E+00 -0.29353265696E+04  0.29353265696E+04  0.00000000000E+00 0. -1.
         23    2    1    2    0    0 -0.12062452608E+04  0.16543223448E+04 -0.12768514657E+04  0.24145746391E+04  0.89504035186E+02 0.  0.
         11    1    3    3    0    0 -0.10207820319E+04  0.13787338291E+04 -0.10330115318E+04  0.20025023728E+04  0.00000000000E+00 0.  1.
        -11    1    3    3    0    0 -0.18546322895E+03  0.27558851576E+03 -0.24383993387E+03  0.41207226631E+03  0.00000000000E+00 0. -1.
         22    1    1    2    0    0  0.12062452608E+04 -0.16543223448E+04 -0.12784817946E+03  0.20513788550E+04  0.00000000000E+00 0.  1.
<mgrwt>
<rscale>  0 0.42392876E+04</rscale>
<asrwt>0</asrwt>
<pdfrwt beam="1">  1        2 0.45158870E+00 0.42392876E+04</pdfrwt>
<pdfrwt beam="2">  1       -2 0.23548106E+00 0.42392876E+04</pdfrwt>
<totfact> 0.11677287E-01</totfact>
</mgrwt>
</event>
<event>
 6    1  0.1028026E-006  0.1983575E+04  0.7818608E-02  0.8614338E-01
         -2   -1    0    0    0  501 -0.00000000000E+00  0.00000000000E+00  0.33344111445E+03  0.33344111445E+03  0.00000000000E+00 0.  1.
          2   -1    0    0  501    0  0.00000000000E+00 -0.00000000000E+00 -0.29499747751E+04  0.29499747751E+04  0.00000000000E+00 0. -1.
         23    2    1    2    0    0  0.69631333382E+03 -0.40788231758E+03 -0.36141462260E+03  0.88825783222E+03  0.84623892720E+02 0.  0.
         13    1    3    3    0    0  0.51963641304E+03 -0.32960023484E+03 -0.24283814567E+03  0.66153509473E+03  0.00000000000E+00 0. -1.
        -13    1    3    3    0    0  0.17667692078E+03 -0.78282082734E+02 -0.11857647692E+03  0.22672273749E+03  0.00000000000E+00 0.  1.
         22    1    1    2    0    0 -0.69631333382E+03  0.40788231758E+03 -0.22551190381E+04  0.23951580574E+04  0.00000000000E+00 0. -1.
<mgrwt>
<rscale>  0 0.19835754E+04</rscale>
<asrwt>0</asrwt>
<pdfrwt beam="1">  1        2 0.45384228E+00 0.19835754E+04</pdfrwt>
<pdfrwt beam="2">  1       -2 0.51298632E-01 0.19835754E+04</pdfrwt>
<totfact> 0.62638612E+00</totfact>
</mgrwt>
</event>
<event>
 6    1  0.1028026E-006  0.1233477E+04  0.7818608E-02  0.9084049E-01
         -2   -1    0    0    0  501 -0.00000000000E+00  0.00000000000E+00  0.71828376715E+03  0.71828376715E+03  0.00000000000E+00 0.  1.
          2   -1    0    0  501    0  0.00000000000E+00 -0.00000000000E+00 -0.52954879323E+03  0.52954879323E+03  0.00000000000E+00 0. -1.
         23    2    1    2    0    0  0.18779849679E+03  0.56566898325E+03 -0.50866398332E+02  0.60544755775E+03  0.93432760324E+02 0.  0.
         13    1    3    3    0    0  0.12120185069E+03  0.27305978309E+03  0.11384705104E+02  0.29896679626E+03  0.00000000000E+00 0. -1.
        -13    1    3    3    0    0  0.66596646098E+02  0.29260920016E+03 -0.62251103435E+02  0.30648076150E+03  0.00000000000E+00 0.  1.
         22    1    1    2    0    0 -0.18779849679E+03 -0.56566898325E+03  0.23960137225E+03  0.64238500262E+03  0.00000000000E+00 0.  1.
<mgrwt>
<rscale>  0 0.12334769E+04</rscale>
<asrwt>0</asrwt>
<pdfrwt beam="1">  1        2 0.81469045E-01 0.12334769E+04</pdfrwt>
<pdfrwt beam="2">  1       -2 0.11050519E+00 0.12334769E+04</pdfrwt>
<totfact> 0.36832176E+01</totfact>
</mgrwt>
</event>
<event>
 6    1  0.1028026E-006  0.2925346E+04  0.7818608E-02  0.8265376E-01
         -1   -1    0    0    0  501 -0.00000000000E+00  0.00000000000E+00  0.17351041816E+04  0.17351041816E+04  0.00000000000E+00 0.  1.
          1   -1    0    0  501    0  0.00000000000E+00 -0.00000000000E+00 -0.12330162567E+04  0.12330162567E+04  0.00000000000E+00 0. -1.
         23    2    1    2    0    0 -0.40186485078E+03 -0.80879709824E+03 -0.91430451420E+03  0.12882943623E+04  0.90008414849E+02 0.  0.
         13    1    3    3    0    0 -0.28322930572E+03 -0.49495463351E+03 -0.61462077208E+03  0.83842568086E+03  0.00000000000E+00 0.  1.
        -13    1    3    3    0    0 -0.11863554507E+03 -0.31384246473E+03 -0.29968374212E+03  0.44986868140E+03  0.00000000000E+00 0. -1.
         22    1    1    2    0    0  0.40186485078E+03  0.80879709824E+03  0.14163924391E+04  0.16798260761E+04  0.00000000000E+00 0.  1.
<mgrwt>
<rscale>  0 0.29253456E+04</rscale>
<asrwt>0</asrwt>
<pdfrwt beam="1">  1        1 0.18969481E+00 0.29253456E+04</pdfrwt>
<pdfrwt beam="2">  1       -1 0.26693910E+00 0.29253456E+04</pdfrwt>
<totfact> 0.46829925E-01</totfact>
</mgrwt>
</event>
<event>
 6    1  0.1028026E-006  0.4719126E+03  0.7818608E-02  0.1021382E+00
         -2   -1    0    0    0  501 -0.00000000000E+00  0.00000000000E+00  0.36627550117E+02  0.36627550117E+02  0.00000000000E+00 0.  1.
          2   -1    0    0  501    0  0.00000000000E+00 -0.00000000000E+00 -0.15200409322E+04  0.15200409322E+04  0.00000000000E+00 0. -1.
         23    2    1    2    0    0  0.11035860996E+03 -0.16931189143E+03 -0.46744250967E+03  0.52079090608E+03  0.10897306379E+03 0.  0.
         13    1    3    3    0    0  0.73012194182E+02 -0.17203708240E+03 -0.42447779290E+03  0.46379837741E+03  0.00000000000E+00 0.  1.
        -13    1    3    3    0    0  0.37346415774E+02  0.27251909645E+01 -0.42964716772E+02  0.56992528671E+02  0.00000000000E+00 0. -1.
         22    1    1    2    0    0 -0.11035860996E+03  0.16931189143E+03 -0.10159708724E+04  0.10358775762E+04  0.00000000000E+00 0. -1.
<mgrwt>
<rscale>  0 0.47191260E+03</rscale>
<asrwt>0</asrwt>
<pdfrwt beam="1">  1        2 0.23385234E+00 0.47191260E+03</pdfrwt>
<pdfrwt beam="2">  1       -2 0.56350104E-02 0.47191260E+03</pdfrwt>
<totfact> 0.21600845E+03</totfact>
</mgrwt>
</event>
<event>
 6    1  0.1028026E-006  0.3437828E+04  0.7818608E-02  0.8128684E-01
          1   -1    0    0  501    0  0.00000000000E+00  0.00000000000E+00  0.17852972467E+04  0.17852972467E+04  0.00000000000E+00 0. -1.
         -1   -1    0    0    0  501 -0.00000000000E+00 -0.00000000000E+00 -0.16549986381E+04  0.16549986381E+04  0.00000000000E+00 0.  1.
         23    2    1    2    0    0  0.12650493472E+02 -0.11181467404E+04  0.13700203490E+04  0.17707683582E+04  0.90844117442E+02 0.  0.
         13    1    3    3    0    0  0.51635694421E+02 -0.58933198127E+03  0.71311203233E+03  0.92655663601E+03  0.00000000000E+00 0.  1.
        -13    1    3    3    0    0 -0.38985200949E+02 -0.52881475915E+03  0.65690831668E+03  0.84421172220E+03  0.00000000000E+00 0. -1.
         22    1    1    2    0    0 -0.12650493472E+02  0.11181467404E+04 -0.12397217404E+04  0.16695275265E+04  0.00000000000E+00 0.  1.
<mgrwt>
<rscale>  0 0.34378275E+04</rscale>
<asrwt>0</asrwt>
<pdfrwt beam="1">  1        1 0.27466111E+00 0.34378275E+04</pdfrwt>
<pdfrwt beam="2">  1       -1 0.25461518E+00 0.34378275E+04</pdfrwt>
<totfact> 0.22239582E-01</totfact>
</mgrwt>
</event>
<event>
 6    1  0.1028026E-006  0.3567421E+04  0.7818608E-02  0.8097995E-01
          2   -1    0    0  501    0  0.00000000000E+00  0.00000000000E+00  0.26809471195E+04  0.26809471195E+04  0.00000000000E+00 0. -1.
         -2   -1    0    0    0  501 -0.00000000000E+00 -0.00000000000E+00 -0.11867533426E+04  0.11867533426E+04  0.00000000000E+00 0.  1.
         23    2    1    2    0    0 -0.12380530239E+04 -0.12822858896E+04  0.73486398579E+03  0.19302758509E+04  0.94378971799E+02 0.  0.
         13    1    3    3    0    0 -0.11262071801E+04 -0.11741293201E+04  0.64160335255E+03  0.17488788222E+04  0.00000000000E+00 0. -1.
        -13    1    3    3    0    0 -0.11184584381E+03 -0.10815656950E+03  0.93260633238E+02  0.18139702869E+03  0.00000000000E+00 0.  1.
         22    1    1    2    0    0  0.12380530239E+04  0.12822858896E+04  0.75932979113E+03  0.19374246112E+04  0.00000000000E+00 0. -1.
<mgrwt>
<rscale>  0 0.35674209E+04</rscale>
<asrwt>0</asrwt>
<pdfrwt beam="1">  1        2 0.41245340E+00 0.35674209E+04</pdfrwt>
<pdfrwt beam="2">  1       -2 0.18257744E+00 0.35674209E+04</pdfrwt>
<totfact> 0.38762972E-01</totfact>
</mgrwt>
</event>
<event>
 6    1  0.1028026E-006  0.3181671E+04  0.7818608E-02  0.8193675E-01
         -2   -1    0    0    0  501 -0.00000000000E+00  0.00000000000E+00  0.71975276818E+03  0.71975276818E+03  0.00000000000E+00 0.  1.
          2   -1    0    0  501    0  0.00000000000E+00 -0.00000000000E+00 -0.35161475108E+04  0.35161475108E+04  0.00000000000E+00 0. -1.
         23    2    1    2    0    0 -0.57982479797E+03  0.32400650563E+03 -0.33219697288E+04  0.33889020038E+04  0.89425387821E+02 0.  0.
         11    1    3    3    0    0 -0.39349585616E+03  0.17203916121E+03 -0.21779652434E+04  0.22199029401E+04  0.00000000000E+00 0.  1.
        -11    1    3    3    0    0 -0.18632894181E+03  0.15196734442E+03 -0.11440044854E+04  0.11689990637E+04  0.00000000000E+00 0. -1.
         22    1    1    2    0    0  0.57982479797E+03 -0.32400650563E+03  0.52557498622E+03  0.84699827519E+03  0.00000000000E+00 0.  1.
<mgrwt>
<rscale>  0 0.31816706E+04</rscale>
<asrwt>0</asrwt>
<pdfrwt beam="1">  1        2 0.54094578E+00 0.31816706E+04</pdfrwt>
<pdfrwt beam="2">  1       -2 0.11073119E+00 0.31816706E+04</pdfrwt>
<totfact> 0.43131323E-01</totfact>
</mgrwt>
</event>
<event>
 6    1  0.1028026E-006  0.1831187E+04  0.7818608E-02  0.8689888E-01
          2   -1    0    0  501    0  0.00000000000E+00  0.00000000000E+00  0.12909705100E+04  0.12909705100E+04  0.00000000000E+00 0. -1.
         -2   -1    0    0    0  501 -0.00000000000E+00 -0.00000000000E+00 -0.64936505896E+03  0.64936505896E+03  0.00000000000E+00 0.  1.
         23    2    1    2    0    0  0.85305813294E+03  0.55533294173E+02  0.66240575456E+03  0.10852187479E+04  0.90145561312E+02 0.  0.
         13    1    3    3    0    0  0.24281564936E+03  0.15778955222E+02  0.24153369128E+03  0.34285119079E+03  0.00000000000E+00 0. -1.
        -13    1    3    3    0    0  0.61024248358E+03  0.39754338951E+02  0.42087206328E+03  0.74236755713E+03  0.00000000000E+00 0.  1.
         22    1    1    2    0    0 -0.85305813294E+03 -0.55533294173E+02 -0.20800303553E+02  0.85511682101E+03  0.00000000000E+00 0.  1.
<mgrwt>
<rscale>  0 0.18311867E+04</rscale>
<asrwt>0</asrwt>
<pdfrwt beam="1">  1        2 0.19861085E+00 0.18311867E+04</pdfrwt>
<pdfrwt beam="2">  1       -2 0.99902317E-01 0.18311867E+04</pdfrwt>
<totfact> 0.13048899E+01</totfact>
</mgrwt>
</event>
<event>
 6    1  0.1028026E-006  0.2228421E+04  0.7818608E-02  0.8506691E-01
         -2   -1    0    0    0  501 -0.00000000000E+00  0.00000000000E+00  0.30528646374E+03  0.30528646374E+03  0.00000000000E+00 0.  1.
          2   -1    0    0  501    0  0.00000000000E+00 -0.00000000000E+00 -0.40665585930E+04  0.40665585930E+04  0.00000000000E+00 0. -1.
         23    2    1    2    0    0 -0.99476021980E+03  0.10308954990E+02 -0.90800072232E+03  0.13501217254E+04  0.93323053182E+02 0.  0.
         11    1    3    3    0    0 -0.24009774496E+03 -0.24638371430E+02 -0.18126228710E+03  0.30184431949E+03  0.00000000000E+00 0.  1.
        -11    1    3    3    0    0 -0.75466247485E+03  0.34947326420E+02 -0.72673843522E+03  0.10482774059E+04  0.00000000000E+00 0. -1.
         22    1    1    2    0    0  0.99476021980E+03 -0.10308954990E+02 -0.28532714069E+04  0.30217233313E+04  0.00000000000E+00 0. -1.
<mgrwt>
<rscale>  0 0.22284212E+04</rscale>
<asrwt>0</asrwt>
<pdfrwt beam="1">  1        2 0.62562436E+00 0.22284212E+04</pdfrwt>
<pdfrwt beam="2">  1       -2 0.46967152E-01 0.22284212E+04</pdfrwt>
<totfact> 0.11910674E+00</totfact>
</mgrwt>
</event>
<event>
 6    1  0.1028026E-006  0.2324470E+04  0.7818608E-02  0.8468335E-01
         -1   -1    0    0    0  501 -0.00000000000E+00  0.00000000000E+00  0.14710897003E+04  0.14710897003E+04  0.00000000000E+00 0.  1.
          1   -1    0    0  501    0  0.00000000000E+00 -0.00000000000E+00 -0.91822421974E+03  0.91822421974E+03  0.00000000000E+00 0. -1.
         23    2    1    2    0    0 -0.31672382515E+03 -0.10932707359E+04  0.44660931729E+02  0.11427880492E+04  0.91733544352E+02 0.  0.
         11    1    3    3    0    0 -0.64032969272E+02 -0.15126964260E+03  0.32275404552E+02  0.16740498100E+03  0.00000000000E+00 0.  1.
        -11    1    3    3    0    0 -0.25269085588E+03 -0.94200109329E+03  0.12385527177E+02  0.97538306817E+03  0.00000000000E+00 0. -1.
         22    1    1    2    0    0  0.31672382515E+03  0.10932707359E+04  0.50820454888E+03  0.12465258709E+04  0.00000000000E+00 0. -1.
<mgrwt>
<rscale>  0 0.23244700E+04</rscale>
<asrwt>0</asrwt>
<pdfrwt beam="1">  1        1 0.14126526E+00 0.23244700E+04</pdfrwt>
<pdfrwt beam="2">  1       -1 0.22632149E+00 0.23244700E+04</pdfrwt>
<totfact> 0.15835684E+00</totfact>
</mgrwt>
</event>
<event>
 6    1  0.1028026E-006  0.3212528E+04  0.7818608E-02  0.8185516E-01
          4   -1    0    0  501    0  0.00000000000E+00  0.00000000000E+00  0.11746003979E+04  0.11746003979E+04  0.00000000000E+00 0. -1.
         -4   -1    0    0    0  501 -0.00000000000E+00 -0.00000000000E+00 -0.21965634463E+04  0.21965634463E+04  0.00000000000E+00 0.  1.
         23    2    1    2    0    0  0.22189766929E+03 -0.17928044385E+03 -0.21688114365E+04  0.21893680588E+04  0.90605720297E+02 0.  0.
         11    1    3    3    0    0  0.15913392884E+03 -0.12615631289E+03 -0.18045736668E+04  0.18159639704E+04  0.00000000000E+00 0. -1.
        -11    1    3    3    0    0  0.62763740450E+02 -0.53124130969E+02 -0.36423776965E+03  0.37340408841E+03  0.00000000000E+00 0.  1.
         22    1    1    2    0    0 -0.22189766929E+03  0.17928044385E+03  0.11468483881E+04  0.11817957854E+04  0.00000000000E+00 0. -1.
<mgrwt>
<rscale>  0 0.32125282E+04</rscale>
<asrwt>0</asrwt>
<pdfrwt beam="1">  1        4 0.18070776E+00 0.32125282E+04</pdfrwt>
<pdfrwt beam="2">  1       -4 0.33793283E+00 0.32125282E+04</pdfrwt>
<totfact> 0.52544260E-03</totfact>
</mgrwt>
</event>
<event>
 6    1  0.1028026E-006  0.3008153E+04  0.7818608E-02  0.8241406E-01
         -1   -1    0    0    0  501 -0.00000000000E+00  0.00000000000E+00  0.12113218499E+04  0.12113218499E+04  0.00000000000E+00 0.  1.
          1   -1    0    0  501    0  0.00000000000E+00 -0.00000000000E+00 -0.18675852803E+04  0.18675852803E+04  0.00000000000E+00 0. -1.
         23    2    1    2    0    0 -0.69900636053E+03 -0.13167781967E+04 -0.52102895440E+03  0.15819759111E+04  0.93069332536E+02 0.  0.
         11    1    3    3    0    0 -0.24479778615E+03 -0.42742777624E+03 -0.12916378730E+03  0.50921875845E+03  0.00000000000E+00 0.  1.
        -11    1    3    3    0    0 -0.45420857437E+03 -0.88935042043E+03 -0.39186516709E+03  0.10727571526E+04  0.00000000000E+00 0. -1.
         22    1    1    2    0    0  0.69900636053E+03  0.13167781967E+04 -0.13523447595E+03  0.14969312191E+04  0.00000000000E+00 0.  1.
<mgrwt>
<rscale>  0 0.30081535E+04</rscale>
<asrwt>0</asrwt>
<pdfrwt beam="1">  1        1 0.28732081E+00 0.30081535E+04</pdfrwt>
<pdfrwt beam="2">  1       -1 0.18635721E+00 0.30081535E+04</pdfrwt>
<totfact> 0.58438756E-01</totfact>
</mgrwt>
</event>
<event>
 6    1  0.1028026E-006  0.2310550E+04  0.7818608E-02  0.8473773E-01
         -2   -1    0    0    0  501 -0.00000000000E+00  0.00000000000E+00  0.31340002045E+03  0.31340002045E+03  0.00000000000E+00 0.  1.
          2   -1    0    0  501    0  0.00000000000E+00 -0.00000000000E+00 -0.42586489493E+04  0.42586489493E+04  0.00000000000E+00 0. -1.
         23    2    1    2    0    0 -0.40974279313E+03 -0.10502181539E+04 -0.14930590090E+04  0.18731449829E+04  0.92734001787E+02 0.  0.
         11    1    3    3    0    0 -0.22579607414E+03 -0.57547415470E+03 -0.74185930226E+03  0.96566536345E+03  0.00000000000E+00 0.  1.
        -11    1    3    3    0    0 -0.18394671899E+03 -0.47474399925E+03 -0.75119970672E+03  0.90747961940E+03  0.00000000000E+00 0. -1.
         22    1    1    2    0    0  0.40974279313E+03  0.10502181539E+04 -0.24521899198E+04  0.26989039869E+04  0.00000000000E+00 0. -1.
<mgrwt>
<rscale>  0 0.23105503E+04</rscale>
<asrwt>0</asrwt>
<pdfrwt beam="1">  1        2 0.65517679E+00 0.23105503E+04</pdfrwt>
<pdfrwt beam="2">  1       -2 0.48215386E-01 0.23105503E+04</pdfrwt>
<totfact> 0.76811384E-01</totfact>
</mgrwt>
</event>
<event>
 6    1  0.1028026E-006  0.2839709E+04  0.7818608E-02  0.8291045E-01
         -2   -1    0    0    0  501 -0.00000000000E+00  0.00000000000E+00  0.97655835327E+03  0.97655835327E+03  0.00000000000E+00 0.  1.
          2   -1    0    0  501    0  0.00000000000E+00 -0.00000000000E+00 -0.20643796628E+04  0.20643796628E+04  0.00000000000E+00 0. -1.
         23    2    1    2    0    0 -0.55761080799E+03 -0.10815800225E+04  0.23594709856E+03  0.12428534918E+04  0.90931900297E+02 0.  0.
         13    1    3    3    0    0 -0.41709134568E+03 -0.88181848243E+03  0.17393420745E+03  0.99086938348E+03  0.00000000000E+00 0. -1.
        -13    1    3    3    0    0 -0.14051946231E+03 -0.19976154005E+03  0.62012891110E+02  0.25198410830E+03  0.00000000000E+00 0.  1.
         22    1    1    2    0    0  0.55761080799E+03  0.10815800225E+04 -0.13237684081E+04  0.17980845243E+04  0.00000000000E+00 0. -1.
<mgrwt>
<rscale>  0 0.28397093E+04</rscale>
<asrwt>0</asrwt>
<pdfrwt beam="1">  1        2 0.31759687E+00 0.28397093E+04</pdfrwt>
<pdfrwt beam="2">  1       -2 0.15023975E+00 0.28397093E+04</pdfrwt>
<totfact> 0.15918563E+00</totfact>
</mgrwt>
</event>
<event>
 6    1  0.1028026E-006  0.2226464E+04  0.7818608E-02  0.8507493E-01
         -1   -1    0    0    0  501 -0.00000000000E+00  0.00000000000E+00  0.11073499893E+04  0.11073499893E+04  0.00000000000E+00 0.  1.
          1   -1    0    0  501    0  0.00000000000E+00 -0.00000000000E+00 -0.11191452804E+04  0.11191452804E+04  0.00000000000E+00 0. -1.
         23    2    1    2    0    0 -0.16257345518E+03  0.99940732840E+03  0.45272192533E+03  0.11124838779E+04  0.86128396108E+02 0.  0.
         11    1    3    3    0    0 -0.69829423527E+01  0.10745241795E+03  0.22319442966E+02  0.10996790959E+03  0.00000000000E+00 0. -1.
        -11    1    3    3    0    0 -0.15559051282E+03  0.89195491046E+03  0.43040248237E+03  0.10025159683E+04  0.00000000000E+00 0.  1.
         22    1    1    2    0    0  0.16257345518E+03 -0.99940732840E+03 -0.46451721643E+03  0.11140113917E+04  0.00000000000E+00 0. -1.
<mgrwt>
<rscale>  0 0.22264640E+04</rscale>
<asrwt>0</asrwt>
<pdfrwt beam="1">  1        1 0.17217620E+00 0.22264640E+04</pdfrwt>
<pdfrwt beam="2">  1       -1 0.17036154E+00 0.22264640E+04</pdfrwt>
<totfact> 0.27287102E+00</totfact>
</mgrwt>
</event>
<event>
 6    1  0.1028026E-006  0.3942597E+04  0.7818608E-02  0.8016228E-01
          2   -1    0    0  501    0  0.00000000000E+00  0.00000000000E+00  0.84456578706E+03  0.84456578706E+03  0.00000000000E+00 0. -1.
         -2   -1    0    0    0  501 -0.00000000000E+00 -0.00000000000E+00 -0.46012017171E+04  0.46012017171E+04  0.00000000000E+00 0.  1.
         23    2    1    2    0    0 -0.18978487338E+04 -0.51460918459E+03 -0.20493457518E+04  0.28416376721E+04  0.91838011494E+02 0.  0.
         13    1    3    3    0    0 -0.13044101570E+04 -0.38296041632E+03 -0.14613843494E+04  0.19959430740E+04  0.00000000000E+00 0.  1.
        -13    1    3    3    0    0 -0.59343857682E+03 -0.13164876827E+03 -0.58796140234E+03  0.84569459812E+03  0.00000000000E+00 0. -1.
         22    1    1    2    0    0  0.18978487338E+04  0.51460918459E+03 -0.17072901783E+04  0.26041298320E+04  0.00000000000E+00 0.  1.
<mgrwt>
<rscale>  0 0.39425969E+04</rscale>
<asrwt>0</asrwt>
<pdfrwt beam="1">  1        2 0.12993319E+00 0.39425969E+04</pdfrwt>
<pdfrwt beam="2">  1       -2 0.70787721E+00 0.39425969E+04</pdfrwt>
<totfact> 0.54025552E-03</totfact>
</mgrwt>
</event>
<event>
 6    1  0.1028026E-006  0.2331239E+04  0.7818608E-02  0.8465705E-01
          2   -1    0    0  501    0  0.00000000000E+00  0.00000000000E+00  0.16831349856E+04  0.16831349856E+04  0.00000000000E+00 0. -1.
         -2   -1    0    0    0  501 -0.00000000000E+00 -0.00000000000E+00 -0.80722516936E+03  0.80722516936E+03  0.00000000000E+00 0.  1.
         23    2    1    2    0    0 -0.45587929377E+03 -0.22157447959E+03 -0.68044571392E+03  0.85354504117E+03  0.92798638054E+02 0.  0.
         13    1    3    3    0    0 -0.18316523321E+03 -0.13051149346E+03 -0.34381401387E+03  0.41084161025E+03  0.00000000000E+00 0.  1.
        -13    1    3    3    0    0 -0.27271406056E+03 -0.91062986129E+02 -0.33663170005E+03  0.44270343092E+03  0.00000000000E+00 0. -1.
         22    1    1    2    0    0  0.45587929377E+03  0.22157447959E+03  0.15563555302E+04  0.16368151138E+04  0.00000000000E+00 0. -1.
<mgrwt>
<rscale>  0 0.23312391E+04</rscale>
<asrwt>0</asrwt>
<pdfrwt beam="1">  1        2 0.25894384E+00 0.23312391E+04</pdfrwt>
<pdfrwt beam="2">  1       -2 0.12418849E+00 0.23312391E+04</pdfrwt>
<totfact> 0.44174068E+00</totfact>
</mgrwt>
</event>
<event>
 6    1  0.1028026E-006  0.2204016E+04  0.7818608E-02  0.8516758E-01
         -2   -1    0    0    0  501 -0.00000000000E+00  0.00000000000E+00  0.10390111150E+04  0.10390111150E+04  0.00000000000E+00 0.  1.
          2   -1    0    0  501    0  0.00000000000E+00 -0.00000000000E+00 -0.11688244838E+04  0.11688244838E+04  0.00000000000E+00 0. -1.
         23    2    1    2    0    0  0.72827263855E+02 -0.66812640545E+03  0.80742716682E+03  0.10545288201E+04  0.91628045301E+02 0.  0.
         13    1    3    3    0    0  0.84212893039E+02 -0.41967853613E+03  0.54454500161E+03  0.69264070327E+03  0.00000000000E+00 0. -1.
        -13    1    3    3    0    0 -0.11385629184E+02 -0.24844786931E+03  0.26288216521E+03  0.36188811683E+03  0.00000000000E+00 0.  1.
         22    1    1    2    0    0 -0.72827263855E+02  0.66812640545E+03 -0.93724053566E+03  0.11533067787E+04  0.00000000000E+00 0. -1.
<mgrwt>
<rscale>  0 0.22040160E+04</rscale>
<asrwt>0</asrwt>
<pdfrwt beam="1">  1        2 0.17981915E+00 0.22040160E+04</pdfrwt>
<pdfrwt beam="2">  1       -2 0.15984786E+00 0.22040160E+04</pdfrwt>
<totfact> 0.45637325E+00</totfact>
</mgrwt>
</event>
<event>
 6    1  0.1028026E-006  0.1543138E+04  0.7818608E-02  0.8856263E-01
         -1   -1    0    0    0  501 -0.00000000000E+00  0.00000000000E+00  0.10073242623E+04  0.10073242623E+04  0.00000000000E+00 0.  1.
          1   -1    0    0  501    0  0.00000000000E+00 -0.00000000000E+00 -0.59098986426E+03  0.59098986426E+03  0.00000000000E+00 0. -1.
         23    2    1    2    0    0 -0.39813027237E+03 -0.10597843097E+03 -0.46364512097E+03  0.62666444921E+03  0.89456090339E+02 0.  0.
         13    1    3    3    0    0 -0.16587947552E+03 -0.12908277706E+02 -0.13908649858E+03  0.21685865931E+03  0.00000000000E+00 0.  1.
        -13    1    3    3    0    0 -0.23225079685E+03 -0.93070153269E+02 -0.32455862239E+03  0.40980578990E+03  0.00000000000E+00 0. -1.
         22    1    1    2    0    0  0.39813027237E+03  0.10597843097E+03  0.87997951900E+03  0.97164967734E+03  0.00000000000E+00 0.  1.
<mgrwt>
<rscale>  0 0.15431376E+04</rscale>
<asrwt>0</asrwt>
<pdfrwt beam="1">  1        1 0.90921517E-01 0.15431376E+04</pdfrwt>
<pdfrwt beam="2">  1       -1 0.15497296E+00 0.15431376E+04</pdfrwt>
<totfact> 0.10774291E+01</totfact>
</mgrwt>
</event>
<event>
 6    1  0.1028026E-006  0.4399150E+04  0.7818608E-02  0.7928534E-01
         -1   -1    0    0    0  501 -0.00000000000E+00  0.00000000000E+00  0.21068055337E+04  0.21068055337E+04  0.00000000000E+00 0.  1.
          1   -1    0    0  501    0  0.00000000000E+00 -0.00000000000E+00 -0.22964294032E+04  0.22964294032E+04  0.00000000000E+00 0. -1.
         23    2    1    2    0    0 -0.55633583075E+03  0.12620874570E+04  0.16189781384E+04  0.21287205868E+04  0.89369000747E+02 0.  0.
         13    1    3    3    0    0 -0.10987664390E+03  0.23022838771E+03  0.35361945065E+03  0.43603291534E+03  0.00000000000E+00 0.  1.
        -13    1    3    3    0    0 -0.44645918686E+03  0.10318590693E+04  0.12653586878E+04  0.16926876714E+04  0.00000000000E+00 0. -1.
         22    1    1    2    0    0  0.55633583075E+03 -0.12620874570E+04 -0.18086020079E+04  0.22745143501E+04  0.00000000000E+00 0. -1.
<mgrwt>
<rscale>  0 0.43991500E+04</rscale>
<asrwt>0</asrwt>
<pdfrwt beam="1">  1        1 0.35329683E+00 0.43991500E+04</pdfrwt>
<pdfrwt beam="2">  1       -1 0.32412393E+00 0.43991500E+04</pdfrwt>
<totfact> 0.32617526E-02</totfact>
</mgrwt>
</event>
<event>
 6    1  0.1028026E-006  0.3410279E+04  0.7818608E-02  0.8135388E-01
          2   -1    0    0  501    0  0.00000000000E+00  0.00000000000E+00  0.30927484214E+04  0.30927484214E+04  0.00000000000E+00 0. -1.
         -2   -1    0    0    0  501 -0.00000000000E+00 -0.00000000000E+00 -0.94010262247E+03  0.94010262247E+03  0.00000000000E+00 0.  1.
         23    2    1    2    0    0 -0.28188713676E+03 -0.10682802178E+04  0.26111138136E+04  0.28366587925E+04  0.89636911000E+02 0.  0.
         13    1    3    3    0    0 -0.15124605791E+03 -0.52598883247E+03  0.14036946262E+04  0.15066181419E+04  0.00000000000E+00 0. -1.
        -13    1    3    3    0    0 -0.13064107885E+03 -0.54229138531E+03  0.12074191874E+04  0.13300406506E+04  0.00000000000E+00 0.  1.
         22    1    1    2    0    0  0.28188713676E+03  0.10682802178E+04 -0.45846801473E+03  0.11961922513E+04  0.00000000000E+00 0.  1.
<mgrwt>
<rscale>  0 0.34102791E+04</rscale>
<asrwt>0</asrwt>
<pdfrwt beam="1">  1        2 0.47580744E+00 0.34102791E+04</pdfrwt>
<pdfrwt beam="2">  1       -2 0.14463117E+00 0.34102791E+04</pdfrwt>
<totfact> 0.41495581E-01</totfact>
</mgrwt>
</event>
<event>
 6    1  0.1028026E-006  0.2937637E+04  0.7818608E-02  0.8261767E-01
          2   -1    0    0  501    0  0.00000000000E+00  0.00000000000E+00  0.37480236588E+04  0.37480236588E+04  0.00000000000E+00 0. -1.
         -2   -1    0    0    0  501 -0.00000000000E+00 -0.00000000000E+00 -0.57561731264E+03  0.57561731264E+03  0.00000000000E+00 0.  1.
         23    2    1    2    0    0  0.23692087858E+03 -0.18504893751E+03  0.37016384219E+04  0.37149857308E+04  0.92829744902E+02 0.  0.
         11    1    3    3    0    0  0.21316347583E+03 -0.11996428952E+03  0.27737612889E+04  0.27845254148E+04  0.00000000000E+00 0. -1.
        -11    1    3    3    0    0  0.23757402754E+02 -0.65084647981E+02  0.92787713302E+03  0.93046031596E+03  0.00000000000E+00 0.  1.
         22    1    1    2    0    0 -0.23692087858E+03  0.18504893751E+03 -0.52923207574E+03  0.60865524065E+03  0.00000000000E+00 0.  1.
<mgrwt>
<rscale>  0 0.29376367E+04</rscale>
<asrwt>0</asrwt>
<pdfrwt beam="1">  1        2 0.57661901E+00 0.29376367E+04</pdfrwt>
<pdfrwt beam="2">  1       -2 0.88556512E-01 0.29376367E+04</pdfrwt>
<totfact> 0.50713802E-01</totfact>
</mgrwt>
</event>
<event>
 6    1  0.1028026E-006  0.1923543E+04  0.7818608E-02  0.8643226E-01
         -3   -1    0    0    0  501 -0.00000000000E+00  0.00000000000E+00  0.19149260599E+04  0.19149260599E+04  0.00000000000E+00 0.  1.
          3   -1    0    0  501    0  0.00000000000E+00 -0.00000000000E+00 -0.48304946530E+03  0.48304946530E+03  0.00000000000E+00 0. -1.
         23    2    1    2    0    0  0.63067549595E+03  0.72318315802E+03  0.73790869621E+03  0.12137724576E+04  0.89380499771E+02 0.  0.
         11    1    3    3    0    0  0.21593813474E+03  0.28747671913E+03  0.23321563024E+03  0.42855766504E+03  0.00000000000E+00 0. -1.
        -11    1    3    3    0    0  0.41473736121E+03  0.43570643889E+03  0.50469306597E+03  0.78521479260E+03  0.00000000000E+00 0.  1.
         22    1    1    2    0    0 -0.63067549595E+03 -0.72318315802E+03  0.69396789841E+03  0.11842030676E+04  0.00000000000E+00 0. -1.
<mgrwt>
<rscale>  0 0.19235426E+04</rscale>
<asrwt>0</asrwt>
<pdfrwt beam="1">  1        3 0.74315303E-01 0.19235426E+04</pdfrwt>
<pdfrwt beam="2">  1       -3 0.29460401E+00 0.19235426E+04</pdfrwt>
<totfact> 0.17076320E-01</totfact>
</mgrwt>
</event>
<event>
 6    1  0.1028026E-006  0.2635432E+04  0.7818608E-02  0.8356264E-01
          2   -1    0    0  501    0  0.00000000000E+00  0.00000000000E+00  0.14811925181E+04  0.14811925181E+04  0.00000000000E+00 0. -1.
         -2   -1    0    0    0  501 -0.00000000000E+00 -0.00000000000E+00 -0.11722820189E+04  0.11722820189E+04  0.00000000000E+00 0.  1.
         23    2    1    2    0    0 -0.34602907783E+03  0.48620850342E+03  0.13357478847E+04  0.14658172432E+04  0.90900755688E+02 0.  0.
         11    1    3    3    0    0 -0.21630095856E+03  0.22723902777E+03  0.67209715050E+03  0.74171305781E+03  0.00000000000E+00 0.  1.
        -11    1    3    3    0    0 -0.12972811927E+03  0.25896947565E+03  0.66365073419E+03  0.72410418535E+03  0.00000000000E+00 0. -1.
         22    1    1    2    0    0  0.34602907783E+03 -0.48620850342E+03 -0.10268373855E+04  0.11876572939E+04  0.00000000000E+00 0.  1.
<mgrwt>
<rscale>  0 0.26354319E+04</rscale>
<asrwt>0</asrwt>
<pdfrwt beam="1">  1        2 0.22787577E+00 0.26354319E+04</pdfrwt>
<pdfrwt beam="2">  1       -2 0.18035108E+00 0.26354319E+04</pdfrwt>
<totfact> 0.20691376E+00</totfact>
</mgrwt>
</event>
<event>
 6    1  0.1028026E-006  0.2457634E+04  0.7818608E-02  0.8418236E-01
         -3   -1    0    0    0  501 -0.00000000000E+00  0.00000000000E+00  0.42009403333E+04  0.42009403333E+04  0.00000000000E+00 0.  1.
          3   -1    0    0  501    0  0.00000000000E+00 -0.00000000000E+00 -0.35944122542E+03  0.35944122542E+03  0.00000000000E+00 0. -1.
         23    2    1    2    0    0  0.44149602531E+02 -0.11817971768E+04  0.13136871673E+04  0.17696062253E+04  0.84489435601E+02 0.  0.
         13    1    3    3    0    0  0.38888532699E+02 -0.36818420931E+03  0.45643549021E+03  0.58771190790E+03  0.00000000000E+00 0.  1.
        -13    1    3    3    0    0  0.52610698322E+01 -0.81361296750E+03  0.85725167708E+03  0.11818943174E+04  0.00000000000E+00 0. -1.
         22    1    1    2    0    0 -0.44149602531E+02  0.11817971768E+04  0.25278119406E+04  0.27907753334E+04  0.00000000000E+00 0. -1.
<mgrwt>
<rscale>  0 0.24576339E+04</rscale>
<asrwt>0</asrwt>
<pdfrwt beam="1">  1        3 0.55298653E-01 0.24576339E+04</pdfrwt>
<pdfrwt beam="2">  1       -3 0.64629848E+00 0.24576339E+04</pdfrwt>
<totfact> 0.37972870E-03</totfact>
</mgrwt>
</event>
<event>
 6    1  0.1028026E-006  0.2580478E+04  0.7818608E-02  0.8374863E-01
          2   -1    0    0  501    0  0.00000000000E+00  0.00000000000E+00  0.19913387416E+04  0.19913387416E+04  0.00000000000E+00 0. -1.
         -2   -1    0    0    0  501 -0.00000000000E+00 -0.00000000000E+00 -0.83597837519E+03  0.83597837519E+03  0.00000000000E+00 0.  1.
         23    2    1    2    0    0  0.53167914752E+03 -0.64029338940E+03 -0.49957264582E+03  0.97489664201E+03  0.90511290736E+02 0.  0.
         13    1    3    3    0    0  0.14026832117E+02 -0.56382689808E+01 -0.22428471250E+02  0.27047706353E+02  0.00000000000E+00 0.  1.
        -13    1    3    3    0    0  0.51765231540E+03 -0.63465512041E+03 -0.47714417457E+03  0.94784893566E+03  0.00000000000E+00 0. -1.
         22    1    1    2    0    0 -0.53167914752E+03  0.64029338940E+03  0.16549330122E+04  0.18524204748E+04  0.00000000000E+00 0. -1.
<mgrwt>
<rscale>  0 0.25804776E+04</rscale>
<asrwt>0</asrwt>
<pdfrwt beam="1">  1        2 0.30635981E+00 0.25804776E+04</pdfrwt>
<pdfrwt beam="2">  1       -2 0.12861206E+00 0.25804776E+04</pdfrwt>
<totfact> 0.26712115E+00</totfact>
</mgrwt>
</event>
<event>
 6    1  0.1028026E-006  0.1564113E+04  0.7818608E-02  0.8842903E-01
          2   -1    0    0  501    0  0.00000000000E+00  0.00000000000E+00  0.24156164764E+04  0.24156164764E+04  0.00000000000E+00 0. -1.
         -2   -1    0    0    0  501 -0.00000000000E+00 -0.00000000000E+00 -0.25319112804E+03  0.25319112804E+03  0.00000000000E+00 0.  1.
         23    2    1    2    0    0  0.29576952412E+03  0.25059598738E+03  0.22385948789E+04  0.22737382971E+04  0.91109009015E+02 0.  0.
         11    1    3    3    0    0  0.26216067190E+03  0.18504364455E+03  0.16871397989E+04  0.17173846597E+04  0.00000000000E+00 0.  1.
        -11    1    3    3    0    0  0.33608852217E+02  0.65552342837E+02  0.55145507998E+03  0.55635363739E+03  0.00000000000E+00 0. -1.
         22    1    1    2    0    0 -0.29576952412E+03 -0.25059598738E+03 -0.76169530480E+02  0.39506930742E+03  0.00000000000E+00 0.  1.
<mgrwt>
<rscale>  0 0.15641134E+04</rscale>
<asrwt>0</asrwt>
<pdfrwt beam="1">  1        2 0.37163329E+00 0.15641134E+04</pdfrwt>
<pdfrwt beam="2">  1       -2 0.38952483E-01 0.15641134E+04</pdfrwt>
<totfact> 0.23369693E+01</totfact>
</mgrwt>
</event>
<event>
 6    1  0.1028026E-006  0.1235818E+04  0.7818608E-02  0.9082070E-01
          2   -1    0    0  501    0  0.00000000000E+00  0.00000000000E+00  0.10142424607E+04  0.10142424607E+04  0.00000000000E+00 0. -1.
         -2   -1    0    0    0  501 -0.00000000000E+00 -0.00000000000E+00 -0.37645012696E+03  0.37645012696E+03  0.00000000000E+00 0.  1.
         23    2    1    2    0    0 -0.59578237411E+03  0.10613807621E+01  0.15098840766E+03  0.62131892924E+03  0.91005212773E+02 0.  0.
         11    1    3    3    0    0 -0.27031625741E+03 -0.40457076855E+02  0.48628248505E+02  0.27761909272E+03  0.00000000000E+00 0.  1.
        -11    1    3    3    0    0 -0.32546611670E+03  0.41518457617E+02  0.10236015915E+03  0.34369983652E+03  0.00000000000E+00 0. -1.
         22    1    1    2    0    0  0.59578237411E+03 -0.10613807621E+01  0.48680392607E+03  0.76937365841E+03  0.00000000000E+00 0. -1.
<mgrwt>
<rscale>  0 0.12358183E+04</rscale>
<asrwt>0</asrwt>
<pdfrwt beam="1">  1        2 0.15603730E+00 0.12358183E+04</pdfrwt>
<pdfrwt beam="2">  1       -2 0.57915404E-01 0.12358183E+04</pdfrwt>
<totfact> 0.67758608E+01</totfact>
</mgrwt>
</event>
<event>
 6    1  0.1028026E-006  0.1472218E+04  0.7818608E-02  0.8903140E-01
          3   -1    0    0  501    0  0.00000000000E+00  0.00000000000E+00  0.65031138673E+03  0.65031138673E+03  0.00000000000E+00 0. -1.
         -3   -1    0    0    0  501 -0.00000000000E+00 -0.00000000000E+00 -0.83322669094E+03  0.83322669094E+03  0.00000000000E+00 0.  1.
         23    2    1    2    0    0 -0.31778035668E+03  0.34817360108E+03  0.47246850450E+03  0.67623568804E+03  0.10889906549E+03 0.  0.
         13    1    3    3    0    0 -0.16326383103E+03  0.15914506729E+03  0.30229483153E+03  0.37863491141E+03  0.00000000000E+00 0. -1.
        -13    1    3    3    0    0 -0.15451652565E+03  0.18902853379E+03  0.17017367297E+03  0.29760077664E+03  0.00000000000E+00 0.  1.
         22    1    1    2    0    0  0.31778035668E+03 -0.34817360108E+03 -0.65538380871E+03  0.80730238963E+03  0.00000000000E+00 0.  1.
<mgrwt>
<rscale>  0 0.14722185E+04</rscale>
<asrwt>0</asrwt>
<pdfrwt beam="1">  1        3 0.10004791E+00 0.14722185E+04</pdfrwt>
<pdfrwt beam="2">  1       -3 0.12818872E+00 0.14722185E+04</pdfrwt>
<totfact> 0.10650797E+00</totfact>
</mgrwt>
</event>
<event>
 6    1  0.1028026E-006  0.1611683E+04  0.7818608E-02  0.8813402E-01
          1   -1    0    0  501    0  0.00000000000E+00  0.00000000000E+00  0.79363938248E+03  0.79363938248E+03  0.00000000000E+00 0. -1.
         -1   -1    0    0    0  501 -0.00000000000E+00 -0.00000000000E+00 -0.81823165823E+03  0.81823165823E+03  0.00000000000E+00 0.  1.
         23    2    1    2    0    0 -0.72781857915E+03  0.32581138707E+03  0.82546780859E+02  0.80728933476E+03  0.95021865319E+02 0.  0.
         13    1    3    3    0    0 -0.36103433668E+03  0.14630749374E+03  0.85948069100E+02  0.39892197930E+03  0.00000000000E+00 0. -1.
        -13    1    3    3    0    0 -0.36678424247E+03  0.17950389333E+03 -0.34012882408E+01  0.40836735546E+03  0.00000000000E+00 0.  1.
         22    1    1    2    0    0  0.72781857915E+03 -0.32581138707E+03 -0.10713905661E+03  0.80458170595E+03  0.00000000000E+00 0. -1.
<mgrwt>
<rscale>  0 0.16116834E+04</rscale>
<asrwt>0</asrwt>
<pdfrwt beam="1">  1        1 0.12209837E+00 0.16116834E+04</pdfrwt>
<pdfrwt beam="2">  1       -1 0.12588179E+00 0.16116834E+04</pdfrwt>
<totfact> 0.11807901E+01</totfact>
</mgrwt>
</event>
<event>
 6    1  0.1028026E-006  0.2806700E+04  0.7818608E-02  0.8301191E-01
          1   -1    0    0  501    0  0.00000000000E+00  0.00000000000E+00  0.20409113721E+04  0.20409113721E+04  0.00000000000E+00 0. -1.
         -1   -1    0    0    0  501 -0.00000000000E+00 -0.00000000000E+00 -0.96495685051E+03  0.96495685051E+03  0.00000000000E+00 0.  1.
         23    2    1    2    0    0 -0.13945369966E+04 -0.11686244596E+03  0.44788167129E+03  0.14719628241E+04  0.87671533379E+02 0.  0.
         13    1    3    3    0    0 -0.78320385417E+03 -0.36962695174E+02  0.28513440106E+03  0.83431177907E+03  0.00000000000E+00 0. -1.
        -13    1    3    3    0    0 -0.61133314246E+03 -0.79899750785E+02  0.16274727023E+03  0.63765104502E+03  0.00000000000E+00 0.  1.
         22    1    1    2    0    0  0.13945369966E+04  0.11686244596E+03  0.62807285026E+03  0.15339053985E+04  0.00000000000E+00 0.  1.
<mgrwt>
<rscale>  0 0.28067001E+04</rscale>
<asrwt>0</asrwt>
<pdfrwt beam="1">  1        1 0.31398636E+00 0.28067001E+04</pdfrwt>
<pdfrwt beam="2">  1       -1 0.14845490E+00 0.28067001E+04</pdfrwt>
<totfact> 0.86762010E-01</totfact>
</mgrwt>
</event>
<event>
 6    1  0.1028026E-006  0.2012943E+04  0.7818608E-02  0.8600593E-01
         -1   -1    0    0    0  501 -0.00000000000E+00  0.00000000000E+00  0.53817968469E+03  0.53817968469E+03  0.00000000000E+00 0.  1.
          1   -1    0    0  501    0  0.00000000000E+00 -0.00000000000E+00 -0.18822436058E+04  0.18822436058E+04  0.00000000000E+00 0. -1.
         23    2    1    2    0    0  0.82966133566E+03 -0.55809095469E+03 -0.78791029542E+03  0.12762597091E+04  0.90734589904E+02 0.  0.
         11    1    3    3    0    0  0.77326755050E+03 -0.54416024933E+03 -0.73386433248E+03  0.11969168476E+04  0.00000000000E+00 0.  1.
        -11    1    3    3    0    0  0.56393785163E+02 -0.13930705359E+02 -0.54045962944E+02  0.79342861477E+02  0.00000000000E+00 0. -1.
         22    1    1    2    0    0 -0.82966133566E+03  0.55809095469E+03 -0.55615362565E+03  0.11441635814E+04  0.00000000000E+00 0.  1.
<mgrwt>
<rscale>  0 0.20129434E+04</rscale>
<asrwt>0</asrwt>
<pdfrwt beam="1">  1        1 0.28957594E+00 0.20129434E+04</pdfrwt>
<pdfrwt beam="2">  1       -1 0.82796873E-01 0.20129434E+04</pdfrwt>
<totfact> 0.48095302E+00</totfact>
</mgrwt>
</event>
<event>
 6    1  0.1028026E-006  0.1283847E+04  0.7818608E-02  0.9042473E-01
          2   -1    0    0  501    0  0.00000000000E+00  0.00000000000E+00  0.61301800585E+03  0.61301800585E+03  0.00000000000E+00 0. -1.
         -2   -1    0    0    0  501 -0.00000000000E+00 -0.00000000000E+00 -0.67219220175E+03  0.67219220175E+03  0.00000000000E+00 0.  1.
         23    2    1    2    0    0 -0.53597561535E+03  0.33917199956E+03  0.47445288873E+02  0.64203432181E+03  0.87461473845E+02 0.  0.
         11    1    3    3    0    0 -0.40749466393E+03  0.29966737625E+03  0.40517259138E+02  0.50743875079E+03  0.00000000000E+00 0.  1.
        -11    1    3    3    0    0 -0.12848095142E+03  0.39504623313E+02  0.69280297347E+01  0.13459557101E+03  0.00000000000E+00 0. -1.
         22    1    1    2    0    0  0.53597561535E+03 -0.33917199956E+03 -0.10661948478E+03  0.64317588580E+03  0.00000000000E+00 0.  1.
<mgrwt>
<rscale>  0 0.12838472E+04</rscale>
<asrwt>0</asrwt>
<pdfrwt beam="1">  1        2 0.94310462E-01 0.12838472E+04</pdfrwt>
<pdfrwt beam="2">  1       -2 0.10341418E+00 0.12838472E+04</pdfrwt>
<totfact> 0.36155047E+01</totfact>
</mgrwt>
</event>
<event>
 6    1  0.1028026E-006  0.2891325E+04  0.7818608E-02  0.8275463E-01
          2   -1    0    0  501    0  0.00000000000E+00  0.00000000000E+00  0.89700904854E+03  0.89700904854E+03  0.00000000000E+00 0. -1.
         -2   -1    0    0    0  501 -0.00000000000E+00 -0.00000000000E+00 -0.23298985017E+04  0.23298985017E+04  0.00000000000E+00 0.  1.
         23    2    1    2    0    0  0.10709904918E+04 -0.74123192594E+03 -0.14135798958E+04  0.19242877821E+04  0.90719044151E+02 0.  0.
         13    1    3    3    0    0  0.91857504437E+03 -0.61004333653E+03 -0.12310975027E+04  0.16527353223E+04  0.00000000000E+00 0. -1.
        -13    1    3    3    0    0  0.15241544739E+03 -0.13118858940E+03 -0.18248239311E+03  0.27155245974E+03  0.00000000000E+00 0.  1.
         22    1    1    2    0    0 -0.10709904918E+04  0.74123192594E+03 -0.19309557389E+02  0.13026197682E+04  0.00000000000E+00 0. -1.
<mgrwt>
<rscale>  0 0.28913250E+04</rscale>
<asrwt>0</asrwt>
<pdfrwt beam="1">  1        2 0.13800139E+00 0.28913250E+04</pdfrwt>
<pdfrwt beam="2">  1       -2 0.35844593E+00 0.28913250E+04</pdfrwt>
<totfact> 0.34994490E-01</totfact>
</mgrwt>
</event>
<event>
 6    1  0.1028026E-006  0.2205558E+04  0.7818608E-02  0.8516118E-01
          2   -1    0    0  501    0  0.00000000000E+00  0.00000000000E+00  0.18520260982E+04  0.18520260982E+04  0.00000000000E+00 0. -1.
         -2   -1    0    0    0  501 -0.00000000000E+00 -0.00000000000E+00 -0.65664373576E+03  0.65664373576E+03  0.00000000000E+00 0.  1.
         23    2    1    2    0    0 -0.72001567439E+03  0.45253439555E+03  0.13938394527E+04  0.16354028832E+04  0.92434950902E+02 0.  0.
         11    1    3    3    0    0 -0.51484917488E+03  0.29803443283E+03  0.10409550713E+04  0.11989502310E+04  0.00000000000E+00 0.  1.
        -11    1    3    3    0    0 -0.20516649950E+03  0.15449996272E+03  0.35288438141E+03  0.43645265223E+03  0.00000000000E+00 0. -1.
         22    1    1    2    0    0  0.72001567439E+03 -0.45253439555E+03 -0.19845709026E+03  0.87326695071E+03  0.00000000000E+00 0.  1.
<mgrwt>
<rscale>  0 0.22055578E+04</rscale>
<asrwt>0</asrwt>
<pdfrwt beam="1">  1        2 0.28492709E+00 0.22055578E+04</pdfrwt>
<pdfrwt beam="2">  1       -2 0.10102211E+00 0.22055578E+04</pdfrwt>
<totfact> 0.59471573E+00</totfact>
</mgrwt>
</event>
<event>
 6    1  0.1028026E-006  0.1315136E+04  0.7818608E-02  0.9017647E-01
         -2   -1    0    0    0  501 -0.00000000000E+00  0.00000000000E+00  0.26842639274E+03  0.26842639274E+03  0.00000000000E+00 0.  1.
          2   -1    0    0  501    0  0.00000000000E+00 -0.00000000000E+00 -0.16108549482E+04  0.16108549482E+04  0.00000000000E+00 0. -1.
         23    2    1    2    0    0  0.26128633963E+03  0.64666994421E+02 -0.15268097123E+04  0.15530164448E+04  0.90883491000E+02 0.  0.
         13    1    3    3    0    0  0.14228540486E+03  0.23770123212E+02 -0.57014860701E+03  0.58811528570E+03  0.00000000000E+00 0.  1.
        -13    1    3    3    0    0  0.11900093477E+03  0.40896871209E+02 -0.95666110526E+03  0.96490115912E+03  0.00000000000E+00 0. -1.
         22    1    1    2    0    0 -0.26128633963E+03 -0.64666994421E+02  0.18438115682E+03  0.32626489611E+03  0.00000000000E+00 0.  1.
<mgrwt>
<rscale>  0 0.13151365E+04</rscale>
<asrwt>0</asrwt>
<pdfrwt beam="1">  1        2 0.24782383E+00 0.13151365E+04</pdfrwt>
<pdfrwt beam="2">  1       -2 0.41296369E-01 0.13151365E+04</pdfrwt>
<totfact> 0.59795374E+01</totfact>
</mgrwt>
</event>
<event>
 6    1  0.1028026E-006  0.5648446E+03  0.7818608E-02  0.9981152E-01
          1   -1    0    0  501    0  0.00000000000E+00  0.00000000000E+00  0.75556373812E+03  0.75556373812E+03  0.00000000000E+00 0. -1.
         -1   -1    0    0    0  501 -0.00000000000E+00 -0.00000000000E+00 -0.10556668753E+03  0.10556668753E+03  0.00000000000E+00 0.  1.
         23    2    1    2    0    0 -0.16907799442E+03 -0.85824655852E+02  0.63688159881E+03  0.67106397721E+03  0.93570566196E+02 0.  0.
         11    1    3    3    0    0 -0.57899057501E+02  0.16449212130E+02  0.19450077600E+03  0.20360115251E+03  0.00000000000E+00 0. -1.
        -11    1    3    3    0    0 -0.11117893692E+03 -0.10227386798E+03  0.44238082281E+03  0.46746282470E+03  0.00000000000E+00 0.  1.
         22    1    1    2    0    0  0.16907799442E+03  0.85824655852E+02  0.13115451774E+02  0.19006644844E+03  0.00000000000E+00 0.  1.
<mgrwt>
<rscale>  0 0.56484462E+03</rscale>
<asrwt>0</asrwt>
<pdfrwt beam="1">  1        1 0.11624057E+00 0.56484462E+03</pdfrwt>
<pdfrwt beam="2">  1       -1 0.16241029E-01 0.56484462E+03</pdfrwt>
<totfact> 0.70636096E+02</totfact>
</mgrwt>
</event>
<event>
 6    1  0.1028026E-006  0.3328343E+04  0.7818608E-02  0.8155721E-01
         -2   -1    0    0    0  501 -0.00000000000E+00  0.00000000000E+00  0.13249490787E+04  0.13249490787E+04  0.00000000000E+00 0.  1.
          2   -1    0    0  501    0  0.00000000000E+00 -0.00000000000E+00 -0.20902435704E+04  0.20902435704E+04  0.00000000000E+00 0. -1.
         23    2    1    2    0    0  0.14397797685E+03 -0.16562483746E+04 -0.34463478960E+03  0.17003040461E+04  0.91500681913E+02 0.  0.
         13    1    3    3    0    0  0.12314955781E+03 -0.89031309891E+03 -0.18458860661E+03  0.91754900761E+03  0.00000000000E+00 0.  1.
        -13    1    3    3    0    0  0.20828419045E+02 -0.76593527566E+03 -0.16004618299E+03  0.78275503845E+03  0.00000000000E+00 0. -1.
         22    1    1    2    0    0 -0.14397797685E+03  0.16562483746E+04 -0.42065970211E+03  0.17148886031E+04  0.00000000000E+00 0. -1.
<mgrwt>
<rscale>  0 0.33283427E+04</rscale>
<asrwt>0</asrwt>
<pdfrwt beam="1">  1        2 0.32157593E+00 0.33283427E+04</pdfrwt>
<pdfrwt beam="2">  1       -2 0.20383832E+00 0.33283427E+04</pdfrwt>
<totfact> 0.62240978E-01</totfact>
</mgrwt>
</event>
<event>
 6    1  0.1628090E-006  0.3883271E+04  0.7818608E-02  0.8028518E-01
          1   -1    0    0  501    0  0.00000000000E+00  0.00000000000E+00  0.18549844203E+04  0.18549844203E+04  0.00000000000E+00 0. -1.
         -1   -1    0    0    0  501 -0.00000000000E+00 -0.00000000000E+00 -0.20323338980E+04  0.20323338980E+04  0.00000000000E+00 0.  1.
         23    2    1    2    0    0 -0.64708123583E+03  0.18060061746E+04  0.20541638363E+03  0.19310764792E+04  0.80548428996E+02 0.  0.
         13    1    3    3    0    0 -0.44917387678E+03  0.12442801958E+04  0.10422692838E+03  0.13269716010E+04  0.00000000000E+00 0. -1.
        -13    1    3    3    0    0 -0.19790735904E+03  0.56172597883E+03  0.10118945525E+03  0.60410487824E+03  0.00000000000E+00 0.  1.
         22    1    1    2    0    0  0.64708123583E+03 -0.18060061746E+04 -0.38276586133E+03  0.19562418391E+04  0.00000000000E+00 0. -1.
<mgrwt>
<rscale>  0 0.38832706E+04</rscale>
<asrwt>0</asrwt>
<pdfrwt beam="1">  1        1 0.28538222E+00 0.38832706E+04</pdfrwt>
<pdfrwt beam="2">  1       -1 0.31266675E+00 0.38832706E+04</pdfrwt>
<totfact> 0.80695810E-02</totfact>
</mgrwt>
</event>
<event>
 6    1  0.1144889E-006  0.2911408E+04  0.7818608E-02  0.8269491E-01
          1   -1    0    0  501    0  0.00000000000E+00  0.00000000000E+00  0.24844041279E+04  0.24844041279E+04  0.00000000000E+00 0. -1.
         -1   -1    0    0    0  501 -0.00000000000E+00 -0.00000000000E+00 -0.85295056399E+03  0.85295056399E+03  0.00000000000E+00 0.  1.
         23    2    1    2    0    0  0.24162376306E+03 -0.27544794552E+02  0.24601607012E+04  0.24737018230E+04  0.87574393938E+02 0.  0.
         13    1    3    3    0    0  0.12325440737E+03  0.20314319187E+02  0.14795542867E+04  0.14848182407E+04  0.00000000000E+00 0. -1.
        -13    1    3    3    0    0  0.11836935569E+03 -0.47859113739E+02  0.98060641454E+03  0.98888358231E+03  0.00000000000E+00 0.  1.
         22    1    1    2    0    0 -0.24162376306E+03  0.27544794552E+02 -0.82870713731E+03  0.86365286893E+03  0.00000000000E+00 0.  1.
<mgrwt>
<rscale>  0 0.29114078E+04</rscale>
<asrwt>0</asrwt>
<pdfrwt beam="1">  1        1 0.38221602E+00 0.29114078E+04</pdfrwt>
<pdfrwt beam="2">  1       -1 0.13122316E+00 0.29114078E+04</pdfrwt>
<totfact> 0.58961913E-01</totfact>
</mgrwt>
</event>
<event>
 6    1  0.1028026E-006  0.2592480E+04  0.7818608E-02  0.8370760E-01
         -2   -1    0    0    0  501 -0.00000000000E+00  0.00000000000E+00  0.96381694761E+03  0.96381694761E+03  0.00000000000E+00 0.  1.
          2   -1    0    0  501    0  0.00000000000E+00 -0.00000000000E+00 -0.17433166391E+04  0.17433166391E+04  0.00000000000E+00 0. -1.
         23    2    1    2    0    0  0.24310710565E+03 -0.59219431923E+03 -0.15653114806E+04  0.16935777942E+04  0.90612013701E+02 0.  0.
         13    1    3    3    0    0  0.16273547650E+03 -0.47279662113E+03 -0.11488477004E+04  0.12529447390E+04  0.00000000000E+00 0.  1.
        -13    1    3    3    0    0  0.80371629151E+02 -0.11939769810E+03 -0.41646378024E+03  0.44063305520E+03  0.00000000000E+00 0. -1.
         22    1    1    2    0    0 -0.24310710565E+03  0.59219431923E+03  0.78581178915E+03  0.10135557925E+04  0.00000000000E+00 0.  1.
<mgrwt>
<rscale>  0 0.25924800E+04</rscale>
<asrwt>0</asrwt>
<pdfrwt beam="1">  1        2 0.26820256E+00 0.25924800E+04</pdfrwt>
<pdfrwt beam="2">  1       -2 0.14827953E+00 0.25924800E+04</pdfrwt>
<totfact> 0.25371164E+00</totfact>
</mgrwt>
</event>
<event>
 6    1  0.1028026E-006  0.1004638E+04  0.7818608E-02  0.9303472E-01
          2   -1    0    0  501    0  0.00000000000E+00  0.00000000000E+00  0.97573430941E+03  0.97573430941E+03  0.00000000000E+00 0. -1.
         -2   -1    0    0    0  501 -0.00000000000E+00 -0.00000000000E+00 -0.25859951100E+03  0.25859951100E+03  0.00000000000E+00 0.  1.
         23    2    1    2    0    0 -0.14923686779E+03  0.25192271525E+03  0.85666546521E+03  0.90997984071E+03  0.91928744354E+02 0.  0.
         11    1    3    3    0    0 -0.15809500514E+03  0.22587545695E+03  0.72924458067E+03  0.77962260815E+03  0.00000000000E+00 0.  1.
        -11    1    3    3    0    0  0.88581373493E+01  0.26047258301E+02  0.12742088454E+03  0.13035723255E+03  0.00000000000E+00 0. -1.
         22    1    1    2    0    0  0.14923686779E+03 -0.25192271525E+03 -0.13953066680E+03  0.32435397970E+03  0.00000000000E+00 0.  1.
<mgrwt>
<rscale>  0 0.10046381E+04</rscale>
<asrwt>0</asrwt>
<pdfrwt beam="1">  1        2 0.15011297E+00 0.10046381E+04</pdfrwt>
<pdfrwt beam="2">  1       -2 0.39784541E-01 0.10046381E+04</pdfrwt>
<totfact> 0.15567463E+02</totfact>
</mgrwt>
</event>
<event>
 6    1  0.1028026E-006  0.1721011E+04  0.7818608E-02  0.8749471E-01
          2   -1    0    0  501    0  0.00000000000E+00  0.00000000000E+00  0.11622428390E+04  0.11622428390E+04  0.00000000000E+00 0. -1.
         -2   -1    0    0    0  501 -0.00000000000E+00 -0.00000000000E+00 -0.63710424329E+03  0.63710424329E+03  0.00000000000E+00 0.  1.
         23    2    1    2    0    0 -0.53025309598E+03  0.10215373930E+03  0.96051864534E+03  0.11056904526E+04  0.91386961792E+02 0.  0.
         11    1    3    3    0    0 -0.31419709861E+03  0.99859432867E+02  0.62489216957E+03  0.70652809335E+03  0.00000000000E+00 0. -1.
        -11    1    3    3    0    0 -0.21605599737E+03  0.22943064376E+01  0.33562647577E+03  0.39916235930E+03  0.00000000000E+00 0.  1.
         22    1    1    2    0    0  0.53025309598E+03 -0.10215373930E+03 -0.43538004962E+03  0.69365662965E+03  0.00000000000E+00 0.  1.
<mgrwt>
<rscale>  0 0.17210111E+04</rscale>
<asrwt>0</asrwt>
<pdfrwt beam="1">  1        2 0.17880659E+00 0.17210111E+04</pdfrwt>
<pdfrwt beam="2">  1       -2 0.98016037E-01 0.17210111E+04</pdfrwt>
<totfact> 0.16423559E+01</totfact>
</mgrwt>
</event>
<event>
 6    1  0.1028026E-006  0.1666885E+04  0.7818608E-02  0.8780480E-01
         -2   -1    0    0    0  501 -0.00000000000E+00  0.00000000000E+00  0.10606345040E+04  0.10606345040E+04  0.00000000000E+00 0.  1.
          2   -1    0    0  501    0  0.00000000000E+00 -0.00000000000E+00 -0.65491565168E+03  0.65491565168E+03  0.00000000000E+00 0. -1.
         23    2    1    2    0    0  0.54067816051E+03  0.59758093097E+03 -0.50741165760E+01  0.81101342030E+03  0.91000983155E+02 0.  0.
         13    1    3    3    0    0  0.43692799995E+03  0.43500726828E+03 -0.25476903992E+02  0.61707898460E+03  0.00000000000E+00 0.  1.
        -13    1    3    3    0    0  0.10375016057E+03  0.16257366269E+03  0.20402787416E+02  0.19393443570E+03  0.00000000000E+00 0. -1.
         22    1    1    2    0    0 -0.54067816051E+03 -0.59758093097E+03  0.41079296887E+03  0.90453673534E+03  0.00000000000E+00 0.  1.
<mgrwt>
<rscale>  0 0.16668847E+04</rscale>
<asrwt>0</asrwt>
<pdfrwt beam="1">  1        2 0.10075625E+00 0.16668847E+04</pdfrwt>
<pdfrwt beam="2">  1       -2 0.16317454E+00 0.16668847E+04</pdfrwt>
<totfact> 0.10136550E+01</totfact>
</mgrwt>
</event>
<event>
 6    1  0.1028026E-006  0.1370313E+04  0.7818608E-02  0.8975593E-01
          2   -1    0    0  501    0  0.00000000000E+00  0.00000000000E+00  0.11579104364E+04  0.11579104364E+04  0.00000000000E+00 0. -1.
         -2   -1    0    0    0  501 -0.00000000000E+00 -0.00000000000E+00 -0.40541923658E+03  0.40541923658E+03  0.00000000000E+00 0.  1.
         23    2    1    2    0    0  0.56880638138E+03  0.27814977494E+03  0.66693094954E+03  0.92440201412E+03  0.93883946753E+02 0.  0.
         11    1    3    3    0    0  0.20321915257E+03  0.14896741114E+03  0.24711680362E+03  0.35292496113E+03  0.00000000000E+00 0.  1.
        -11    1    3    3    0    0  0.36558722881E+03  0.12918236379E+03  0.41981414591E+03  0.57147705299E+03  0.00000000000E+00 0. -1.
         22    1    1    2    0    0 -0.56880638138E+03 -0.27814977494E+03  0.85560250255E+02  0.63892765883E+03  0.00000000000E+00 0.  1.
<mgrwt>
<rscale>  0 0.13703126E+04</rscale>
<asrwt>0</asrwt>
<pdfrwt beam="1">  1        2 0.17814007E+00 0.13703126E+04</pdfrwt>
<pdfrwt beam="2">  1       -2 0.62372190E-01 0.13703126E+04</pdfrwt>
<totfact> 0.46712601E+01</totfact>
</mgrwt>
</event>
<event>
 6    1  0.1028026E-006  0.8238858E+03  0.7818608E-02  0.9526073E-01
         -1   -1    0    0    0  501 -0.00000000000E+00  0.00000000000E+00  0.44256717622E+03  0.44256717622E+03  0.00000000000E+00 0.  1.
          1   -1    0    0  501    0  0.00000000000E+00 -0.00000000000E+00 -0.38343768349E+03  0.38343768349E+03  0.00000000000E+00 0. -1.
         23    2    1    2    0    0  0.47180349305E+02 -0.84183399825E+02 -0.36543293912E+03  0.39061298024E+03  0.98612560907E+02 0.  0.
         13    1    3    3    0    0  0.25584530544E+02 -0.10081276960E+02 -0.25148715725E+03  0.25298614708E+03  0.00000000000E+00 0.  1.
        -13    1    3    3    0    0  0.21595818760E+02 -0.74102122864E+02 -0.11394578187E+03  0.13762683316E+03  0.00000000000E+00 0. -1.
         22    1    1    2    0    0 -0.47180349305E+02  0.84183399825E+02  0.42456243185E+03  0.43539187947E+03  0.00000000000E+00 0.  1.
<mgrwt>
<rscale>  0 0.82388575E+03</rscale>
<asrwt>0</asrwt>
<pdfrwt beam="1">  1        1 0.58990413E-01 0.82388575E+03</pdfrwt>
<pdfrwt beam="2">  1       -1 0.68087258E-01 0.82388575E+03</pdfrwt>
<totfact> 0.14021171E+02</totfact>
</mgrwt>
</event>
<event>
 6    1  0.1028026E-006  0.1453428E+04  0.7818608E-02  0.8916027E-01
          1   -1    0    0  501    0  0.00000000000E+00  0.00000000000E+00  0.76624916439E+03  0.76624916439E+03  0.00000000000E+00 0. -1.
         -1   -1    0    0    0  501 -0.00000000000E+00 -0.00000000000E+00 -0.68921885097E+03  0.68921885097E+03  0.00000000000E+00 0.  1.
         23    2    1    2    0    0 -0.89520282287E+02  0.21032429253E+03  0.72651246616E+03  0.76693533227E+03  0.90106888941E+02 0.  0.
         11    1    3    3    0    0 -0.26696502413E+02  0.14524534339E+03  0.53709906184E+03  0.55703170040E+03  0.00000000000E+00 0. -1.
        -11    1    3    3    0    0 -0.62823779874E+02  0.65078949139E+02  0.18941340431E+03  0.20990363187E+03  0.00000000000E+00 0.  1.
         22    1    1    2    0    0  0.89520282287E+02 -0.21032429253E+03 -0.64948215273E+03  0.68853268309E+03  0.00000000000E+00 0.  1.
<mgrwt>
<rscale>  0 0.14534282E+04</rscale>
<asrwt>0</asrwt>
<pdfrwt beam="1">  1        1 0.11788449E+00 0.14534282E+04</pdfrwt>
<pdfrwt beam="2">  1       -1 0.10603367E+00 0.14534282E+04</pdfrwt>
<totfact> 0.19140843E+01</totfact>
</mgrwt>
</event>
<event>
 6    1  0.1028026E-006  0.2502687E+04  0.7818608E-02  0.8402029E-01
          1   -1    0    0  501    0  0.00000000000E+00  0.00000000000E+00  0.37673666545E+04  0.37673666545E+04  0.00000000000E+00 0. -1.
         -1   -1    0    0    0  501 -0.00000000000E+00 -0.00000000000E+00 -0.41563804082E+03  0.41563804082E+03  0.00000000000E+00 0.  1.
         23    2    1    2    0    0  0.10476782409E+04 -0.49594072653E+03  0.24586583174E+04  0.27197338882E+04  0.91459283597E+02 0.  0.
         13    1    3    3    0    0  0.74166371033E+03 -0.39026846764E+03  0.17244345881E+04  0.19173025803E+04  0.00000000000E+00 0.  1.
        -13    1    3    3    0    0  0.30601453058E+03 -0.10567225888E+03  0.73422372932E+03  0.80243130791E+03  0.00000000000E+00 0. -1.
         22    1    1    2    0    0 -0.10476782409E+04  0.49594072653E+03  0.89307029631E+03  0.14632708071E+04  0.00000000000E+00 0.  1.
<mgrwt>
<rscale>  0 0.25026873E+04</rscale>
<asrwt>0</asrwt>
<pdfrwt beam="1">  1        1 0.57959485E+00 0.25026873E+04</pdfrwt>
<pdfrwt beam="2">  1       -1 0.63944316E-01 0.25026873E+04</pdfrwt>
<totfact> 0.33489880E-01</totfact>
</mgrwt>
</event>
<event>
 6    1  0.1028026E-006  0.2362731E+04  0.7818608E-02  0.8453590E-01
          1   -1    0    0  501    0  0.00000000000E+00  0.00000000000E+00  0.71664864496E+03  0.71664864496E+03  0.00000000000E+00 0. -1.
         -1   -1    0    0    0  501 -0.00000000000E+00 -0.00000000000E+00 -0.19474313812E+04  0.19474313812E+04  0.00000000000E+00 0.  1.
         23    2    1    2    0    0 -0.61517628274E+03  0.73589658360E+03 -0.13905537282E+04  0.16917054016E+04  0.90784659532E+02 0.  0.
         11    1    3    3    0    0 -0.24738651984E+03  0.24637029851E+03 -0.55831121571E+03  0.65849056772E+03  0.00000000000E+00 0.  1.
        -11    1    3    3    0    0 -0.36778976290E+03  0.48952628508E+03 -0.83224251246E+03  0.10332148339E+04  0.00000000000E+00 0. -1.
         22    1    1    2    0    0  0.61517628274E+03 -0.73589658360E+03  0.15977099191E+03  0.97237462454E+03  0.00000000000E+00 0. -1.
<mgrwt>
<rscale>  0 0.23627307E+04</rscale>
<asrwt>0</asrwt>
<pdfrwt beam="1">  1        1 0.11025364E+00 0.23627307E+04</pdfrwt>
<pdfrwt beam="2">  1       -1 0.29960482E+00 0.23627307E+04</pdfrwt>
<totfact> 0.78507541E-01</totfact>
</mgrwt>
</event>
<event>
 6    1  0.1028026E-006  0.3362757E+04  0.7818608E-02  0.8147108E-01
          2   -1    0    0  501    0  0.00000000000E+00  0.00000000000E+00  0.16770058494E+04  0.16770058494E+04  0.00000000000E+00 0. -1.
         -2   -1    0    0    0  501 -0.00000000000E+00 -0.00000000000E+00 -0.16857627229E+04  0.16857627229E+04  0.00000000000E+00 0.  1.
         23    2    1    2    0    0  0.13908139207E+04 -0.19078716762E+03  0.91915692344E+03  0.16799771057E+04  0.81917764879E+02 0.  0.
         11    1    3    3    0    0  0.62358621095E+03 -0.48056157080E+02  0.38903125046E+03  0.73655581632E+03  0.00000000000E+00 0.  1.
        -11    1    3    3    0    0  0.76722770978E+03 -0.14273101054E+03  0.53012567298E+03  0.94342128934E+03  0.00000000000E+00 0. -1.
         22    1    1    2    0    0 -0.13908139207E+04  0.19078716762E+03 -0.92791379696E+03  0.16827914666E+04  0.00000000000E+00 0.  1.
<mgrwt>
<rscale>  0 0.33627572E+04</rscale>
<asrwt>0</asrwt>
<pdfrwt beam="1">  1        2 0.25800090E+00 0.33627572E+04</pdfrwt>
<pdfrwt beam="2">  1       -2 0.25934811E+00 0.33627572E+04</pdfrwt>
<totfact> 0.47260341E-01</totfact>
</mgrwt>
</event>
<event>
 6    1  0.1028026E-006  0.7746374E+03  0.7818608E-02  0.9597472E-01
          2   -1    0    0  501    0  0.00000000000E+00  0.00000000000E+00  0.19175767007E+04  0.19175767007E+04  0.00000000000E+00 0. -1.
         -2   -1    0    0    0  501 -0.00000000000E+00 -0.00000000000E+00 -0.78231952439E+02  0.78231952439E+02  0.00000000000E+00 0.  1.
         23    2    1    2    0    0 -0.20000092798E+03 -0.32234796095E+03  0.81805815611E+03  0.90634324184E+03  0.91270729807E+02 0.  0.
         13    1    3    3    0    0 -0.13201570558E+03 -0.17984556757E+03  0.57218605975E+03  0.61414123919E+03  0.00000000000E+00 0. -1.
        -13    1    3    3    0    0 -0.67985222408E+02 -0.14250239338E+03  0.24587209636E+03  0.29220200265E+03  0.00000000000E+00 0.  1.
         22    1    1    2    0    0  0.20000092798E+03  0.32234796095E+03  0.10212865922E+04  0.10894654113E+04  0.00000000000E+00 0.  1.
<mgrwt>
<rscale>  0 0.77463738E+03</rscale>
<asrwt>0</asrwt>
<pdfrwt beam="1">  1        2 0.29501176E+00 0.77463738E+03</pdfrwt>
<pdfrwt beam="2">  1       -2 0.12035686E-01 0.77463738E+03</pdfrwt>
<totfact> 0.38343179E+02</totfact>
</mgrwt>
</event>
<event>
 6    1  0.1028026E-006  0.5000339E+04  0.7818608E-02  0.7828455E-01
         -2   -1    0    0    0  501 -0.00000000000E+00  0.00000000000E+00  0.22831843211E+04  0.22831843211E+04  0.00000000000E+00 0.  1.
          2   -1    0    0  501    0  0.00000000000E+00 -0.00000000000E+00 -0.27377764650E+04  0.27377764650E+04  0.00000000000E+00 0. -1.
         23    2    1    2    0    0 -0.12889313742E+04 -0.71951873283E+03 -0.22525166003E+04  0.26946797099E+04  0.91740995611E+02 0.  0.
         13    1    3    3    0    0 -0.10340275773E+04 -0.61520231088E+03 -0.18565829027E+04  0.22123713496E+04  0.00000000000E+00 0. -1.
        -13    1    3    3    0    0 -0.25490379693E+03 -0.10431642195E+03 -0.39593369756E+03  0.48230836033E+03  0.00000000000E+00 0.  1.
         22    1    1    2    0    0  0.12889313742E+04  0.71951873283E+03  0.17979244564E+04  0.23262810762E+04  0.00000000000E+00 0.  1.
<mgrwt>
<rscale>  0 0.50003393E+04</rscale>
<asrwt>0</asrwt>
<pdfrwt beam="1">  1        2 0.42119638E+00 0.50003393E+04</pdfrwt>
<pdfrwt beam="2">  1       -2 0.35125913E+00 0.50003393E+04</pdfrwt>
<totfact> 0.28034785E-02</totfact>
</mgrwt>
</event>
<event>
 6    1  0.1028026E-006  0.4348757E+04  0.7818608E-02  0.7937664E-01
          2   -1    0    0  501    0  0.00000000000E+00  0.00000000000E+00  0.30054632847E+04  0.30054632847E+04  0.00000000000E+00 0. -1.
         -2   -1    0    0    0  501 -0.00000000000E+00 -0.00000000000E+00 -0.15731088276E+04  0.15731088276E+04  0.00000000000E+00 0.  1.
         23    2    1    2    0    0  0.48820296907E+03  0.50523914667E+03 -0.14489492766E+04  0.16128479275E+04  0.90640481131E+02 0.  0.
         11    1    3    3    0    0  0.96084332696E+02  0.10023585895E+03 -0.37608295290E+03  0.40089626322E+03  0.00000000000E+00 0.  1.
        -11    1    3    3    0    0  0.39211863637E+03  0.40500328772E+03 -0.10728663237E+04  0.12119516643E+04  0.00000000000E+00 0. -1.
         22    1    1    2    0    0 -0.48820296907E+03 -0.50523914667E+03  0.28813037337E+04  0.29657241848E+04  0.00000000000E+00 0. -1.
<mgrwt>
<rscale>  0 0.43487565E+04</rscale>
<asrwt>0</asrwt>
<pdfrwt beam="1">  1        2 0.46237897E+00 0.43487565E+04</pdfrwt>
<pdfrwt beam="2">  1       -2 0.24201674E+00 0.43487565E+04</pdfrwt>
<totfact> 0.95313769E-02</totfact>
</mgrwt>
</event>
<event>
 6    1  0.1028026E-006  0.1730265E+04  0.7818608E-02  0.8744289E-01
         -2   -1    0    0    0  501 -0.00000000000E+00  0.00000000000E+00  0.12581551722E+04  0.12581551722E+04  0.00000000000E+00 0.  1.
          2   -1    0    0  501    0  0.00000000000E+00 -0.00000000000E+00 -0.59488204415E+03  0.59488204415E+03  0.00000000000E+00 0. -1.
         23    2    1    2    0    0 -0.12425099038E+03  0.73719442538E+03  0.79381392677E+03  0.10941335139E+04  0.89964807434E+02 0.  0.
         13    1    3    3    0    0 -0.97207558187E+02  0.37911538759E+03  0.36929656447E+03  0.53810569502E+03  0.00000000000E+00 0. -1.
        -13    1    3    3    0    0 -0.27043432191E+02  0.35807903779E+03  0.42451736229E+03  0.55602781892E+03  0.00000000000E+00 0.  1.
         22    1    1    2    0    0  0.12425099038E+03 -0.73719442538E+03 -0.13054079870E+03  0.75890370242E+03  0.00000000000E+00 0. -1.
<mgrwt>
<rscale>  0 0.17302646E+04</rscale>
<asrwt>0</asrwt>
<pdfrwt beam="1">  1        2 0.91520315E-01 0.17302646E+04</pdfrwt>
<pdfrwt beam="2">  1       -2 0.19356233E+00 0.17302646E+04</pdfrwt>
<totfact> 0.69734967E+00</totfact>
</mgrwt>
</event>
<event>
 6    1  0.1028026E-006  0.1492292E+04  0.7818608E-02  0.8889595E-01
         -2   -1    0    0    0  501 -0.00000000000E+00  0.00000000000E+00  0.27300026709E+03  0.27300026709E+03  0.00000000000E+00 0.  1.
          2   -1    0    0  501    0  0.00000000000E+00 -0.00000000000E+00 -0.20393165886E+04  0.20393165886E+04  0.00000000000E+00 0. -1.
         23    2    1    2    0    0  0.33533357422E+02  0.69411941821E+03 -0.47921263564E+03  0.84959263323E+03  0.96107437176E+02 0.  0.
         11    1    3    3    0    0  0.27027013291E+02  0.25611222708E+03 -0.12510972880E+03  0.28631516996E+03  0.00000000000E+00 0.  1.
        -11    1    3    3    0    0  0.65063441310E+01  0.43800719114E+03 -0.35410290684E+03  0.56327746328E+03  0.00000000000E+00 0. -1.
         22    1    1    2    0    0 -0.33533357422E+02 -0.69411941821E+03 -0.12871036858E+04  0.14627242224E+04  0.00000000000E+00 0.  1.
<mgrwt>
<rscale>  0 0.14922922E+04</rscale>
<asrwt>0</asrwt>
<pdfrwt beam="1">  1        2 0.31374102E+00 0.14922922E+04</pdfrwt>
<pdfrwt beam="2">  1       -2 0.42000041E-01 0.14922922E+04</pdfrwt>
<totfact> 0.33011502E+01</totfact>
</mgrwt>
</event>
<event>
 6    1  0.1028026E-006  0.6532739E+03  0.7818608E-02  0.9800655E-01
          2   -1    0    0  501    0  0.00000000000E+00  0.00000000000E+00  0.12303809611E+04  0.12303809611E+04  0.00000000000E+00 0. -1.
         -2   -1    0    0    0  501 -0.00000000000E+00 -0.00000000000E+00 -0.86714367392E+02  0.86714367392E+02  0.00000000000E+00 0.  1.
         23    2    1    2    0    0  0.94344557938E+02  0.30619151928E+03  0.56276958145E+03  0.65369840286E+03  0.89206827093E+02 0.  0.
         11    1    3    3    0    0 -0.98556342482E+01  0.69157939735E+02  0.82711003521E+02  0.10826386405E+03  0.00000000000E+00 0. -1.
        -11    1    3    3    0    0  0.10420019219E+03  0.23703357955E+03  0.48005857793E+03  0.54543453881E+03  0.00000000000E+00 0.  1.
         22    1    1    2    0    0 -0.94344557938E+02 -0.30619151928E+03  0.58089701227E+03  0.66339692565E+03  0.00000000000E+00 0. -1.
<mgrwt>
<rscale>  0 0.65327393E+03</rscale>
<asrwt>0</asrwt>
<pdfrwt beam="1">  1        2 0.18928937E+00 0.65327393E+03</pdfrwt>
<pdfrwt beam="2">  1       -2 0.13340673E-01 0.65327393E+03</pdfrwt>
<totfact> 0.78405729E+02</totfact>
</mgrwt>
</event>
<event>
 6    1  0.1028026E-006  0.5457096E+04  0.7818608E-02  0.7761621E-01
          1   -1    0    0  501    0  0.00000000000E+00  0.00000000000E+00  0.27326745756E+04  0.27326745756E+04  0.00000000000E+00 0. -1.
         -1   -1    0    0    0  501 -0.00000000000E+00 -0.00000000000E+00 -0.27244271941E+04  0.27244271941E+04  0.00000000000E+00 0.  1.
         23    2    1    2    0    0  0.96462577007E+02 -0.20416975658E+04 -0.18022482587E+04  0.27265837891E+04  0.91249079414E+02 0.  0.
         11    1    3    3    0    0  0.10512715000E+02 -0.72061950166E+03 -0.58672805058E+03  0.92932921437E+03  0.00000000000E+00 0.  1.
        -11    1    3    3    0    0  0.85949862007E+02 -0.13210780641E+04 -0.12155202081E+04  0.17972545748E+04  0.00000000000E+00 0. -1.
         22    1    1    2    0    0 -0.96462577007E+02  0.20416975658E+04  0.18104956402E+04  0.27305179805E+04  0.00000000000E+00 0. -1.
<mgrwt>
<rscale>  0 0.54570955E+04</rscale>
<asrwt>0</asrwt>
<pdfrwt beam="1">  1        1 0.42041148E+00 0.54570955E+04</pdfrwt>
<pdfrwt beam="2">  1       -1 0.41914264E+00 0.54570955E+04</pdfrwt>
<totfact> 0.34302068E-03</totfact>
</mgrwt>
</event>
<event>
 6    1  0.1028026E-006  0.2222844E+04  0.7818608E-02  0.8508980E-01
         -1   -1    0    0    0  501 -0.00000000000E+00  0.00000000000E+00  0.14904794652E+04  0.14904794652E+04  0.00000000000E+00 0.  1.
          1   -1    0    0  501    0  0.00000000000E+00 -0.00000000000E+00 -0.82876628791E+03  0.82876628791E+03  0.00000000000E+00 0. -1.
         23    2    1    2    0    0 -0.31653139201E+03 -0.10410973242E+04  0.55780785495E+03  0.12261437100E+04  0.90570602012E+02 0.  0.
         13    1    3    3    0    0 -0.14401246164E+03 -0.35888398318E+03  0.22905483732E+03  0.44944790687E+03  0.00000000000E+00 0. -1.
        -13    1    3    3    0    0 -0.17251893037E+03 -0.68221334102E+03  0.32875301764E+03  0.77669580314E+03  0.00000000000E+00 0.  1.
         22    1    1    2    0    0  0.31653139201E+03  0.10410973242E+04  0.10390532231E+03  0.10931020431E+04  0.00000000000E+00 0. -1.
<mgrwt>
<rscale>  0 0.22228442E+04</rscale>
<asrwt>0</asrwt>
<pdfrwt beam="1">  1        1 0.12750251E+00 0.22228442E+04</pdfrwt>
<pdfrwt beam="2">  1       -1 0.22930453E+00 0.22228442E+04</pdfrwt>
<totfact> 0.18122286E+00</totfact>
</mgrwt>
</event>
<event>
 6    1  0.1028026E-006  0.2722281E+04  0.7818608E-02  0.8327812E-01
         -2   -1    0    0    0  501 -0.00000000000E+00  0.00000000000E+00  0.79465646136E+03  0.79465646136E+03  0.00000000000E+00 0.  1.
          2   -1    0    0  501    0  0.00000000000E+00 -0.00000000000E+00 -0.23314514011E+04  0.23314514011E+04  0.00000000000E+00 0. -1.
         23    2    1    2    0    0  0.63360806024E+03 -0.99418655135E+03  0.84022495352E+01  0.11825285801E+04  0.91854080791E+02 0.  0.
         11    1    3    3    0    0  0.32617169826E+03 -0.45880898386E+03  0.39980658657E+02  0.56435105518E+03  0.00000000000E+00 0. -1.
        -11    1    3    3    0    0  0.30743636197E+03 -0.53537756749E+03 -0.31578409121E+02  0.61817752496E+03  0.00000000000E+00 0.  1.
         22    1    1    2    0    0 -0.63360806024E+03  0.99418655135E+03 -0.15451971892E+04  0.19435792823E+04  0.00000000000E+00 0. -1.
<mgrwt>
<rscale>  0 0.27222806E+04</rscale>
<asrwt>0</asrwt>
<pdfrwt beam="1">  1        2 0.35868482E+00 0.27222806E+04</pdfrwt>
<pdfrwt beam="2">  1       -2 0.12225484E+00 0.27222806E+04</pdfrwt>
<totfact> 0.19310304E+00</totfact>
</mgrwt>
</event>
<event>
 6    1  0.1028026E-006  0.6607465E+04  0.7818608E-02  0.7619331E-01
          2   -1    0    0  501    0  0.00000000000E+00  0.00000000000E+00  0.43179253340E+04  0.43179253340E+04  0.00000000000E+00 0. -1.
         -2   -1    0    0    0  501 -0.00000000000E+00 -0.00000000000E+00 -0.25277528751E+04  0.25277528751E+04  0.00000000000E+00 0.  1.
         23    2    1    2    0    0  0.43711864584E+03  0.45907444627E+03  0.42538494739E+04  0.43017586953E+04  0.89835785969E+02 0.  0.
         11    1    3    3    0    0  0.13300139877E+03  0.11507408093E+03  0.94812875783E+03  0.96430262760E+03  0.00000000000E+00 0. -1.
        -11    1    3    3    0    0  0.30411724707E+03  0.34400036534E+03  0.33057207161E+04  0.33374560677E+04  0.00000000000E+00 0.  1.
         22    1    1    2    0    0 -0.43711864584E+03 -0.45907444627E+03 -0.24636770151E+04  0.25439195138E+04  0.00000000000E+00 0.  1.
<mgrwt>
<rscale>  0 0.66074649E+04</rscale>
<asrwt>0</asrwt>
<pdfrwt beam="1">  1        2 0.66429620E+00 0.66074649E+04</pdfrwt>
<pdfrwt beam="2">  1       -2 0.38888506E+00 0.66074649E+04</pdfrwt>
<totfact> 0.10206501E-03</totfact>
</mgrwt>
</event>
<event>
 6    1  0.1028026E-006  0.1744248E+04  0.7818608E-02  0.8736523E-01
          1   -1    0    0  501    0  0.00000000000E+00  0.00000000000E+00  0.94259352193E+03  0.94259352193E+03  0.00000000000E+00 0. -1.
         -1   -1    0    0    0  501 -0.00000000000E+00 -0.00000000000E+00 -0.80692304433E+03  0.80692304433E+03  0.00000000000E+00 0.  1.
         23    2    1    2    0    0 -0.23396893741E+03  0.35520268669E+03  0.82891485795E+03  0.93619118045E+03  0.91889457096E+02 0.  0.
         13    1    3    3    0    0 -0.19653306567E+03  0.22068475552E+03  0.56540005515E+03  0.63796883120E+03  0.00000000000E+00 0.  1.
        -13    1    3    3    0    0 -0.37435871741E+02  0.13451793117E+03  0.26351480280E+03  0.29822234925E+03  0.00000000000E+00 0. -1.
         22    1    1    2    0    0  0.23396893741E+03 -0.35520268669E+03 -0.69324438035E+03  0.81332538581E+03  0.00000000000E+00 0.  1.
<mgrwt>
<rscale>  0 0.17442482E+04</rscale>
<asrwt>0</asrwt>
<pdfrwt beam="1">  1        1 0.14501439E+00 0.17442482E+04</pdfrwt>
<pdfrwt beam="2">  1       -1 0.12414201E+00 0.17442482E+04</pdfrwt>
<totfact> 0.90711106E+00</totfact>
</mgrwt>
</event>
<event>
 6    1  0.1028026E-006  0.6115427E+04  0.7818608E-02  0.7676253E-01
          2   -1    0    0  501    0  0.00000000000E+00  0.00000000000E+00  0.18004551333E+04  0.18004551333E+04  0.00000000000E+00 0. -1.
         -2   -1    0    0    0  501 -0.00000000000E+00 -0.00000000000E+00 -0.51929161058E+04  0.51929161058E+04  0.00000000000E+00 0.  1.
         23    2    1    2    0    0 -0.22258972743E+04  0.20418440641E+04 -0.22350217187E+04  0.37586515474E+04  0.91616119888E+02 0.  0.
         11    1    3    3    0    0 -0.18977457980E+04  0.17809878838E+04 -0.19388440649E+04  0.32453772145E+04  0.00000000000E+00 0. -1.
        -11    1    3    3    0    0 -0.32815147623E+03  0.26085618033E+03 -0.29617765382E+03  0.51327433288E+03  0.00000000000E+00 0.  1.
         22    1    1    2    0    0  0.22258972743E+04 -0.20418440641E+04 -0.11574392538E+04  0.32347196917E+04  0.00000000000E+00 0. -1.
<mgrwt>
<rscale>  0 0.61154272E+04</rscale>
<asrwt>0</asrwt>
<pdfrwt beam="1">  1        2 0.27699310E+00 0.61154272E+04</pdfrwt>
<pdfrwt beam="2">  1       -2 0.79891017E+00 0.61154272E+04</pdfrwt>
<totfact> 0.46011521E-04</totfact>
</mgrwt>
</event>
<event>
 6    1  0.1028026E-006  0.5995105E+03  0.7818608E-02  0.9906422E-01
          2   -1    0    0  501    0  0.00000000000E+00  0.00000000000E+00  0.13345113109E+04  0.13345113109E+04  0.00000000000E+00 0. -1.
         -2   -1    0    0    0  501 -0.00000000000E+00 -0.00000000000E+00 -0.67330412112E+02  0.67330412112E+02  0.00000000000E+00 0.  1.
         23    2    1    2    0    0 -0.71364285354E+02 -0.19998408048E+03  0.18048916971E+03  0.29459946961E+03  0.95530170321E+02 0.  0.
         13    1    3    3    0    0 -0.23306702617E+02 -0.63552291893E+01 -0.19758841097E+01  0.24238305282E+02  0.00000000000E+00 0. -1.
        -13    1    3    3    0    0 -0.48057582737E+02 -0.19362885129E+03  0.18246505382E+03  0.27036116433E+03  0.00000000000E+00 0.  1.
         22    1    1    2    0    0  0.71364285354E+02  0.19998408048E+03  0.10866917290E+04  0.11072422534E+04  0.00000000000E+00 0. -1.
<mgrwt>
<rscale>  0 0.59951046E+03</rscale>
<asrwt>0</asrwt>
<pdfrwt beam="1">  1        2 0.20530941E+00 0.59951046E+03</pdfrwt>
<pdfrwt beam="2">  1       -2 0.10358526E-01 0.59951046E+03</pdfrwt>
<totfact> 0.10380077E+03</totfact>
</mgrwt>
</event>
<event>
 6    1  0.1028026E-006  0.2034853E+04  0.7818608E-02  0.8590497E-01
         -1   -1    0    0    0  501 -0.00000000000E+00  0.00000000000E+00  0.58961484324E+03  0.58961484324E+03  0.00000000000E+00 0.  1.
          1   -1    0    0  501    0  0.00000000000E+00 -0.00000000000E+00 -0.17556490582E+04  0.17556490582E+04  0.00000000000E+00 0. -1.
         23    2    1    2    0    0  0.50802122620E+03  0.60214018217E+03 -0.13201397160E+04  0.15425143323E+04  0.12618728230E+03 0.  0.
         11    1    3    3    0    0  0.31932331059E+03  0.41395551045E+03 -0.76315381068E+03  0.92505690640E+03  0.00000000000E+00 0. -1.
        -11    1    3    3    0    0  0.18869791561E+03  0.18818467171E+03 -0.55698590535E+03  0.61745742588E+03  0.00000000000E+00 0.  1.
         22    1    1    2    0    0 -0.50802122620E+03 -0.60214018217E+03  0.15410550110E+03  0.80274956912E+03  0.00000000000E+00 0.  1.
<mgrwt>
<rscale>  0 0.20348531E+04</rscale>
<asrwt>0</asrwt>
<pdfrwt beam="1">  1        1 0.27009985E+00 0.20348531E+04</pdfrwt>
<pdfrwt beam="2">  1       -1 0.90709976E-01 0.20348531E+04</pdfrwt>
<totfact> 0.47943808E+00</totfact>
</mgrwt>
</event>
<event>
 6    1  0.1028026E-006  0.1321971E+04  0.7818608E-02  0.9012321E-01
         -2   -1    0    0    0  501 -0.00000000000E+00  0.00000000000E+00  0.13082195569E+03  0.13082195569E+03  0.00000000000E+00 0.  1.
          2   -1    0    0  501    0  0.00000000000E+00 -0.00000000000E+00 -0.33396675811E+04  0.33396675811E+04  0.00000000000E+00 0. -1.
         23    2    1    2    0    0  0.48222279201E+03  0.40880344389E+03 -0.11348693251E+04  0.13023020977E+04  0.91669469867E+02 0.  0.
         13    1    3    3    0    0  0.23623491016E+03  0.19503261889E+03 -0.45719974383E+03  0.55034194912E+03  0.00000000000E+00 0. -1.
        -13    1    3    3    0    0  0.24598788186E+03  0.21377082500E+03 -0.67766958130E+03  0.75196014858E+03  0.00000000000E+00 0.  1.
         22    1    1    2    0    0 -0.48222279201E+03 -0.40880344389E+03 -0.20739763002E+04  0.21681874390E+04  0.00000000000E+00 0. -1.
<mgrwt>
<rscale>  0 0.13219710E+04</rscale>
<asrwt>0</asrwt>
<pdfrwt beam="1">  1        2 0.51379503E+00 0.13219710E+04</pdfrwt>
<pdfrwt beam="2">  1       -2 0.20126454E-01 0.13219710E+04</pdfrwt>
<totfact> 0.22041558E+01</totfact>
</mgrwt>
</event>
<event>
 6    1  0.1028026E-006  0.1941313E+04  0.7818608E-02  0.8634561E-01
         -1   -1    0    0    0  501 -0.00000000000E+00  0.00000000000E+00  0.53285984779E+03  0.53285984779E+03  0.00000000000E+00 0.  1.
          1   -1    0    0  501    0  0.00000000000E+00 -0.00000000000E+00 -0.17681466631E+04  0.17681466631E+04  0.00000000000E+00 0. -1.
         23    2    1    2    0    0  0.22984778482E+03 -0.71761698598E+03 -0.13402045356E+04  0.15402096452E+04  0.91068167944E+02 0.  0.
         13    1    3    3    0    0  0.12913550437E+03 -0.26060356482E+03 -0.49708529300E+03  0.57592012033E+03  0.00000000000E+00 0.  1.
        -13    1    3    3    0    0  0.10071228044E+03 -0.45701342116E+03 -0.84311924261E+03  0.96428952489E+03  0.00000000000E+00 0. -1.
         22    1    1    2    0    0 -0.22984778482E+03  0.71761698598E+03  0.10491772031E+03  0.76079686565E+03  0.00000000000E+00 0.  1.
<mgrwt>
<rscale>  0 0.19413133E+04</rscale>
<asrwt>0</asrwt>
<pdfrwt beam="1">  1        1 0.27202256E+00 0.19413133E+04</pdfrwt>
<pdfrwt beam="2">  1       -1 0.81978438E-01 0.19413133E+04</pdfrwt>
<totfact> 0.59102699E+00</totfact>
</mgrwt>
</event>
<event>
 6    1  0.1028026E-006  0.2493241E+04  0.7818608E-02  0.8405397E-01
         -4   -1    0    0    0  501 -0.00000000000E+00  0.00000000000E+00  0.10221193022E+04  0.10221193022E+04  0.00000000000E+00 0.  1.
          4   -1    0    0  501    0  0.00000000000E+00 -0.00000000000E+00 -0.15204320782E+04  0.15204320782E+04  0.00000000000E+00 0. -1.
         23    2    1    2    0    0 -0.52692106248E+03 -0.50929327187E+03  0.77679844578E+03  0.10718596823E+04  0.91879869443E+02 0.  0.
         11    1    3    3    0    0 -0.10126059706E+03 -0.14748133447E+03  0.21293688811E+03  0.27811251473E+03  0.00000000000E+00 0.  1.
        -11    1    3    3    0    0 -0.42566046543E+03 -0.36181193740E+03  0.56386155767E+03  0.79374716761E+03  0.00000000000E+00 0. -1.
         22    1    1    2    0    0  0.52692106248E+03  0.50929327187E+03 -0.12751112218E+04  0.14706916981E+04  0.00000000000E+00 0. -1.
<mgrwt>
<rscale>  0 0.24932412E+04</rscale>
<asrwt>0</asrwt>
<pdfrwt beam="1">  1        4 0.23391263E+00 0.24932412E+04</pdfrwt>
<pdfrwt beam="2">  1       -4 0.15724912E+00 0.24932412E+04</pdfrwt>
<totfact> 0.37179954E-02</totfact>
</mgrwt>
</event>
<event>
 6    1  0.1028026E-006  0.1213977E+04  0.7818608E-02  0.9100710E-01
          4   -1    0    0  501    0  0.00000000000E+00  0.00000000000E+00  0.10840730249E+04  0.10840730249E+04  0.00000000000E+00 0. -1.
         -4   -1    0    0    0  501 -0.00000000000E+00 -0.00000000000E+00 -0.33986169452E+03  0.33986169452E+03  0.00000000000E+00 0.  1.
         23    2    1    2    0    0  0.12474995741E+03  0.28852959903E+03 -0.23007824780E+03  0.40019057973E+03  0.91676706994E+02 0.  0.
         11    1    3    3    0    0  0.38225129450E+02  0.19989954058E+03 -0.14660037340E+03  0.25082395485E+03  0.00000000000E+00 0.  1.
        -11    1    3    3    0    0  0.86524827957E+02  0.88630058447E+02 -0.83477874401E+02  0.14936662488E+03  0.00000000000E+00 0. -1.
         22    1    1    2    0    0 -0.12474995741E+03 -0.28852959903E+03  0.97428957820E+03  0.10237441397E+04  0.00000000000E+00 0. -1.
<mgrwt>
<rscale>  0 0.12139768E+04</rscale>
<asrwt>0</asrwt>
<pdfrwt beam="1">  1        4 0.16678046E+00 0.12139768E+04</pdfrwt>
<pdfrwt beam="2">  1       -4 0.52286415E-01 0.12139768E+04</pdfrwt>
<totfact> 0.15421395E+00</totfact>
</mgrwt>
</event>
<event>
 6    1  0.1028026E-006  0.2648359E+04  0.7818608E-02  0.8351958E-01
          1   -1    0    0  501    0  0.00000000000E+00  0.00000000000E+00  0.17735478396E+04  0.17735478396E+04  0.00000000000E+00 0. -1.
         -1   -1    0    0    0  501 -0.00000000000E+00 -0.00000000000E+00 -0.98866862255E+03  0.98866862255E+03  0.00000000000E+00 0.  1.
         23    2    1    2    0    0 -0.10293770267E+04  0.47775400984E+03  0.11011479213E+04  0.15841282437E+04  0.95234400706E+02 0.  0.
         13    1    3    3    0    0 -0.84150925187E+03  0.40741053754E+03  0.95049306339E+03  0.13332510006E+04  0.00000000000E+00 0.  1.
        -13    1    3    3    0    0 -0.18786777484E+03  0.70343472297E+02  0.15065485787E+03  0.25087724313E+03  0.00000000000E+00 0. -1.
         22    1    1    2    0    0  0.10293770267E+04 -0.47775400984E+03 -0.31626870422E+03  0.11780882184E+04  0.00000000000E+00 0. -1.
<mgrwt>
<rscale>  0 0.26483588E+04</rscale>
<asrwt>0</asrwt>
<pdfrwt beam="1">  1        1 0.27285351E+00 0.26483588E+04</pdfrwt>
<pdfrwt beam="2">  1       -1 0.15210287E+00 0.26483588E+04</pdfrwt>
<totfact> 0.12513065E+00</totfact>
</mgrwt>
</event>
<event>
 6    1  0.1028026E-006  0.2216149E+04  0.7818608E-02  0.8511736E-01
         -1   -1    0    0    0  501 -0.00000000000E+00  0.00000000000E+00  0.97304233540E+03  0.97304233540E+03  0.00000000000E+00 0.  1.
          1   -1    0    0  501    0  0.00000000000E+00 -0.00000000000E+00 -0.12618458189E+04  0.12618458189E+04  0.00000000000E+00 0. -1.
         23    2    1    2    0    0  0.74422070246E+03 -0.58971550140E+02  0.67852031414E+03  0.10129808636E+04  0.91642324026E+02 0.  0.
         11    1    3    3    0    0  0.86278407264E+02 -0.30479402638E+02  0.10901723038E+03  0.14232959659E+03  0.00000000000E+00 0.  1.
        -11    1    3    3    0    0  0.65794229519E+03 -0.28492147502E+02  0.56950308376E+03  0.87065126698E+03  0.00000000000E+00 0. -1.
         22    1    1    2    0    0 -0.74422070246E+03  0.58971550140E+02 -0.96732379769E+03  0.12219072908E+04  0.00000000000E+00 0. -1.
<mgrwt>
<rscale>  0 0.22161493E+04</rscale>
<asrwt>0</asrwt>
<pdfrwt beam="1">  1        1 0.19413012E+00 0.22161493E+04</pdfrwt>
<pdfrwt beam="2">  1       -1 0.14969882E+00 0.22161493E+04</pdfrwt>
<totfact> 0.30775011E+00</totfact>
</mgrwt>
</event>
<event>
 6    1  0.1028026E-006  0.1843887E+04  0.7818608E-02  0.8683303E-01
         -2   -1    0    0    0  501 -0.00000000000E+00  0.00000000000E+00  0.15528208793E+04  0.15528208793E+04  0.00000000000E+00 0.  1.
          2   -1    0    0  501    0  0.00000000000E+00 -0.00000000000E+00 -0.54737817697E+03  0.54737817697E+03  0.00000000000E+00 0. -1.
         23    2    1    2    0    0 -0.38532183368E+03  0.70216943029E+03  0.10187254667E+04  0.12991427185E+04  0.91953261929E+02 0.  0.
         13    1    3    3    0    0 -0.27620800527E+03  0.45968695664E+03  0.74037240886E+03  0.91419596591E+03  0.00000000000E+00 0. -1.
        -13    1    3    3    0    0 -0.10911382840E+03  0.24248247365E+03  0.27835305779E+03  0.38494675263E+03  0.00000000000E+00 0.  1.
         22    1    1    2    0    0  0.38532183368E+03 -0.70216943029E+03 -0.13282764354E+02  0.80105633770E+03  0.00000000000E+00 0. -1.
<mgrwt>
<rscale>  0 0.18438875E+04</rscale>
<asrwt>0</asrwt>
<pdfrwt beam="1">  1        2 0.84212028E-01 0.18438875E+04</pdfrwt>
<pdfrwt beam="2">  1       -2 0.23889552E+00 0.18438875E+04</pdfrwt>
<totfact> 0.39181046E+00</totfact>
</mgrwt>
</event>
<event>
 6    1  0.1028026E-006  0.8830800E+03  0.7818608E-02  0.9446983E-01
          2   -1    0    0  501    0  0.00000000000E+00  0.00000000000E+00  0.90910582576E+03  0.90910582576E+03  0.00000000000E+00 0. -1.
         -2   -1    0    0    0  501 -0.00000000000E+00 -0.00000000000E+00 -0.21444980158E+03  0.21444980158E+03  0.00000000000E+00 0.  1.
         23    2    1    2    0    0  0.11434618385E+03  0.77614468880E+02  0.87835828240E+03  0.89367397253E+03  0.89670738620E+02 0.  0.
         13    1    3    3    0    0  0.11672622552E+03  0.85083279541E+02  0.68053210016E+03  0.69569254382E+03  0.00000000000E+00 0. -1.
        -13    1    3    3    0    0 -0.23800416682E+01 -0.74688106613E+01  0.19782618225E+03  0.19798142871E+03  0.00000000000E+00 0.  1.
         22    1    1    2    0    0 -0.11434618385E+03 -0.77614468880E+02 -0.18370225822E+03  0.22988165481E+03  0.00000000000E+00 0.  1.
<mgrwt>
<rscale>  0 0.88307998E+03</rscale>
<asrwt>0</asrwt>
<pdfrwt beam="1">  1        2 0.13986243E+00 0.88307998E+03</pdfrwt>
<pdfrwt beam="2">  1       -2 0.32992278E-01 0.88307998E+03</pdfrwt>
<totfact> 0.24837270E+02</totfact>
</mgrwt>
</event>
<event>
 6    1  0.1028026E-006  0.1227757E+04  0.7818608E-02  0.9088902E-01
         -2   -1    0    0    0  501 -0.00000000000E+00  0.00000000000E+00  0.56625395872E+03  0.56625395872E+03  0.00000000000E+00 0.  1.
          2   -1    0    0  501    0  0.00000000000E+00 -0.00000000000E+00 -0.66550810176E+03  0.66550810176E+03  0.00000000000E+00 0. -1.
         23    2    1    2    0    0  0.73622208279E+02 -0.60409816205E+03 -0.99270450806E+02  0.62319421774E+03  0.90341528033E+02 0.  0.
         13    1    3    3    0    0  0.55859660282E+02 -0.37740417339E+03 -0.10511109531E+03  0.39573040583E+03  0.00000000000E+00 0. -1.
        -13    1    3    3    0    0  0.17762547997E+02 -0.22669398865E+03  0.58406444999E+01  0.22746381192E+03  0.00000000000E+00 0.  1.
         22    1    1    2    0    0 -0.73622208279E+02  0.60409816205E+03  0.16307771295E-01  0.60856784273E+03  0.00000000000E+00 0.  1.
<mgrwt>
<rscale>  0 0.12277566E+04</rscale>
<asrwt>0</asrwt>
<pdfrwt beam="1">  1        2 0.10238586E+00 0.12277566E+04</pdfrwt>
<pdfrwt beam="2">  1       -2 0.87115993E-01 0.12277566E+04</pdfrwt>
<totfact> 0.49008193E+01</totfact>
</mgrwt>
</event>
<event>
 6    1  0.1028026E-006  0.1037297E+04  0.7818608E-02  0.9268559E-01
          2   -1    0    0  501    0  0.00000000000E+00  0.00000000000E+00  0.84116146457E+03  0.84116146457E+03  0.00000000000E+00 0. -1.
         -2   -1    0    0    0  501 -0.00000000000E+00 -0.00000000000E+00 -0.31979126487E+03  0.31979126487E+03  0.00000000000E+00 0.  1.
         23    2    1    2    0    0 -0.41503755305E+03  0.22526815865E+03  0.33776320182E+02  0.48216726621E+03  0.91337391326E+02 0.  0.
         11    1    3    3    0    0 -0.37177848740E+03  0.22864617524E+03  0.40179317388E+02  0.43830662178E+03  0.00000000000E+00 0.  1.
        -11    1    3    3    0    0 -0.43259065651E+02 -0.33780165886E+01 -0.64029972055E+01  0.43860644435E+02  0.00000000000E+00 0. -1.
         22    1    1    2    0    0  0.41503755305E+03 -0.22526815865E+03  0.48759387952E+03  0.67878546323E+03  0.00000000000E+00 0. -1.
<mgrwt>
<rscale>  0 0.10372967E+04</rscale>
<asrwt>0</asrwt>
<pdfrwt beam="1">  1        2 0.12940946E+00 0.10372967E+04</pdfrwt>
<pdfrwt beam="2">  1       -2 0.49198656E-01 0.10372967E+04</pdfrwt>
<totfact> 0.12545085E+02</totfact>
</mgrwt>
</event>
<event>
 6    1  0.1028026E-006  0.2840876E+04  0.7818608E-02  0.8290689E-01
         -2   -1    0    0    0  501 -0.00000000000E+00  0.00000000000E+00  0.75190119588E+03  0.75190119588E+03  0.00000000000E+00 0.  1.
          2   -1    0    0  501    0  0.00000000000E+00 -0.00000000000E+00 -0.26833902323E+04  0.26833902323E+04  0.00000000000E+00 0. -1.
         23    2    1    2    0    0 -0.11078300444E+04 -0.83008509070E+03 -0.13437847648E+04  0.19313881813E+04  0.90410992412E+02 0.  0.
         11    1    3    3    0    0 -0.96973228646E+03 -0.75994440342E+03 -0.11798640390E+04  0.17058649871E+04  0.00000000000E+00 0. -1.
        -11    1    3    3    0    0 -0.13809775796E+03 -0.70140687285E+02 -0.16392072577E+03  0.22552319415E+03  0.00000000000E+00 0.  1.
         22    1    1    2    0    0  0.11078300444E+04  0.83008509070E+03 -0.58770427160E+03  0.15039032469E+04  0.00000000000E+00 0.  1.
<mgrwt>
<rscale>  0 0.28408761E+04</rscale>
<asrwt>0</asrwt>
<pdfrwt beam="1">  1        2 0.41282927E+00 0.28408761E+04</pdfrwt>
<pdfrwt beam="2">  1       -2 0.11567711E+00 0.28408761E+04</pdfrwt>
<totfact> 0.13689781E+00</totfact>
</mgrwt>
</event>
<event>
 6    1  0.1028026E-006  0.4722618E+04  0.7818608E-02  0.7872781E-01
         -2   -1    0    0    0  501 -0.00000000000E+00  0.00000000000E+00  0.16067922504E+04  0.16067922504E+04  0.00000000000E+00 0.  1.
          2   -1    0    0  501    0  0.00000000000E+00 -0.00000000000E+00 -0.34701307499E+04  0.34701307499E+04  0.00000000000E+00 0. -1.
         23    2    1    2    0    0  0.10263701818E+04  0.13200630214E+04  0.85896408272E+03  0.18820938217E+04  0.91955031790E+02 0.  0.
         13    1    3    3    0    0  0.32443938027E+03  0.45479840101E+03  0.24586442101E+03  0.61037022416E+03  0.00000000000E+00 0. -1.
        -13    1    3    3    0    0  0.70193080153E+03  0.86526462041E+03  0.61309966171E+03  0.12717235976E+04  0.00000000000E+00 0.  1.
         22    1    1    2    0    0 -0.10263701818E+04 -0.13200630214E+04 -0.27223025822E+04  0.31948291785E+04  0.00000000000E+00 0. -1.
<mgrwt>
<rscale>  0 0.47226176E+04</rscale>
<asrwt>0</asrwt>
<pdfrwt beam="1">  1        2 0.53386627E+00 0.47226176E+04</pdfrwt>
<pdfrwt beam="2">  1       -2 0.24719881E+00 0.47226176E+04</pdfrwt>
<totfact> 0.42368672E-02</totfact>
</mgrwt>
</event>
<event>
 6    1  0.1028026E-006  0.1998419E+04  0.7818608E-02  0.8607360E-01
         -2   -1    0    0    0  501 -0.00000000000E+00  0.00000000000E+00  0.11793323019E+04  0.11793323019E+04  0.00000000000E+00 0.  1.
          2   -1    0    0  501    0  0.00000000000E+00 -0.00000000000E+00 -0.84659713277E+03  0.84659713277E+03  0.00000000000E+00 0. -1.
         23    2    1    2    0    0  0.84989363495E+03 -0.22175838908E+03 -0.31178948683E+03  0.93647635813E+03  0.90990721413E+02 0.  0.
         13    1    3    3    0    0  0.54250834170E+03 -0.18571749935E+03 -0.19448073910E+03  0.60549900764E+03  0.00000000000E+00 0.  1.
        -13    1    3    3    0    0  0.30738529325E+03 -0.36040889724E+02 -0.11730874774E+03  0.33097735049E+03  0.00000000000E+00 0. -1.
         22    1    1    2    0    0 -0.84989363495E+03  0.22175838908E+03  0.64452465600E+03  0.10894530766E+04  0.00000000000E+00 0.  1.
<mgrwt>
<rscale>  0 0.19984187E+04</rscale>
<asrwt>0</asrwt>
<pdfrwt beam="1">  1        2 0.13024571E+00 0.19984187E+04</pdfrwt>
<pdfrwt beam="2">  1       -2 0.18143574E+00 0.19984187E+04</pdfrwt>
<totfact> 0.52533418E+00</totfact>
</mgrwt>
</event>
<event>
 6    1  0.1028026E-006  0.2880830E+04  0.7818608E-02  0.8278604E-01
         -1   -1    0    0    0  501 -0.00000000000E+00  0.00000000000E+00  0.10173363446E+04  0.10173363446E+04  0.00000000000E+00 0.  1.
          1   -1    0    0  501    0  0.00000000000E+00 -0.00000000000E+00 -0.20394389736E+04  0.20394389736E+04  0.00000000000E+00 0. -1.
         23    2    1    2    0    0  0.10893331971E+04 -0.85210954027E+03 -0.88487517535E+02  0.13881307607E+04  0.79620883114E+02 0.  0.
         13    1    3    3    0    0  0.12918806175E+03 -0.70946098354E+02 -0.15559920950E+02  0.14820598945E+03  0.00000000000E+00 0.  1.
        -13    1    3    3    0    0  0.96014513536E+03 -0.78116344192E+03 -0.72927596584E+02  0.12399247712E+04  0.00000000000E+00 0. -1.
         22    1    1    2    0    0 -0.10893331971E+04  0.85210954027E+03 -0.93361511149E+03  0.16686445575E+04  0.00000000000E+00 0. -1.
<mgrwt>
<rscale>  0 0.28808300E+04</rscale>
<asrwt>0</asrwt>
<pdfrwt beam="1">  1        1 0.31375984E+00 0.28808300E+04</pdfrwt>
<pdfrwt beam="2">  1       -1 0.15651328E+00 0.28808300E+04</pdfrwt>
<totfact> 0.74835815E-01</totfact>
</mgrwt>
</event>
<event>
 6    1  0.1028026E-006  0.1706391E+04  0.7818608E-02  0.8757728E-01
          1   -1    0    0  501    0  0.00000000000E+00  0.00000000000E+00  0.83690015888E+03  0.83690015888E+03  0.00000000000E+00 0. -1.
         -1   -1    0    0    0  501 -0.00000000000E+00 -0.00000000000E+00 -0.86980820795E+03  0.86980820795E+03  0.00000000000E+00 0.  1.
         23    2    1    2    0    0  0.36811783774E+03  0.66301445535E+03 -0.40212825288E+03  0.86324973159E+03  0.91619085633E+02 0.  0.
         13    1    3    3    0    0  0.33752501323E+03  0.57320736469E+03 -0.37901822420E+03  0.76560083057E+03  0.00000000000E+00 0. -1.
        -13    1    3    3    0    0  0.30592824511E+02  0.89807090661E+02 -0.23110028681E+02  0.97648901019E+02  0.00000000000E+00 0.  1.
         22    1    1    2    0    0 -0.36811783774E+03 -0.66301445535E+03  0.36922020381E+03  0.84345863524E+03  0.00000000000E+00 0. -1.
<mgrwt>
<rscale>  0 0.17063911E+04</rscale>
<asrwt>0</asrwt>
<pdfrwt beam="1">  1        1 0.12875387E+00 0.17063911E+04</pdfrwt>
<pdfrwt beam="2">  1       -1 0.13381665E+00 0.17063911E+04</pdfrwt>
<totfact> 0.92090383E+00</totfact>
</mgrwt>
</event>
<event>
 6    1  0.1028026E-006  0.1766912E+04  0.7818608E-02  0.8724096E-01
         -2   -1    0    0    0  501 -0.00000000000E+00  0.00000000000E+00  0.12512733380E+04  0.12512733380E+04  0.00000000000E+00 0.  1.
          2   -1    0    0  501    0  0.00000000000E+00 -0.00000000000E+00 -0.62376003341E+03  0.62376003341E+03  0.00000000000E+00 0. -1.
         23    2    1    2    0    0 -0.83194572755E+03 -0.21416476752E+03  0.52240391400E+03  0.10095576495E+04  0.91107392784E+02 0.  0.
         13    1    3    3    0    0 -0.36081870869E+02 -0.25528961919E+02  0.42124959280E+02  0.61058508796E+02  0.00000000000E+00 0.  1.
        -13    1    3    3    0    0 -0.79586385668E+03 -0.18863580561E+03  0.48027895472E+03  0.94849914068E+03  0.00000000000E+00 0. -1.
         22    1    1    2    0    0  0.83194572755E+03  0.21416476752E+03  0.10510939059E+03  0.86547572192E+03  0.00000000000E+00 0. -1.
<mgrwt>
<rscale>  0 0.17669118E+04</rscale>
<asrwt>0</asrwt>
<pdfrwt beam="1">  1        2 0.95963083E-01 0.17669118E+04</pdfrwt>
<pdfrwt beam="2">  1       -2 0.19250359E+00 0.17669118E+04</pdfrwt>
<totfact> 0.66716692E+00</totfact>
</mgrwt>
</event>
<event>
 6    1  0.1028026E-006  0.5333276E+04  0.7818608E-02  0.7779056E-01
          1   -1    0    0  501    0  0.00000000000E+00  0.00000000000E+00  0.16319131143E+04  0.16319131143E+04  0.00000000000E+00 0. -1.
         -1   -1    0    0    0  501 -0.00000000000E+00 -0.00000000000E+00 -0.43574372594E+04  0.43574372594E+04  0.00000000000E+00 0.  1.
         23    2    1    2    0    0  0.18322975929E+04 -0.14038298265E+04  0.13461777601E+03  0.23139640729E+04  0.90857770283E+02 0.  0.
         13    1    3    3    0    0  0.91971489444E+03 -0.72536561721E+03  0.25890334111E+02  0.11716232650E+04  0.00000000000E+00 0. -1.
        -13    1    3    3    0    0  0.91258269848E+03 -0.67846420926E+03  0.10872744190E+03  0.11423408079E+04  0.00000000000E+00 0.  1.
         22    1    1    2    0    0 -0.18322975929E+04  0.14038298265E+04 -0.28601419211E+04  0.36753863007E+04  0.00000000000E+00 0.  1.
<mgrwt>
<rscale>  0 0.53332763E+04</rscale>
<asrwt>0</asrwt>
<pdfrwt beam="1">  1        1 0.25106356E+00 0.53332763E+04</pdfrwt>
<pdfrwt beam="2">  1       -1 0.67037496E+00 0.53332763E+04</pdfrwt>
<totfact> 0.95086561E-04</totfact>
</mgrwt>
</event>
<event>
 6    1  0.1028026E-006  0.1990708E+04  0.7818608E-02  0.8610977E-01
          1   -1    0    0  501    0  0.00000000000E+00  0.00000000000E+00  0.14798370294E+04  0.14798370294E+04  0.00000000000E+00 0. -1.
         -1   -1    0    0    0  501 -0.00000000000E+00 -0.00000000000E+00 -0.66948554316E+03  0.66948554316E+03  0.00000000000E+00 0.  1.
         23    2    1    2    0    0 -0.89642167878E+01 -0.27019827251E+03  0.14377784360E+04  0.14661300367E+04  0.96140468906E+02 0.  0.
         13    1    3    3    0    0  0.42295569153E+02 -0.14253545289E+03  0.79723913052E+03  0.81098427959E+03  0.00000000000E+00 0. -1.
        -13    1    3    3    0    0 -0.51259785941E+02 -0.12766281963E+03  0.64053930550E+03  0.65514575711E+03  0.00000000000E+00 0.  1.
         22    1    1    2    0    0  0.89642167878E+01  0.27019827251E+03 -0.62742694982E+03  0.68319253583E+03  0.00000000000E+00 0.  1.
<mgrwt>
<rscale>  0 0.19907079E+04</rscale>
<asrwt>0</asrwt>
<pdfrwt beam="1">  1        1 0.22766723E+00 0.19907079E+04</pdfrwt>
<pdfrwt beam="2">  1       -1 0.10299778E+00 0.19907079E+04</pdfrwt>
<totfact> 0.55843799E+00</totfact>
</mgrwt>
</event>
<event>
 6    1  0.1028026E-006  0.8272309E+03  0.7818608E-02  0.9521417E-01
          1   -1    0    0  501    0  0.00000000000E+00  0.00000000000E+00  0.65998300336E+03  0.65998300336E+03  0.00000000000E+00 0. -1.
         -1   -1    0    0    0  501 -0.00000000000E+00 -0.00000000000E+00 -0.25921536489E+03  0.25921536489E+03  0.00000000000E+00 0.  1.
         23    2    1    2    0    0  0.14783507818E+03 -0.11016185253E+03  0.60792638563E+03  0.64187979581E+03  0.91893078237E+02 0.  0.
         13    1    3    3    0    0  0.12064555393E+03 -0.47039324784E+02  0.47370353577E+03  0.49108358511E+03  0.00000000000E+00 0. -1.
        -13    1    3    3    0    0  0.27189524255E+02 -0.63122527743E+02  0.13422284986E+03  0.15079621071E+03  0.00000000000E+00 0.  1.
         22    1    1    2    0    0 -0.14783507818E+03  0.11016185253E+03 -0.20715874716E+03  0.27731857244E+03  0.00000000000E+00 0.  1.
<mgrwt>
<rscale>  0 0.82723089E+03</rscale>
<asrwt>0</asrwt>
<pdfrwt beam="1">  1        1 0.10153585E+00 0.82723089E+03</pdfrwt>
<pdfrwt beam="2">  1       -1 0.39879287E-01 0.82723089E+03</pdfrwt>
<totfact> 0.18412252E+02</totfact>
</mgrwt>
</event>
<event>
 6    1  0.1028026E-006  0.2236506E+04  0.7818608E-02  0.8503385E-01
          2   -1    0    0  501    0  0.00000000000E+00  0.00000000000E+00  0.37087200018E+03  0.37087200018E+03  0.00000000000E+00 0. -1.
         -2   -1    0    0    0  501 -0.00000000000E+00 -0.00000000000E+00 -0.33717556198E+04  0.33717556198E+04  0.00000000000E+00 0.  1.
         23    2    1    2    0    0  0.10458308883E+03  0.17126619954E+03 -0.33407134259E+04  0.33479707680E+04  0.90952382735E+02 0.  0.
         13    1    3    3    0    0  0.12016093067E+03  0.16347307768E+03 -0.30884302440E+04  0.30950869888E+04  0.00000000000E+00 0.  1.
        -13    1    3    3    0    0 -0.15577841834E+02  0.77931218578E+01 -0.25228318185E+03  0.25288377913E+03  0.00000000000E+00 0. -1.
         22    1    1    2    0    0 -0.10458308883E+03 -0.17126619954E+03  0.33982980627E+03  0.39465685197E+03  0.00000000000E+00 0. -1.
<mgrwt>
<rscale>  0 0.22365060E+04</rscale>
<asrwt>0</asrwt>
<pdfrwt beam="1">  1        2 0.57057230E-01 0.22365060E+04</pdfrwt>
<pdfrwt beam="2">  1       -2 0.51873164E+00 0.22365060E+04</pdfrwt>
<totfact> 0.99612009E-02</totfact>
</mgrwt>
</event>
<event>
 6    1  0.1028026E-006  0.2866670E+04  0.7818608E-02  0.8282864E-01
         -1   -1    0    0    0  501 -0.00000000000E+00  0.00000000000E+00  0.76181582028E+03  0.76181582028E+03  0.00000000000E+00 0.  1.
          1   -1    0    0  501    0  0.00000000000E+00 -0.00000000000E+00 -0.26967797608E+04  0.26967797608E+04  0.00000000000E+00 0. -1.
         23    2    1    2    0    0  0.11641847831E+03  0.14189932125E+04 -0.11517970895E+04  0.18336508694E+04  0.92433632635E+02 0.  0.
         11    1    3    3    0    0  0.12276451245E+03  0.10398177168E+04 -0.82413085334E+03  0.13324727664E+04  0.00000000000E+00 0. -1.
        -11    1    3    3    0    0 -0.63460341454E+01  0.37917549568E+03 -0.32766623612E+03  0.50117810304E+03  0.00000000000E+00 0.  1.
         22    1    1    2    0    0 -0.11641847831E+03 -0.14189932125E+04 -0.78316685105E+03  0.16249447116E+04  0.00000000000E+00 0. -1.
<mgrwt>
<rscale>  0 0.28666702E+04</rscale>
<asrwt>0</asrwt>
<pdfrwt beam="1">  1        1 0.41488920E+00 0.28666702E+04</pdfrwt>
<pdfrwt beam="2">  1       -1 0.11720243E+00 0.28666702E+04</pdfrwt>
<totfact> 0.55654645E-01</totfact>
</mgrwt>
</event>
<event>
 6    1  0.1028026E-006  0.3267697E+04  0.7818608E-02  0.8171164E-01
          3   -1    0    0  501    0  0.00000000000E+00  0.00000000000E+00  0.12205689937E+04  0.12205689937E+04  0.00000000000E+00 0. -1.
         -3   -1    0    0    0  501 -0.00000000000E+00 -0.00000000000E+00 -0.21870622442E+04  0.21870622442E+04  0.00000000000E+00 0.  1.
         23    2    1    2    0    0  0.60772369029E+03 -0.14581496946E+04 -0.54048834087E+02  0.15833276918E+04  0.92068928153E+02 0.  0.
         13    1    3    3    0    0  0.28342375568E+03 -0.72414975334E+03 -0.69412385822E+02  0.78073040792E+03  0.00000000000E+00 0. -1.
        -13    1    3    3    0    0  0.32429993461E+03 -0.73399994124E+03  0.15363551735E+02  0.80259728386E+03  0.00000000000E+00 0.  1.
         22    1    1    2    0    0 -0.60772369029E+03  0.14581496946E+04 -0.91244441639E+03  0.18243035462E+04  0.00000000000E+00 0.  1.
<mgrwt>
<rscale>  0 0.32676967E+04</rscale>
<asrwt>0</asrwt>
<pdfrwt beam="1">  1        3 0.18777985E+00 0.32676967E+04</pdfrwt>
<pdfrwt beam="2">  1       -3 0.33647111E+00 0.32676967E+04</pdfrwt>
<totfact> 0.90965599E-03</totfact>
</mgrwt>
</event>
<event>
 6    1  0.1028026E-006  0.2580630E+04  0.7818608E-02  0.8374811E-01
          2   -1    0    0  501    0  0.00000000000E+00  0.00000000000E+00  0.19021648623E+04  0.19021648623E+04  0.00000000000E+00 0. -1.
         -2   -1    0    0    0  501 -0.00000000000E+00 -0.00000000000E+00 -0.87527275003E+03  0.87527275003E+03  0.00000000000E+00 0.  1.
         23    2    1    2    0    0 -0.10403425534E+03  0.12795238214E+04  0.63137337040E+03  0.14341433739E+04  0.10065062466E+03 0.  0.
         11    1    3    3    0    0 -0.22663144486E+02  0.96853462698E+02  0.75181800469E+02  0.12468566267E+03  0.00000000000E+00 0. -1.
        -11    1    3    3    0    0 -0.81371110857E+02  0.11826703587E+04  0.55619156993E+03  0.13094577112E+04  0.00000000000E+00 0.  1.
         22    1    1    2    0    0  0.10403425534E+03 -0.12795238214E+04  0.39551874192E+03  0.13432942385E+04  0.00000000000E+00 0.  1.
<mgrwt>
<rscale>  0 0.25806302E+04</rscale>
<asrwt>0</asrwt>
<pdfrwt beam="1">  1        2 0.29264075E+00 0.25806302E+04</pdfrwt>
<pdfrwt beam="2">  1       -2 0.13465735E+00 0.25806302E+04</pdfrwt>
<totfact> 0.26642788E+00</totfact>
</mgrwt>
</event>
<event>
 6    1  0.1028026E-006  0.1560754E+04  0.7818608E-02  0.8845028E-01
         -1   -1    0    0    0  501 -0.00000000000E+00  0.00000000000E+00  0.24674564050E+03  0.24674564050E+03  0.00000000000E+00 0.  1.
          1   -1    0    0  501    0  0.00000000000E+00 -0.00000000000E+00 -0.24680814829E+04  0.24680814829E+04  0.00000000000E+00 0. -1.
         23    2    1    2    0    0  0.59636741147E+03 -0.12450740724E+03 -0.27371344186E+03  0.67414361069E+03  0.91620825502E+02 0.  0.
         11    1    3    3    0    0  0.11714586916E+03  0.18737165588E+00 -0.24062259413E+02  0.11959173089E+03  0.00000000000E+00 0. -1.
        -11    1    3    3    0    0  0.47922154231E+03 -0.12469477889E+03 -0.24965118245E+03  0.55455187980E+03  0.00000000000E+00 0.  1.
         22    1    1    2    0    0 -0.59636741147E+03  0.12450740724E+03 -0.19476224005E+04  0.20406835127E+04  0.00000000000E+00 0. -1.
<mgrwt>
<rscale>  0 0.15607541E+04</rscale>
<asrwt>0</asrwt>
<pdfrwt beam="1">  1        1 0.37970485E+00 0.15607541E+04</pdfrwt>
<pdfrwt beam="2">  1       -1 0.37960867E-01 0.15607541E+04</pdfrwt>
<totfact> 0.92151461E+00</totfact>
</mgrwt>
</event>
<event>
 6    1  0.1028026E-006  0.1149885E+04  0.7818608E-02  0.9157890E-01
         -1   -1    0    0    0  501 -0.00000000000E+00  0.00000000000E+00  0.39953523454E+03  0.39953523454E+03  0.00000000000E+00 0.  1.
          1   -1    0    0  501    0  0.00000000000E+00 -0.00000000000E+00 -0.82735835991E+03  0.82735835991E+03  0.00000000000E+00 0. -1.
         23    2    1    2    0    0 -0.14065648776E+03  0.15983306638E+03 -0.78085659396E+03  0.81462731326E+03  0.92465034065E+02 0.  0.
         13    1    3    3    0    0 -0.10033489618E+03  0.59656909945E+02 -0.50665359216E+03  0.51992682249E+03  0.00000000000E+00 0. -1.
        -13    1    3    3    0    0 -0.40321591577E+02  0.10017615643E+03 -0.27420300180E+03  0.29470049077E+03  0.00000000000E+00 0.  1.
         22    1    1    2    0    0  0.14065648776E+03 -0.15983306638E+03  0.35303346860E+03  0.41226628119E+03  0.00000000000E+00 0.  1.
<mgrwt>
<rscale>  0 0.11498849E+04</rscale>
<asrwt>0</asrwt>
<pdfrwt beam="1">  1        1 0.12728590E+00 0.11498849E+04</pdfrwt>
<pdfrwt beam="2">  1       -1 0.61466960E-01 0.11498849E+04</pdfrwt>
<totfact> 0.55826138E+01</totfact>
</mgrwt>
</event>
