<event>
 6    1  0.5196787E-004  0.3118884E+04  0.7818608E-02  0.8210574E-01
         -1   -1    0    0    0  501 -0.00000000000E+00  0.00000000000E+00  0.45001958093E+04  0.45001958093E+04  0.00000000000E+00 0. -1.
          1   -1    0    0  501    0  0.00000000000E+00 -0.00000000000E+00 -0.54038959058E+03  0.54038959058E+03  0.00000000000E+00 0.  1.
         23    2    1    2    0    0 -0.10471253691E+03 -0.10584054591E+04  0.14119811376E+03  0.10766284513E+04  0.89471132440E+02 0.  0.
         11    1    3    3    0    0 -0.77934124077E+02 -0.40256215388E+03  0.75858309330E+02  0.41699460251E+03  0.00000000000E+00 0.  1.
        -11    1    3    3    0    0 -0.26778412833E+02 -0.65584330521E+03  0.65339804435E+02  0.65963384876E+03  0.00000000000E+00 0. -1.
         22    1    1    2    0    0  0.10471253691E+03  0.10584054591E+04  0.38186081050E+04  0.39639569486E+04  0.00000000000E+00 0. -1.
<mgrwt>
<rscale>  0 0.31188838E+04</rscale>
<asrwt>0</asrwt>
<pdfrwt beam="1">  1        1 0.83136863E-01 0.31188838E+04</pdfrwt>
<pdfrwt beam="2">  1       -1 0.69233779E+00 0.31188838E+04</pdfrwt>
<totfact> 0.70735096E-03</totfact>
</mgrwt>
</event>
<event>
 6    1  0.5196787E-004  0.1878933E+04  0.7818608E-02  0.8665414E-01
         -2   -1    0    0    0  501 -0.00000000000E+00  0.00000000000E+00  0.83074914545E+03  0.83074914545E+03  0.00000000000E+00 0. -1.
          2   -1    0    0  501    0  0.00000000000E+00 -0.00000000000E+00 -0.10624117531E+04  0.10624117531E+04  0.00000000000E+00 0.  1.
         23    2    1    2    0    0  0.29788142304E+03 -0.64354172637E+03 -0.73371335860E+03  0.10242913731E+04  0.89208904151E+02 0.  0.
         13    1    3    3    0    0  0.13984279836E+03 -0.36848712343E+03 -0.45556314447E+03  0.60239235303E+03  0.00000000000E+00 0. -1.
        -13    1    3    3    0    0  0.15803862468E+03 -0.27505460294E+03 -0.27815021413E+03  0.42189902004E+03  0.00000000000E+00 0.  1.
         22    1    1    2    0    0 -0.29788142304E+03  0.64354172637E+03  0.50205075095E+03  0.86886952548E+03  0.00000000000E+00 0. -1.
<mgrwt>
<rscale>  0 0.18789334E+04</rscale>
<asrwt>0</asrwt>
<pdfrwt beam="1">  1        2 0.16344796E+00 0.18789334E+04</pdfrwt>
<pdfrwt beam="2">  1       -2 0.12780756E+00 0.18789334E+04</pdfrwt>
<totfact> 0.97802032E+00</totfact>
</mgrwt>
</event>
<event>
 6    1  0.5196787E-004  0.2682964E+04  0.7818608E-02  0.8340554E-01
         -2   -1    0    0    0  501 -0.00000000000E+00  0.00000000000E+00  0.19451632706E+04  0.19451632706E+04  0.00000000000E+00 0. -1.
          2   -1    0    0  501    0  0.00000000000E+00 -0.00000000000E+00 -0.92515343165E+03  0.92515343165E+03  0.00000000000E+00 0.  1.
         23    2    1    2    0    0  0.39598679698E+03 -0.12516926475E+04  0.79727562113E+03  0.15387197066E+04  0.92032017536E+02 0.  0.
         11    1    3    3    0    0  0.15258929473E+03 -0.35180631554E+03  0.21602003225E+03  0.44013160629E+03  0.00000000000E+00 0.  1.
        -11    1    3    3    0    0  0.24339750225E+03 -0.89988633193E+03  0.58125558888E+03  0.10985881003E+04  0.00000000000E+00 0. -1.
         22    1    1    2    0    0 -0.39598679698E+03  0.12516926475E+04  0.22273421782E+03  0.13315969957E+04  0.00000000000E+00 0.  1.
<mgrwt>
<rscale>  0 0.26829644E+04</rscale>
<asrwt>0</asrwt>
<pdfrwt beam="1">  1        2 0.14233130E+00 0.26829644E+04</pdfrwt>
<pdfrwt beam="2">  1       -2 0.29925589E+00 0.26829644E+04</pdfrwt>
<totfact> 0.79576657E-01</totfact>
</mgrwt>
</event>
<event>
 6    1  0.5196787E-004  0.2448994E+04  0.7818608E-02  0.8421385E-01
          2   -1    0    0  501    0  0.00000000000E+00  0.00000000000E+00  0.23852480547E+04  0.23852480547E+04  0.00000000000E+00 0. -1.
         -2   -1    0    0    0  501 -0.00000000000E+00 -0.00000000000E+00 -0.62861081087E+03  0.62861081087E+03  0.00000000000E+00 0.  1.
         23    2    1    2    0    0 -0.19680941377E+03  0.95270236040E+03 -0.31645167264E+02  0.97809617933E+03  0.96410510520E+02 0.  0.
         11    1    3    3    0    0 -0.48737794661E+02  0.28883414779E+03 -0.52551191388E+02  0.29759396041E+03  0.00000000000E+00 0. -1.
        -11    1    3    3    0    0 -0.14807161911E+03  0.66386821261E+03  0.20906024124E+02  0.68050221892E+03  0.00000000000E+00 0.  1.
         22    1    1    2    0    0  0.19680941377E+03 -0.95270236040E+03  0.17882824111E+04  0.20357626862E+04  0.00000000000E+00 0. -1.
<mgrwt>
<rscale>  0 0.24489938E+04</rscale>
<asrwt>0</asrwt>
<pdfrwt beam="1">  1        2 0.36696123E+00 0.24489938E+04</pdfrwt>
<pdfrwt beam="2">  1       -2 0.96709357E-01 0.24489938E+04</pdfrwt>
<totfact> 0.32446398E+00</totfact>
</mgrwt>
</event>
<event>
 6    1  0.5728621E-004  0.3895731E+04  0.7818608E-02  0.8025918E-01
          2   -1    0    0  501    0  0.00000000000E+00  0.00000000000E+00  0.19368641907E+04  0.19368641907E+04  0.00000000000E+00 0.  1.
         -2   -1    0    0    0  501 -0.00000000000E+00 -0.00000000000E+00 -0.19589288991E+04  0.19589288991E+04  0.00000000000E+00 0. -1.
         23    2    1    2    0    0  0.62897650685E+03  0.30071738647E+03  0.18066489972E+04  0.19386941630E+04  0.92260857763E+02 0.  0.
         11    1    3    3    0    0  0.24709356321E+03  0.11858883468E+03  0.83784950199E+03  0.88153861440E+03  0.00000000000E+00 0. -1.
        -11    1    3    3    0    0  0.38188294365E+03  0.18212855178E+03  0.96879949518E+03  0.10571555486E+04  0.00000000000E+00 0.  1.
         22    1    1    2    0    0 -0.62897650685E+03 -0.30071738647E+03 -0.18287137056E+04  0.19570989269E+04  0.00000000000E+00 0. -1.
<mgrwt>
<rscale>  0 0.38957306E+04</rscale>
<asrwt>0</asrwt>
<pdfrwt beam="1">  1        2 0.29797910E+00 0.38957306E+04</pdfrwt>
<pdfrwt beam="2">  1       -2 0.30137368E+00 0.38957306E+04</pdfrwt>
<totfact> 0.17964950E-01</totfact>
</mgrwt>
</event>
<event>
 6    1  0.5196787E-004  0.2328600E+04  0.7818608E-02  0.8466729E-01
         -1   -1    0    0    0  501 -0.00000000000E+00  0.00000000000E+00  0.57117835958E+03  0.57117835958E+03  0.00000000000E+00 0. -1.
          1   -1    0    0  501    0  0.00000000000E+00 -0.00000000000E+00 -0.23733295279E+04  0.23733295279E+04  0.00000000000E+00 0.  1.
         23    2    1    2    0    0 -0.57657308772E+03  0.96471491232E+03 -0.52665533891E+03  0.12445075938E+04  0.91224544971E+02 0.  0.
         11    1    3    3    0    0 -0.20943069978E+03  0.32523136333E+03 -0.22737756247E+03  0.44870615509E+03  0.00000000000E+00 0. -1.
        -11    1    3    3    0    0 -0.36714238794E+03  0.63948354899E+03 -0.29927777644E+03  0.79580143875E+03  0.00000000000E+00 0.  1.
         22    1    1    2    0    0  0.57657308772E+03 -0.96471491232E+03 -0.12754958294E+04  0.17000002936E+04  0.00000000000E+00 0.  1.
<mgrwt>
<rscale>  0 0.23286000E+04</rscale>
<asrwt>0</asrwt>
<pdfrwt beam="1">  1        1 0.36512763E+00 0.23286000E+04</pdfrwt>
<pdfrwt beam="2">  1       -1 0.87873592E-01 0.23286000E+04</pdfrwt>
<totfact> 0.19023241E+00</totfact>
</mgrwt>
</event>
<event>
 6    1  0.5196787E-004  0.3074301E+04  0.7818608E-02  0.8222826E-01
          2   -1    0    0  501    0  0.00000000000E+00  0.00000000000E+00  0.21005642513E+04  0.21005642513E+04  0.00000000000E+00 0.  1.
         -2   -1    0    0    0  501 -0.00000000000E+00 -0.00000000000E+00 -0.11248557036E+04  0.11248557036E+04  0.00000000000E+00 0. -1.
         23    2    1    2    0    0  0.79179024215E+03 -0.27687614117E+02  0.18686432421E+04  0.20316734325E+04  0.90393464566E+02 0.  0.
         13    1    3    3    0    0  0.53038159095E+03 -0.33303646127E+02  0.11472168292E+04  0.12643259936E+04  0.00000000000E+00 0.  1.
        -13    1    3    3    0    0  0.26140865121E+03  0.56160320094E+01  0.72142641284E+03  0.76734743884E+03  0.00000000000E+00 0. -1.
         22    1    1    2    0    0 -0.79179024215E+03  0.27687614117E+02 -0.89293469439E+03  0.11937465225E+04  0.00000000000E+00 0. -1.
<mgrwt>
<rscale>  0 0.30743010E+04</rscale>
<asrwt>0</asrwt>
<pdfrwt beam="1">  1        2 0.32316373E+00 0.30743010E+04</pdfrwt>
<pdfrwt beam="2">  1       -2 0.17305472E+00 0.30743010E+04</pdfrwt>
<totfact> 0.10130355E+00</totfact>
</mgrwt>
</event>
<event>
 6    1  0.5196787E-004  0.3358658E+04  0.7818608E-02  0.8148128E-01
          2   -1    0    0  501    0  0.00000000000E+00  0.00000000000E+00  0.29257621898E+04  0.29257621898E+04  0.00000000000E+00 0.  1.
         -2   -1    0    0    0  501 -0.00000000000E+00 -0.00000000000E+00 -0.96390115359E+03  0.96390115359E+03  0.00000000000E+00 0. -1.
         23    2    1    2    0    0  0.95413433368E+03  0.93093688785E+03 -0.19889083150E+03  0.13507926398E+04  0.89818578037E+02 0.  0.
         13    1    3    3    0    0  0.39958954862E+03  0.37658455342E+03 -0.12563865587E+03  0.56326974452E+03  0.00000000000E+00 0.  1.
        -13    1    3    3    0    0  0.55454478506E+03  0.55435233443E+03 -0.73252175629E+02  0.78752289526E+03  0.00000000000E+00 0. -1.
         22    1    1    2    0    0 -0.95413433368E+03 -0.93093688785E+03  0.21607518677E+04  0.25388707036E+04  0.00000000000E+00 0.  1.
<mgrwt>
<rscale>  0 0.33586578E+04</rscale>
<asrwt>0</asrwt>
<pdfrwt beam="1">  1        2 0.45011726E+00 0.33586578E+04</pdfrwt>
<pdfrwt beam="2">  1       -2 0.14829249E+00 0.33586578E+04</pdfrwt>
<totfact> 0.49691102E-01</totfact>
</mgrwt>
</event>
<event>
 6    1  0.5196787E-004  0.1426932E+04  0.7818608E-02  0.8934552E-01
          2   -1    0    0  501    0  0.00000000000E+00  0.00000000000E+00  0.56924864162E+03  0.56924864162E+03  0.00000000000E+00 0.  1.
         -2   -1    0    0    0  501 -0.00000000000E+00 -0.00000000000E+00 -0.89421978702E+03  0.89421978702E+03  0.00000000000E+00 0. -1.
         23    2    1    2    0    0  0.15459843012E+03  0.71448327735E+02 -0.87087773608E+03  0.89161220205E+03  0.86825972546E+02 0.  0.
         13    1    3    3    0    0  0.89921504931E+02  0.50541693050E+02 -0.70249210496E+03  0.71002499767E+03  0.00000000000E+00 0. -1.
        -13    1    3    3    0    0  0.64676925191E+02  0.20906634684E+02 -0.16838563112E+03  0.18158720438E+03  0.00000000000E+00 0.  1.
         22    1    1    2    0    0 -0.15459843012E+03 -0.71448327735E+02  0.54590659069E+03  0.57185622659E+03  0.00000000000E+00 0.  1.
<mgrwt>
<rscale>  0 0.14269315E+04</rscale>
<asrwt>0</asrwt>
<pdfrwt beam="1">  1        2 0.87576715E-01 0.14269315E+04</pdfrwt>
<pdfrwt beam="2">  1       -2 0.13757227E+00 0.14269315E+04</pdfrwt>
<totfact> 0.19280094E+01</totfact>
</mgrwt>
</event>
<event>
 6    1  0.5196787E-004  0.1572494E+04  0.7818608E-02  0.8837626E-01
          2   -1    0    0  501    0  0.00000000000E+00  0.00000000000E+00  0.14142945389E+04  0.14142945389E+04  0.00000000000E+00 0. -1.
         -2   -1    0    0    0  501 -0.00000000000E+00 -0.00000000000E+00 -0.43709746064E+03  0.43709746064E+03  0.00000000000E+00 0.  1.
         23    2    1    2    0    0  0.20891966294E+03 -0.55071050822E+03  0.10984646708E+04  0.12500307783E+04  0.94988548684E+02 0.  0.
         11    1    3    3    0    0  0.18707676513E+03 -0.47472806043E+03  0.87397002296E+03  0.10120217628E+04  0.00000000000E+00 0. -1.
        -11    1    3    3    0    0  0.21842897818E+02 -0.75982447784E+02  0.22449464781E+03  0.23800901548E+03  0.00000000000E+00 0.  1.
         22    1    1    2    0    0 -0.20891966294E+03  0.55071050822E+03 -0.12126759249E+03  0.60136122124E+03  0.00000000000E+00 0.  1.
<mgrwt>
<rscale>  0 0.15724943E+04</rscale>
<asrwt>0</asrwt>
<pdfrwt beam="1">  1        2 0.21758377E+00 0.15724943E+04</pdfrwt>
<pdfrwt beam="2">  1       -2 0.67245764E-01 0.15724943E+04</pdfrwt>
<totfact> 0.27681861E+01</totfact>
</mgrwt>
</event>
<event>
 6    1  0.5196787E-004  0.2324199E+04  0.7818608E-02  0.8468441E-01
         -2   -1    0    0    0  501 -0.00000000000E+00  0.00000000000E+00  0.89977844747E+03  0.89977844747E+03  0.00000000000E+00 0. -1.
          2   -1    0    0  501    0  0.00000000000E+00 -0.00000000000E+00 -0.15008971308E+04  0.15008971308E+04  0.00000000000E+00 0.  1.
         23    2    1    2    0    0  0.80221816271E+03 -0.59802731734E+03 -0.90771120994E+03  0.13541624965E+04  0.92875041517E+02 0.  0.
         13    1    3    3    0    0  0.72574598143E+03 -0.52583175700E+03 -0.84475513875E+03  0.12315914545E+04  0.00000000000E+00 0. -1.
        -13    1    3    3    0    0  0.76472181281E+02 -0.72195560340E+02 -0.62956071185E+02  0.12257104202E+03  0.00000000000E+00 0.  1.
         22    1    1    2    0    0 -0.80221816271E+03  0.59802731734E+03  0.30659252666E+03  0.10465130817E+04  0.00000000000E+00 0. -1.
<mgrwt>
<rscale>  0 0.23241987E+04</rscale>
<asrwt>0</asrwt>
<pdfrwt beam="1">  1        2 0.23090725E+00 0.23241987E+04</pdfrwt>
<pdfrwt beam="2">  1       -2 0.13842745E+00 0.23241987E+04</pdfrwt>
<totfact> 0.42437951E+00</totfact>
</mgrwt>
</event>
<event>
 6    1  0.5196787E-004  0.2639134E+04  0.7818608E-02  0.8355029E-01
         -2   -1    0    0    0  501 -0.00000000000E+00  0.00000000000E+00  0.95576476072E+03  0.95576476072E+03  0.00000000000E+00 0. -1.
          2   -1    0    0  501    0  0.00000000000E+00 -0.00000000000E+00 -0.18218467499E+04  0.18218467499E+04  0.00000000000E+00 0.  1.
         23    2    1    2    0    0 -0.12114479819E+03 -0.12958847348E+04 -0.21517505255E+03  0.13223887963E+04  0.91752479350E+02 0.  0.
         11    1    3    3    0    0  0.30550873988E+01 -0.43068203258E+03 -0.70492538150E+02  0.43642358401E+03  0.00000000000E+00 0.  1.
        -11    1    3    3    0    0 -0.12419988559E+03 -0.86520270221E+03 -0.14468251440E+03  0.88596521233E+03  0.00000000000E+00 0. -1.
         22    1    1    2    0    0  0.12114479819E+03  0.12958847348E+04 -0.65090693662E+03  0.14552227143E+04  0.00000000000E+00 0. -1.
<mgrwt>
<rscale>  0 0.26391339E+04</rscale>
<asrwt>0</asrwt>
<pdfrwt beam="1">  1        2 0.28028411E+00 0.26391339E+04</pdfrwt>
<pdfrwt beam="2">  1       -2 0.14704073E+00 0.26391339E+04</pdfrwt>
<totfact> 0.23370508E+00</totfact>
</mgrwt>
</event>
<event>
 6    1  0.5196787E-004  0.3290450E+04  0.7818608E-02  0.8165330E-01
         -2   -1    0    0    0  501 -0.00000000000E+00  0.00000000000E+00  0.53346439698E+03  0.53346439698E+03  0.00000000000E+00 0. -1.
          2   -1    0    0  501    0  0.00000000000E+00 -0.00000000000E+00 -0.50739370581E+04  0.50739370581E+04  0.00000000000E+00 0.  1.
         23    2    1    2    0    0  0.35656871099E+03  0.66451721272E+03 -0.47613704337E+04  0.48215769215E+04  0.90726133721E+02 0.  0.
         13    1    3    3    0    0  0.78503608044E+02  0.22606944982E+03 -0.13855065202E+04  0.14060222367E+04  0.00000000000E+00 0. -1.
        -13    1    3    3    0    0  0.27806510294E+03  0.43844776289E+03 -0.33758639135E+04  0.34155546848E+04  0.00000000000E+00 0.  1.
         22    1    1    2    0    0 -0.35656871099E+03 -0.66451721272E+03  0.22089777258E+03  0.78582453358E+03  0.00000000000E+00 0. -1.
<mgrwt>
<rscale>  0 0.32904497E+04</rscale>
<asrwt>0</asrwt>
<pdfrwt beam="1">  1        2 0.78060572E+00 0.32904497E+04</pdfrwt>
<pdfrwt beam="2">  1       -2 0.82071443E-01 0.32904497E+04</pdfrwt>
<totfact> 0.29881027E-02</totfact>
</mgrwt>
</event>
<event>
 6    1  0.5196787E-004  0.3039632E+04  0.7818608E-02  0.8232503E-01
         -2   -1    0    0    0  501 -0.00000000000E+00  0.00000000000E+00  0.14842218174E+04  0.14842218174E+04  0.00000000000E+00 0. -1.
          2   -1    0    0  501    0  0.00000000000E+00 -0.00000000000E+00 -0.15562639902E+04  0.15562639902E+04  0.00000000000E+00 0.  1.
         23    2    1    2    0    0 -0.12369224548E+03 -0.65476548235E+03  0.13287828978E+04  0.14892513035E+04  0.90486723245E+02 0.  0.
         13    1    3    3    0    0 -0.12707978794E+03 -0.45228708726E+03  0.94306783657E+03  0.10536080040E+04  0.00000000000E+00 0. -1.
        -13    1    3    3    0    0  0.33875424645E+01 -0.20247839509E+03  0.38571506122E+03  0.43564329947E+03  0.00000000000E+00 0.  1.
         22    1    1    2    0    0  0.12369224548E+03  0.65476548235E+03 -0.14008250705E+04  0.15512345041E+04  0.00000000000E+00 0.  1.
<mgrwt>
<rscale>  0 0.30396322E+04</rscale>
<asrwt>0</asrwt>
<pdfrwt beam="1">  1        2 0.23942523E+00 0.30396322E+04</pdfrwt>
<pdfrwt beam="2">  1       -2 0.22834182E+00 0.30396322E+04</pdfrwt>
<totfact> 0.88172948E-01</totfact>
</mgrwt>
</event>
<event>
 6    1  0.5196787E-004  0.1061764E+04  0.7818608E-02  0.9243282E-01
         -1   -1    0    0    0  501 -0.00000000000E+00  0.00000000000E+00  0.41720618934E+03  0.41720618934E+03  0.00000000000E+00 0. -1.
          1   -1    0    0  501    0  0.00000000000E+00 -0.00000000000E+00 -0.67553124631E+03  0.67553124631E+03  0.00000000000E+00 0.  1.
         23    2    1    2    0    0  0.86747505164E+02 -0.36970194849E+03 -0.50637839291E+03  0.63915710336E+03  0.88871061646E+02 0.  0.
         11    1    3    3    0    0  0.32658740485E+01 -0.20717032728E+03 -0.26223068466E+03  0.33420823212E+03  0.00000000000E+00 0.  1.
        -11    1    3    3    0    0  0.83481631116E+02 -0.16253162121E+03 -0.24414770825E+03  0.30494887124E+03  0.00000000000E+00 0. -1.
         22    1    1    2    0    0 -0.86747505164E+02  0.36970194849E+03  0.24805333594E+03  0.45358033229E+03  0.00000000000E+00 0. -1.
<mgrwt>
<rscale>  0 0.10617642E+04</rscale>
<asrwt>0</asrwt>
<pdfrwt beam="1">  1        1 0.10392788E+00 0.10617642E+04</pdfrwt>
<pdfrwt beam="2">  1       -1 0.64185568E-01 0.10617642E+04</pdfrwt>
<totfact> 0.70714092E+01</totfact>
</mgrwt>
</event>
<event>
 6    1  0.5196787E-004  0.9006289E+03  0.7818608E-02  0.9424796E-01
          2   -1    0    0  501    0  0.00000000000E+00  0.00000000000E+00  0.84612598638E+03  0.84612598638E+03  0.00000000000E+00 0.  1.
         -2   -1    0    0    0  501 -0.00000000000E+00 -0.00000000000E+00 -0.23966066865E+03  0.23966066865E+03  0.00000000000E+00 0. -1.
         23    2    1    2    0    0 -0.40968069079E+03 -0.17044014659E+03  0.25742637542E+03  0.52123701574E+03  0.92366529838E+02 0.  0.
         13    1    3    3    0    0 -0.95332954709E+02 -0.45752540377E+02  0.10919065355E+03  0.15200087508E+03  0.00000000000E+00 0.  1.
        -13    1    3    3    0    0 -0.31434773609E+03 -0.12468760621E+03  0.14823572187E+03  0.36923614065E+03  0.00000000000E+00 0. -1.
         22    1    1    2    0    0  0.40968069079E+03  0.17044014659E+03  0.34903894231E+03  0.56454963930E+03  0.00000000000E+00 0.  1.
<mgrwt>
<rscale>  0 0.90062894E+03</rscale>
<asrwt>0</asrwt>
<pdfrwt beam="1">  1        2 0.13017323E+00 0.90062894E+03</pdfrwt>
<pdfrwt beam="2">  1       -2 0.36870873E-01 0.90062894E+03</pdfrwt>
<totfact> 0.22174796E+02</totfact>
</mgrwt>
</event>
<event>
 6    1  0.5196787E-004  0.1492016E+04  0.7818608E-02  0.8889779E-01
         -4   -1    0    0    0  501 -0.00000000000E+00  0.00000000000E+00  0.89745707354E+03  0.89745707354E+03  0.00000000000E+00 0. -1.
          4   -1    0    0  501    0  0.00000000000E+00 -0.00000000000E+00 -0.62011689762E+03  0.62011689762E+03  0.00000000000E+00 0.  1.
         23    2    1    2    0    0 -0.68625723617E+03  0.22776818753E+03  0.31403075764E+03  0.79357566990E+03  0.91212310958E+02 0.  0.
         13    1    3    3    0    0 -0.38195125583E+03  0.17410415608E+03  0.18478140918E+03  0.45863186563E+03  0.00000000000E+00 0. -1.
        -13    1    3    3    0    0 -0.30430598034E+03  0.53664031452E+02  0.12924934846E+03  0.33494380427E+03  0.00000000000E+00 0.  1.
         22    1    1    2    0    0  0.68625723617E+03 -0.22776818753E+03 -0.36690581726E+02  0.72399830126E+03  0.00000000000E+00 0. -1.
<mgrwt>
<rscale>  0 0.14920165E+04</rscale>
<asrwt>0</asrwt>
<pdfrwt beam="1">  1        4 0.95402600E-01 0.14920165E+04</pdfrwt>
<pdfrwt beam="2">  1       -4 0.13807032E+00 0.14920165E+04</pdfrwt>
<totfact> 0.66126211E-01</totfact>
</mgrwt>
</event>
<event>
 6    1  0.5196787E-004  0.2626517E+04  0.7818608E-02  0.8359249E-01
         -2   -1    0    0    0  501 -0.00000000000E+00  0.00000000000E+00  0.79267329278E+03  0.79267329278E+03  0.00000000000E+00 0. -1.
          2   -1    0    0  501    0  0.00000000000E+00 -0.00000000000E+00 -0.21757368602E+04  0.21757368602E+04  0.00000000000E+00 0.  1.
         23    2    1    2    0    0  0.10273324498E+04 -0.71388339600E+03 -0.11376073919E+04  0.16935414540E+04  0.94290046771E+02 0.  0.
         11    1    3    3    0    0  0.60297611168E+03 -0.42294777865E+03 -0.60669345262E+03  0.95422322345E+03  0.00000000000E+00 0.  1.
        -11    1    3    3    0    0  0.42435633810E+03 -0.29093561735E+03 -0.53091393928E+03  0.73931823057E+03  0.00000000000E+00 0. -1.
         22    1    1    2    0    0 -0.10273324498E+04  0.71388339600E+03 -0.24545617550E+03  0.12748686989E+04  0.00000000000E+00 0.  1.
<mgrwt>
<rscale>  0 0.26265175E+04</rscale>
<asrwt>0</asrwt>
<pdfrwt beam="1">  1        2 0.33472874E+00 0.26265175E+04</pdfrwt>
<pdfrwt beam="2">  1       -2 0.12194974E+00 0.26265175E+04</pdfrwt>
<totfact> 0.23988868E+00</totfact>
</mgrwt>
</event>
<event>
 6    1  0.5196787E-004  0.1344023E+04  0.7818608E-02  0.8995365E-01
         -2   -1    0    0    0  501 -0.00000000000E+00  0.00000000000E+00  0.39910033748E+03  0.39910033748E+03  0.00000000000E+00 0. -1.
          2   -1    0    0  501    0  0.00000000000E+00 -0.00000000000E+00 -0.11315443222E+04  0.11315443222E+04  0.00000000000E+00 0.  1.
         23    2    1    2    0    0 -0.26856858709E+03 -0.20859492014E+03 -0.10230209244E+04  0.10833462307E+04  0.10689395244E+03 0.  0.
         11    1    3    3    0    0 -0.13381959234E+03 -0.40873178178E+02 -0.35717287912E+03  0.38360235345E+03  0.00000000000E+00 0.  1.
        -11    1    3    3    0    0 -0.13474899474E+03 -0.16772174196E+03 -0.66584804530E+03  0.69974387725E+03  0.00000000000E+00 0. -1.
         22    1    1    2    0    0  0.26856858709E+03  0.20859492014E+03  0.29057693970E+03  0.44729842898E+03  0.00000000000E+00 0. -1.
<mgrwt>
<rscale>  0 0.13440234E+04</rscale>
<asrwt>0</asrwt>
<pdfrwt beam="1">  1        2 0.17408374E+00 0.13440234E+04</pdfrwt>
<pdfrwt beam="2">  1       -2 0.61400052E-01 0.13440234E+04</pdfrwt>
<totfact> 0.50213895E+01</totfact>
</mgrwt>
</event>
<event>
 6    1  0.5196787E-004  0.2097898E+04  0.7818608E-02  0.8562170E-01
          2   -1    0    0  501    0  0.00000000000E+00  0.00000000000E+00  0.16151861151E+04  0.16151861151E+04  0.00000000000E+00 0.  1.
         -2   -1    0    0    0  501 -0.00000000000E+00 -0.00000000000E+00 -0.68121825666E+03  0.68121825666E+03  0.00000000000E+00 0. -1.
         23    2    1    2    0    0 -0.25290734033E+03 -0.40738641968E+03 -0.55083668330E+03  0.73609339477E+03  0.92122833355E+02 0.  0.
         13    1    3    3    0    0 -0.20654508993E+03 -0.34629753954E+03 -0.40599393768E+03  0.57220095902E+03  0.00000000000E+00 0.  1.
        -13    1    3    3    0    0 -0.46362250391E+02 -0.61088880140E+02 -0.14484274562E+03  0.16389243575E+03  0.00000000000E+00 0. -1.
         22    1    1    2    0    0  0.25290734033E+03  0.40738641968E+03  0.14848045418E+04  0.15603109770E+04  0.00000000000E+00 0.  1.
<mgrwt>
<rscale>  0 0.20978983E+04</rscale>
<asrwt>0</asrwt>
<pdfrwt beam="1">  1        2 0.24849017E+00 0.20978983E+04</pdfrwt>
<pdfrwt beam="2">  1       -2 0.10480281E+00 0.20978983E+04</pdfrwt>
<totfact> 0.74435599E+00</totfact>
</mgrwt>
</event>
<event>
 6    1  0.5196787E-004  0.3637481E+04  0.7818608E-02  0.8081960E-01
          2   -1    0    0  501    0  0.00000000000E+00  0.00000000000E+00  0.18736563120E+04  0.18736563120E+04  0.00000000000E+00 0. -1.
         -2   -1    0    0    0  501 -0.00000000000E+00 -0.00000000000E+00 -0.17654338474E+04  0.17654338474E+04  0.00000000000E+00 0.  1.
         23    2    1    2    0    0 -0.58172311174E+03  0.59385443304E+03  0.16711170838E+04  0.18688629263E+04  0.94612172134E+02 0.  0.
         13    1    3    3    0    0 -0.46428876974E+03  0.43298462737E+03  0.13326403300E+04  0.14761334623E+04  0.00000000000E+00 0.  1.
        -13    1    3    3    0    0 -0.11743434200E+03  0.16086980567E+03  0.33847675378E+03  0.39272946402E+03  0.00000000000E+00 0. -1.
         22    1    1    2    0    0  0.58172311174E+03 -0.59385443304E+03 -0.15628946192E+04  0.17702272332E+04  0.00000000000E+00 0.  1.
<mgrwt>
<rscale>  0 0.36374806E+04</rscale>
<asrwt>0</asrwt>
<pdfrwt beam="1">  1        2 0.28825482E+00 0.36374806E+04</pdfrwt>
<pdfrwt beam="2">  1       -2 0.27160521E+00 0.36374806E+04</pdfrwt>
<totfact> 0.30238994E-01</totfact>
</mgrwt>
</event>
<event>
 6    1  0.5196787E-004  0.9618518E+03  0.7818608E-02  0.9351404E-01
          1   -1    0    0  501    0  0.00000000000E+00  0.00000000000E+00  0.53446921631E+03  0.53446921631E+03  0.00000000000E+00 0.  1.
         -1   -1    0    0    0  501 -0.00000000000E+00 -0.00000000000E+00 -0.43274656845E+03  0.43274656845E+03  0.00000000000E+00 0. -1.
         23    2    1    2    0    0 -0.49459749080E+02 -0.24895133289E+03  0.45692592599E+03  0.53064688787E+03  0.91552088101E+02 0.  0.
         11    1    3    3    0    0 -0.33329973055E+02 -0.20214408582E+03  0.42481587773E+03  0.47163720009E+03  0.00000000000E+00 0. -1.
        -11    1    3    3    0    0 -0.16129776025E+02 -0.46807247069E+02  0.32110048265E+02  0.59009687784E+02  0.00000000000E+00 0.  1.
         22    1    1    2    0    0  0.49459749080E+02  0.24895133289E+03 -0.35520327814E+03  0.43656889688E+03  0.00000000000E+00 0. -1.
<mgrwt>
<rscale>  0 0.96185180E+03</rscale>
<asrwt>0</asrwt>
<pdfrwt beam="1">  1        1 0.82226033E-01 0.96185180E+03</pdfrwt>
<pdfrwt beam="2">  1       -1 0.66576395E-01 0.96185180E+03</pdfrwt>
<totfact> 0.92803931E+01</totfact>
</mgrwt>
</event>
<event>
 6    1  0.5196787E-004  0.1814999E+04  0.7818608E-02  0.8698363E-01
          2   -1    0    0  501    0  0.00000000000E+00  0.00000000000E+00  0.19626377372E+04  0.19626377372E+04  0.00000000000E+00 0.  1.
         -2   -1    0    0    0  501 -0.00000000000E+00 -0.00000000000E+00 -0.41961672808E+03  0.41961672808E+03  0.00000000000E+00 0. -1.
         23    2    1    2    0    0 -0.43313426104E+03 -0.64928823050E+02 -0.26634761244E+03  0.52063263236E+03  0.91083736598E+02 0.  0.
         11    1    3    3    0    0 -0.24742980487E+03  0.14557718244E+01 -0.17639764093E+03  0.30387457171E+03  0.00000000000E+00 0. -1.
        -11    1    3    3    0    0 -0.18570445617E+03 -0.66384594874E+02 -0.89949971507E+02  0.21675806064E+03  0.00000000000E+00 0.  1.
         22    1    1    2    0    0  0.43313426104E+03  0.64928823050E+02  0.18093686216E+04  0.18616218329E+04  0.00000000000E+00 0.  1.
<mgrwt>
<rscale>  0 0.18149993E+04</rscale>
<asrwt>0</asrwt>
<pdfrwt beam="1">  1        2 0.30194426E+00 0.18149993E+04</pdfrwt>
<pdfrwt beam="2">  1       -2 0.64556421E-01 0.18149993E+04</pdfrwt>
<totfact> 0.14641407E+01</totfact>
</mgrwt>
</event>
<event>
 6    1  0.5196787E-004  0.5026037E+04  0.7818608E-02  0.7824503E-01
          1   -1    0    0  501    0  0.00000000000E+00  0.00000000000E+00  0.14897814866E+04  0.14897814866E+04  0.00000000000E+00 0.  1.
         -1   -1    0    0    0  501 -0.00000000000E+00 -0.00000000000E+00 -0.42390532194E+04  0.42390532194E+04  0.00000000000E+00 0. -1.
         23    2    1    2    0    0 -0.15330797590E+04 -0.86235899342E+03 -0.34195565587E+04  0.38464749293E+04  0.89474815710E+02 0.  0.
         11    1    3    3    0    0 -0.34959061333E+03 -0.19269965572E+03 -0.69687029107E+03  0.80310332885E+03  0.00000000000E+00 0. -1.
        -11    1    3    3    0    0 -0.11834891457E+04 -0.66965933770E+03 -0.27226862677E+04  0.30433716005E+04  0.00000000000E+00 0.  1.
         22    1    1    2    0    0  0.15330797590E+04  0.86235899342E+03  0.67028482589E+03  0.18823597767E+04  0.00000000000E+00 0.  1.
<mgrwt>
<rscale>  0 0.50260374E+04</rscale>
<asrwt>0</asrwt>
<pdfrwt beam="1">  1        1 0.22919715E+00 0.50260374E+04</pdfrwt>
<pdfrwt beam="2">  1       -1 0.65216203E+00 0.50260374E+04</pdfrwt>
<totfact> 0.13952225E-03</totfact>
</mgrwt>
</event>
<event>
 6    1  0.5196787E-004  0.4189851E+04  0.7818608E-02  0.7967306E-01
         -2   -1    0    0    0  501 -0.00000000000E+00  0.00000000000E+00  0.15187320127E+04  0.15187320127E+04  0.00000000000E+00 0. -1.
          2   -1    0    0  501    0  0.00000000000E+00 -0.00000000000E+00 -0.28897216059E+04  0.28897216059E+04  0.00000000000E+00 0.  1.
         23    2    1    2    0    0  0.16137867343E+04 -0.66090173176E+03  0.53459038954E+03  0.18253675199E+04  0.71280961069E+02 0.  0.
         13    1    3    3    0    0  0.32743473135E+03 -0.16302002738E+03  0.12377086603E+03  0.38614538699E+03  0.00000000000E+00 0.  1.
        -13    1    3    3    0    0  0.12863520030E+04 -0.49788170438E+03  0.41081952351E+03  0.14392221329E+04  0.00000000000E+00 0. -1.
         22    1    1    2    0    0 -0.16137867343E+04  0.66090173176E+03 -0.19055799827E+04  0.25830860987E+04  0.00000000000E+00 0.  1.
<mgrwt>
<rscale>  0 0.41898509E+04</rscale>
<asrwt>0</asrwt>
<pdfrwt beam="1">  1        2 0.44457255E+00 0.41898509E+04</pdfrwt>
<pdfrwt beam="2">  1       -2 0.23365108E+00 0.41898509E+04</pdfrwt>
<totfact> 0.12842797E-01</totfact>
</mgrwt>
</event>
<event>
 6    1  0.5196787E-004  0.4847581E+04  0.7818608E-02  0.7852459E-01
         -2   -1    0    0    0  501 -0.00000000000E+00  0.00000000000E+00  0.21450746730E+04  0.21450746730E+04  0.00000000000E+00 0. -1.
          2   -1    0    0  501    0  0.00000000000E+00 -0.00000000000E+00 -0.27387204269E+04  0.27387204269E+04  0.00000000000E+00 0.  1.
         23    2    1    2    0    0 -0.83857893007E+03  0.14917576670E+04 -0.20249665481E+04  0.26528233890E+04  0.91797894339E+02 0.  0.
         13    1    3    3    0    0 -0.65924898887E+02  0.76221678545E+02 -0.13123035594E+03  0.16546069894E+03  0.00000000000E+00 0. -1.
        -13    1    3    3    0    0 -0.77265403118E+03  0.14155359884E+04 -0.18937361921E+04  0.24873626900E+04  0.00000000000E+00 0.  1.
         22    1    1    2    0    0  0.83857893007E+03 -0.14917576670E+04  0.14313207942E+04  0.22309717109E+04  0.00000000000E+00 0. -1.
<mgrwt>
<rscale>  0 0.48475808E+04</rscale>
<asrwt>0</asrwt>
<pdfrwt beam="1">  1        2 0.42134160E+00 0.48475808E+04</pdfrwt>
<pdfrwt beam="2">  1       -2 0.33001149E+00 0.48475808E+04</pdfrwt>
<totfact> 0.38500659E-02</totfact>
</mgrwt>
</event>
<event>
 6    1  0.5196787E-004  0.3637254E+04  0.7818608E-02  0.8082011E-01
         -2   -1    0    0    0  501 -0.00000000000E+00  0.00000000000E+00  0.15237972485E+04  0.15237972485E+04  0.00000000000E+00 0.  1.
          2   -1    0    0  501    0  0.00000000000E+00 -0.00000000000E+00 -0.21705012275E+04  0.21705012275E+04  0.00000000000E+00 0. -1.
         23    2    1    2    0    0 -0.79420907692E+02 -0.14323030118E+04  0.80993907617E+03  0.16498893710E+04  0.91290915429E+02 0.  0.
         13    1    3    3    0    0 -0.71024722161E+02 -0.62529018077E+03  0.32382855236E+03  0.70774095024E+03  0.00000000000E+00 0.  1.
        -13    1    3    3    0    0 -0.83961855314E+01 -0.80701283108E+03  0.48611052381E+03  0.94214842080E+03  0.00000000000E+00 0. -1.
         22    1    1    2    0    0  0.79420907692E+02  0.14323030118E+04 -0.14566430552E+04  0.20444091050E+04  0.00000000000E+00 0. -1.
<mgrwt>
<rscale>  0 0.36372538E+04</rscale>
<asrwt>0</asrwt>
<pdfrwt beam="1">  1        2 0.33392326E+00 0.36372538E+04</pdfrwt>
<pdfrwt beam="2">  1       -2 0.23443035E+00 0.36372538E+04</pdfrwt>
<totfact> 0.34971837E-01</totfact>
</mgrwt>
</event>
<event>
 6    1  0.5196787E-004  0.1316072E+04  0.7818608E-02  0.9016916E-01
         -2   -1    0    0    0  501 -0.00000000000E+00  0.00000000000E+00  0.17741045209E+03  0.17741045209E+03  0.00000000000E+00 0. -1.
          2   -1    0    0  501    0  0.00000000000E+00 -0.00000000000E+00 -0.24407314681E+04  0.24407314681E+04  0.00000000000E+00 0.  1.
         23    2    1    2    0    0 -0.57387257131E+03 -0.17614860714E+03 -0.61624803453E+03  0.86508531351E+03  0.90845471505E+02 0.  0.
         13    1    3    3    0    0 -0.44670472335E+03 -0.17490742469E+03 -0.49672865830E+03  0.69056286974E+03  0.00000000000E+00 0.  1.
        -13    1    3    3    0    0 -0.12716784796E+03 -0.12411824468E+01 -0.11951937623E+03  0.17452244378E+03  0.00000000000E+00 0. -1.
         22    1    1    2    0    0  0.57387257131E+03  0.17614860714E+03 -0.16470729815E+04  0.17530566067E+04  0.00000000000E+00 0. -1.
<mgrwt>
<rscale>  0 0.13160718E+04</rscale>
<asrwt>0</asrwt>
<pdfrwt beam="1">  1        2 0.37549711E+00 0.13160718E+04</pdfrwt>
<pdfrwt beam="2">  1       -2 0.27293918E-01 0.13160718E+04</pdfrwt>
<totfact> 0.45246729E+01</totfact>
</mgrwt>
</event>
<event>
 6    1  0.5196787E-004  0.2088109E+04  0.7818608E-02  0.8566500E-01
         -2   -1    0    0    0  501 -0.00000000000E+00  0.00000000000E+00  0.11678295997E+04  0.11678295997E+04  0.00000000000E+00 0. -1.
          2   -1    0    0  501    0  0.00000000000E+00 -0.00000000000E+00 -0.93339767213E+03  0.93339767213E+03  0.00000000000E+00 0.  1.
         23    2    1    2    0    0  0.78954736345E+03  0.55590631112E+01  0.80178904896E+03  0.11289567100E+04  0.90893518350E+02 0.  0.
         13    1    3    3    0    0  0.34758672908E+03  0.30539241623E+02  0.30363203510E+03  0.46253820626E+03  0.00000000000E+00 0. -1.
        -13    1    3    3    0    0  0.44196063438E+03 -0.24980178512E+02  0.49815701386E+03  0.66641850373E+03  0.00000000000E+00 0.  1.
         22    1    1    2    0    0 -0.78954736345E+03 -0.55590631112E+01 -0.56735712136E+03  0.97227056187E+03  0.00000000000E+00 0.  1.
<mgrwt>
<rscale>  0 0.20881086E+04</rscale>
<asrwt>0</asrwt>
<pdfrwt beam="1">  1        2 0.14359964E+00 0.20881086E+04</pdfrwt>
<pdfrwt beam="2">  1       -2 0.17966609E+00 0.20881086E+04</pdfrwt>
<totfact> 0.46810911E+00</totfact>
</mgrwt>
</event>
<event>
 6    1  0.5196787E-004  0.1107914E+04  0.7818608E-02  0.9197513E-01
         -4   -1    0    0    0  501 -0.00000000000E+00  0.00000000000E+00  0.52399236792E+03  0.52399236792E+03  0.00000000000E+00 0. -1.
          4   -1    0    0  501    0  0.00000000000E+00 -0.00000000000E+00 -0.58563491186E+03  0.58563491186E+03  0.00000000000E+00 0.  1.
         23    2    1    2    0    0 -0.41627164831E+03  0.31397267540E+03  0.14373022028E+03  0.54923554325E+03  0.95605332822E+02 0.  0.
         11    1    3    3    0    0 -0.14271507404E+03  0.16624301637E+03  0.54191124366E+02  0.22570115376E+03  0.00000000000E+00 0. -1.
        -11    1    3    3    0    0 -0.27355657427E+03  0.14772965903E+03  0.89539095912E+02  0.32353438949E+03  0.00000000000E+00 0.  1.
         22    1    1    2    0    0  0.41627164831E+03 -0.31397267540E+03 -0.20537276421E+03  0.56039173653E+03  0.00000000000E+00 0.  1.
<mgrwt>
<rscale>  0 0.11079138E+04</rscale>
<asrwt>0</asrwt>
<pdfrwt beam="1">  1        4 0.90097679E-01 0.11079138E+04</pdfrwt>
<pdfrwt beam="2">  1       -4 0.80614210E-01 0.11079138E+04</pdfrwt>
<totfact> 0.28448305E+00</totfact>
</mgrwt>
</event>
<event>
 6    1  0.5196787E-004  0.1431081E+04  0.7818608E-02  0.8931623E-01
         -2   -1    0    0    0  501 -0.00000000000E+00  0.00000000000E+00  0.10475655478E+04  0.10475655478E+04  0.00000000000E+00 0. -1.
          2   -1    0    0  501    0  0.00000000000E+00 -0.00000000000E+00 -0.48875030862E+03  0.48875030862E+03  0.00000000000E+00 0.  1.
         23    2    1    2    0    0  0.23783656383E+03 -0.10530009353E+03  0.99267064174E+03  0.10304652351E+04  0.93857641807E+02 0.  0.
         11    1    3    3    0    0  0.21751513320E+03 -0.59977030589E+02  0.84804184904E+03  0.87754490204E+03  0.00000000000E+00 0. -1.
        -11    1    3    3    0    0  0.20321430624E+02 -0.45323062937E+02  0.14462879270E+03  0.15292033303E+03  0.00000000000E+00 0.  1.
         22    1    1    2    0    0 -0.23783656383E+03  0.10530009353E+03 -0.43385540256E+03  0.50585062135E+03  0.00000000000E+00 0.  1.
<mgrwt>
<rscale>  0 0.14310807E+04</rscale>
<asrwt>0</asrwt>
<pdfrwt beam="1">  1        2 0.75192355E-01 0.14310807E+04</pdfrwt>
<pdfrwt beam="2">  1       -2 0.16116393E+00 0.14310807E+04</pdfrwt>
<totfact> 0.15148730E+01</totfact>
</mgrwt>
</event>
<event>
 6    1  0.5196787E-004  0.1680612E+04  0.7818608E-02  0.8772500E-01
         -2   -1    0    0    0  501 -0.00000000000E+00  0.00000000000E+00  0.99292190537E+03  0.99292190537E+03  0.00000000000E+00 0. -1.
          2   -1    0    0  501    0  0.00000000000E+00 -0.00000000000E+00 -0.71114740019E+03  0.71114740019E+03  0.00000000000E+00 0.  1.
         23    2    1    2    0    0 -0.17656679770E+03 -0.66004074333E+03 -0.35030927768E+03  0.77328494523E+03  0.91779080306E+02 0.  0.
         11    1    3    3    0    0 -0.87092587658E+02 -0.47906252663E+03 -0.23303320487E+03  0.53980598164E+03  0.00000000000E+00 0. -1.
        -11    1    3    3    0    0 -0.89474210046E+02 -0.18097821670E+03 -0.11727607281E+03  0.23347896358E+03  0.00000000000E+00 0.  1.
         22    1    1    2    0    0  0.17656679770E+03  0.66004074333E+03  0.63208378285E+03  0.93078436034E+03  0.00000000000E+00 0. -1.
<mgrwt>
<rscale>  0 0.16806116E+04</rscale>
<asrwt>0</asrwt>
<pdfrwt beam="1">  1        2 0.10940729E+00 0.16806116E+04</pdfrwt>
<pdfrwt beam="2">  1       -2 0.15275722E+00 0.16806116E+04</pdfrwt>
<totfact> 0.10917614E+01</totfact>
</mgrwt>
</event>
<event>
 6    1  0.5196787E-004  0.2781615E+04  0.7818608E-02  0.8308999E-01
          2   -1    0    0  501    0  0.00000000000E+00  0.00000000000E+00  0.25939081255E+04  0.25939081255E+04  0.00000000000E+00 0.  1.
         -2   -1    0    0    0  501 -0.00000000000E+00 -0.00000000000E+00 -0.74572656488E+03  0.74572656488E+03  0.00000000000E+00 0. -1.
         23    2    1    2    0    0 -0.79619631540E+03  0.30495773662E+03 -0.39263202058E+03  0.94209985237E+03  0.80401706903E+02 0.  0.
         11    1    3    3    0    0 -0.31488418256E+03  0.79957512481E+02 -0.15887417459E+03  0.36164382420E+03  0.00000000000E+00 0. -1.
        -11    1    3    3    0    0 -0.48131213284E+03  0.22500022414E+03 -0.23375784599E+03  0.58045602817E+03  0.00000000000E+00 0.  1.
         22    1    1    2    0    0  0.79619631540E+03 -0.30495773662E+03  0.22408135812E+04  0.23975348380E+04  0.00000000000E+00 0.  1.
<mgrwt>
<rscale>  0 0.27816155E+04</rscale>
<asrwt>0</asrwt>
<pdfrwt beam="1">  1        2 0.39906278E+00 0.27816155E+04</pdfrwt>
<pdfrwt beam="2">  1       -2 0.11472716E+00 0.27816155E+04</pdfrwt>
<totfact> 0.15854600E+00</totfact>
</mgrwt>
</event>
<event>
 6    1  0.5196787E-004  0.1504438E+04  0.7818608E-02  0.8881507E-01
         -2   -1    0    0    0  501 -0.00000000000E+00  0.00000000000E+00  0.76889564871E+03  0.76889564871E+03  0.00000000000E+00 0. -1.
          2   -1    0    0  501    0  0.00000000000E+00 -0.00000000000E+00 -0.73590409006E+03  0.73590409006E+03  0.00000000000E+00 0.  1.
         23    2    1    2    0    0 -0.13121111602E+03  0.11589706590E+03 -0.71214402352E+03  0.73937467866E+03  0.94219522161E+02 0.  0.
         11    1    3    3    0    0 -0.11208217263E+03  0.38444661226E+02 -0.45190451752E+03  0.46718101241E+03  0.00000000000E+00 0.  1.
        -11    1    3    3    0    0 -0.19128943384E+02  0.77452404670E+02 -0.26023950600E+03  0.27219366625E+03  0.00000000000E+00 0. -1.
         22    1    1    2    0    0  0.13121111602E+03 -0.11589706590E+03  0.74513558216E+03  0.76542506012E+03  0.00000000000E+00 0. -1.
<mgrwt>
<rscale>  0 0.15044380E+04</rscale>
<asrwt>0</asrwt>
<pdfrwt beam="1">  1        2 0.11321601E+00 0.15044380E+04</pdfrwt>
<pdfrwt beam="2">  1       -2 0.11829164E+00 0.15044380E+04</pdfrwt>
<totfact> 0.20424214E+01</totfact>
</mgrwt>
</event>
<event>
 6    1  0.5196787E-004  0.2971830E+04  0.7818608E-02  0.8251821E-01
         -2   -1    0    0    0  501 -0.00000000000E+00  0.00000000000E+00  0.72870814646E+03  0.72870814646E+03  0.00000000000E+00 0. -1.
          2   -1    0    0  501    0  0.00000000000E+00 -0.00000000000E+00 -0.30299425353E+04  0.30299425353E+04  0.00000000000E+00 0.  1.
         23    2    1    2    0    0 -0.17528510699E+02 -0.88819286043E+03 -0.26559301189E+04  0.28020928597E+04  0.92551562075E+02 0.  0.
         11    1    3    3    0    0  0.24986174832E+02 -0.64178320998E+03 -0.19655886175E+04  0.20678608780E+04  0.00000000000E+00 0. -1.
        -11    1    3    3    0    0 -0.42514685531E+02 -0.24640965046E+03 -0.69034150148E+03  0.73423198172E+03  0.00000000000E+00 0.  1.
         22    1    1    2    0    0  0.17528510699E+02  0.88819286043E+03  0.35469573010E+03  0.95655782207E+03  0.00000000000E+00 0. -1.
<mgrwt>
<rscale>  0 0.29718303E+04</rscale>
<asrwt>0</asrwt>
<pdfrwt beam="1">  1        2 0.46614500E+00 0.29718303E+04</pdfrwt>
<pdfrwt beam="2">  1       -2 0.11210895E+00 0.29718303E+04</pdfrwt>
<totfact> 0.89696542E-01</totfact>
</mgrwt>
</event>
<event>
 6    1  0.5196787E-004  0.1248127E+04  0.7818608E-02  0.9071743E-01
         -2   -1    0    0    0  501 -0.00000000000E+00  0.00000000000E+00  0.21935198445E+03  0.21935198445E+03  0.00000000000E+00 0. -1.
          2   -1    0    0  501    0  0.00000000000E+00 -0.00000000000E+00 -0.17754816875E+04  0.17754816875E+04  0.00000000000E+00 0.  1.
         23    2    1    2    0    0  0.47120112377E+03 -0.27927655148E+02 -0.14263923320E+04  0.15053009985E+04  0.92333948977E+02 0.  0.
         13    1    3    3    0    0  0.39557725629E+03 -0.25612313952E+02 -0.12874437024E+04  0.13470889515E+04  0.00000000000E+00 0.  1.
        -13    1    3    3    0    0  0.75623867472E+02 -0.23153411960E+01 -0.13894862960E+03  0.15821204696E+03  0.00000000000E+00 0. -1.
         22    1    1    2    0    0 -0.47120112377E+03  0.27927655148E+02 -0.12973737100E+03  0.48953267347E+03  0.00000000000E+00 0. -1.
<mgrwt>
<rscale>  0 0.12481273E+04</rscale>
<asrwt>0</asrwt>
<pdfrwt beam="1">  1        2 0.27315104E+00 0.12481273E+04</pdfrwt>
<pdfrwt beam="2">  1       -2 0.33746458E-01 0.12481273E+04</pdfrwt>
<totfact> 0.71935861E+01</totfact>
</mgrwt>
</event>
<event>
 6    1  0.5196787E-004  0.2616355E+04  0.7818608E-02  0.8362667E-01
         -2   -1    0    0    0  501 -0.00000000000E+00  0.00000000000E+00  0.62734668814E+03  0.62734668814E+03  0.00000000000E+00 0. -1.
          2   -1    0    0  501    0  0.00000000000E+00 -0.00000000000E+00 -0.27278823820E+04  0.27278823820E+04  0.00000000000E+00 0.  1.
         23    2    1    2    0    0  0.32374334349E+03 -0.86455848768E+03 -0.22373127512E+04  0.24219664626E+04  0.89900324337E+02 0.  0.
         13    1    3    3    0    0  0.19624893658E+03 -0.49235644127E+03 -0.11702697436E+04  0.12847022157E+04  0.00000000000E+00 0.  1.
        -13    1    3    3    0    0  0.12749440691E+03 -0.37220204641E+03 -0.10670430076E+04  0.11372642469E+04  0.00000000000E+00 0. -1.
         22    1    1    2    0    0 -0.32374334349E+03  0.86455848768E+03  0.13677705738E+03  0.93326260747E+03  0.00000000000E+00 0. -1.
<mgrwt>
<rscale>  0 0.26163547E+04</rscale>
<asrwt>0</asrwt>
<pdfrwt beam="1">  1        2 0.41967421E+00 0.26163547E+04</pdfrwt>
<pdfrwt beam="2">  1       -2 0.96514875E-01 0.26163547E+04</pdfrwt>
<totfact> 0.20269676E+00</totfact>
</mgrwt>
</event>
<event>
 6    1  0.5196787E-004  0.4159914E+04  0.7818608E-02  0.7973042E-01
         -2   -1    0    0    0  501 -0.00000000000E+00  0.00000000000E+00  0.14043789016E+04  0.14043789016E+04  0.00000000000E+00 0. -1.
          2   -1    0    0  501    0  0.00000000000E+00 -0.00000000000E+00 -0.30805225461E+04  0.30805225461E+04  0.00000000000E+00 0.  1.
         23    2    1    2    0    0 -0.19020862073E+04  0.60314275413E+03 -0.20973625584E+03  0.20086010314E+04  0.93678622748E+02 0.  0.
         13    1    3    3    0    0 -0.12213119364E+04  0.34077240620E+03 -0.12474597583E+03  0.12740840778E+04  0.00000000000E+00 0. -1.
        -13    1    3    3    0    0 -0.68077427098E+03  0.26237034793E+03 -0.84990280011E+02  0.73451695365E+03  0.00000000000E+00 0.  1.
         22    1    1    2    0    0  0.19020862073E+04 -0.60314275413E+03 -0.14664073887E+04  0.24763004163E+04  0.00000000000E+00 0. -1.
<mgrwt>
<rscale>  0 0.41599139E+04</rscale>
<asrwt>0</asrwt>
<pdfrwt beam="1">  1        2 0.47392654E+00 0.41599139E+04</pdfrwt>
<pdfrwt beam="2">  1       -2 0.21605829E+00 0.41599139E+04</pdfrwt>
<totfact> 0.12618493E-01</totfact>
</mgrwt>
</event>
<event>
 6    1  0.5312188E-004  0.3794061E+04  0.7818608E-02  0.8047431E-01
          2   -1    0    0  501    0  0.00000000000E+00  0.00000000000E+00  0.24694866524E+04  0.24694866524E+04  0.00000000000E+00 0.  1.
         -2   -1    0    0    0  501 -0.00000000000E+00 -0.00000000000E+00 -0.14572765593E+04  0.14572765593E+04  0.00000000000E+00 0. -1.
         23    2    1    2    0    0  0.11700180488E+04 -0.13571042958E+04  0.11477704865E+04  0.21298071954E+04  0.89595177286E+02 0.  0.
         11    1    3    3    0    0  0.44271028143E+03 -0.52141446892E+03  0.48978037004E+03  0.84127893862E+03  0.00000000000E+00 0. -1.
        -11    1    3    3    0    0  0.72730776734E+03 -0.83568982690E+03  0.65799011646E+03  0.12885282568E+04  0.00000000000E+00 0.  1.
         22    1    1    2    0    0 -0.11700180488E+04  0.13571042958E+04 -0.13556039349E+03  0.17969560163E+04  0.00000000000E+00 0. -1.
<mgrwt>
<rscale>  0 0.37940612E+04</rscale>
<asrwt>0</asrwt>
<pdfrwt beam="1">  1        2 0.37992102E+00 0.37940612E+04</pdfrwt>
<pdfrwt beam="2">  1       -2 0.22419639E+00 0.37940612E+04</pdfrwt>
<totfact> 0.27043154E-01</totfact>
</mgrwt>
</event>
<event>
 6    1  0.5196787E-004  0.6400333E+04  0.7818608E-02  0.7642654E-01
         -2   -1    0    0    0  501 -0.00000000000E+00  0.00000000000E+00  0.43351114189E+04  0.43351114189E+04  0.00000000000E+00 0. -1.
          2   -1    0    0  501    0  0.00000000000E+00 -0.00000000000E+00 -0.23623535197E+04  0.23623535197E+04  0.00000000000E+00 0.  1.
         23    2    1    2    0    0  0.20626388103E+04 -0.13238910609E+04  0.31386784838E+04  0.39833283886E+04  0.91847831055E+02 0.  0.
         13    1    3    3    0    0  0.55535364350E+03 -0.38746775536E+03  0.81602041628E+03  0.10603953275E+04  0.00000000000E+00 0.  1.
        -13    1    3    3    0    0  0.15072851668E+04 -0.93642330550E+03  0.23226580675E+04  0.29229330611E+04  0.00000000000E+00 0. -1.
         22    1    1    2    0    0 -0.20626388103E+04  0.13238910609E+04 -0.11659205846E+04  0.27141365500E+04  0.00000000000E+00 0.  1.
<mgrwt>
<rscale>  0 0.64003330E+04</rscale>
<asrwt>0</asrwt>
<pdfrwt beam="1">  1        2 0.36343901E+00 0.64003330E+04</pdfrwt>
<pdfrwt beam="2">  1       -2 0.66694021E+00 0.64003330E+04</pdfrwt>
<totfact> 0.82410929E-04</totfact>
</mgrwt>
</event>
<event>
 6    1  0.5196787E-004  0.5327897E+04  0.7818608E-02  0.7779825E-01
          2   -1    0    0  501    0  0.00000000000E+00  0.00000000000E+00  0.18295254729E+04  0.18295254729E+04  0.00000000000E+00 0.  1.
         -2   -1    0    0    0  501 -0.00000000000E+00 -0.00000000000E+00 -0.38789409830E+04  0.38789409830E+04  0.00000000000E+00 0. -1.
         23    2    1    2    0    0  0.16565223800E+04 -0.20493775288E+04 -0.14377994763E+04  0.30032698228E+04  0.91365438390E+02 0.  0.
         13    1    3    3    0    0  0.83402205948E+03 -0.10937146934E+04 -0.72296131717E+03  0.15538589680E+04  0.00000000000E+00 0. -1.
        -13    1    3    3    0    0  0.82250032057E+03 -0.95566283536E+03 -0.71483815918E+03  0.14494108548E+04  0.00000000000E+00 0.  1.
         22    1    1    2    0    0 -0.16565223800E+04  0.20493775288E+04 -0.61161603377E+03  0.27051966331E+04  0.00000000000E+00 0.  1.
<mgrwt>
<rscale>  0 0.53278969E+04</rscale>
<asrwt>0</asrwt>
<pdfrwt beam="1">  1        2 0.28146546E+00 0.53278969E+04</pdfrwt>
<pdfrwt beam="2">  1       -2 0.59676014E+00 0.53278969E+04</pdfrwt>
<totfact> 0.31261788E-03</totfact>
</mgrwt>
</event>
<event>
 6    1  0.5196787E-004  0.2978430E+04  0.7818608E-02  0.8249917E-01
         -2   -1    0    0    0  501 -0.00000000000E+00  0.00000000000E+00  0.23527315485E+04  0.23527315485E+04  0.00000000000E+00 0. -1.
          2   -1    0    0  501    0  0.00000000000E+00 -0.00000000000E+00 -0.94263251000E+03  0.94263251000E+03  0.00000000000E+00 0.  1.
         23    2    1    2    0    0  0.10841056690E+03  0.51565516538E+03  0.22451248510E+04  0.23079830742E+04  0.92450925654E+02 0.  0.
         11    1    3    3    0    0 -0.94548868188E+01  0.15753346446E+03  0.63857103159E+03  0.65778351279E+03  0.00000000000E+00 0. -1.
        -11    1    3    3    0    0  0.11786545372E+03  0.35812170092E+03  0.16065538194E+04  0.16501995614E+04  0.00000000000E+00 0.  1.
         22    1    1    2    0    0 -0.10841056690E+03 -0.51565516538E+03 -0.83502581250E+03  0.98738098429E+03  0.00000000000E+00 0.  1.
<mgrwt>
<rscale>  0 0.29784300E+04</rscale>
<asrwt>0</asrwt>
<pdfrwt beam="1">  1        2 0.14502039E+00 0.29784300E+04</pdfrwt>
<pdfrwt beam="2">  1       -2 0.36195870E+00 0.29784300E+04</pdfrwt>
<totfact> 0.30756030E-01</totfact>
</mgrwt>
</event>
<event>
 6    1  0.5196787E-004  0.1279602E+04  0.7818608E-02  0.9045899E-01
         -2   -1    0    0    0  501 -0.00000000000E+00  0.00000000000E+00  0.95253815987E+02  0.95253815987E+02  0.00000000000E+00 0. -1.
          2   -1    0    0  501    0  0.00000000000E+00 -0.00000000000E+00 -0.42974141197E+04  0.42974141197E+04  0.00000000000E+00 0.  1.
         23    2    1    2    0    0  0.25271962538E+03 -0.58209161104E+03 -0.19388029295E+04  0.20420330308E+04  0.90797834328E+02 0.  0.
         11    1    3    3    0    0  0.13734270765E+03 -0.21564347814E+03 -0.83657848076E+03  0.87477350410E+03  0.00000000000E+00 0. -1.
        -11    1    3    3    0    0  0.11537691773E+03 -0.36644813291E+03 -0.11022244488E+04  0.11672595267E+04  0.00000000000E+00 0.  1.
         22    1    1    2    0    0 -0.25271962538E+03  0.58209161104E+03 -0.22633573742E+04  0.23506349049E+04  0.00000000000E+00 0.  1.
<mgrwt>
<rscale>  0 0.12796016E+04</rscale>
<asrwt>0</asrwt>
<pdfrwt beam="1">  1        2 0.66114049E+00 0.12796016E+04</pdfrwt>
<pdfrwt beam="2">  1       -2 0.14654436E-01 0.12796016E+04</pdfrwt>
<totfact> 0.71431486E+00</totfact>
</mgrwt>
</event>
<event>
 6    1  0.5196787E-004  0.3327798E+04  0.7818608E-02  0.8155858E-01
         -2   -1    0    0    0  501 -0.00000000000E+00  0.00000000000E+00  0.10150096157E+04  0.10150096157E+04  0.00000000000E+00 0. -1.
          2   -1    0    0  501    0  0.00000000000E+00 -0.00000000000E+00 -0.27276197181E+04  0.27276197181E+04  0.00000000000E+00 0.  1.
         23    2    1    2    0    0  0.96651903993E+03  0.70239619655E+03 -0.21572902684E+04  0.24677725099E+04  0.92089016055E+02 0.  0.
         11    1    3    3    0    0  0.77763983021E+03  0.58434768858E+03 -0.16854653294E+04  0.19460162649E+04  0.00000000000E+00 0. -1.
        -11    1    3    3    0    0  0.18887920971E+03  0.11804850797E+03 -0.47182493897E+03  0.52175624494E+03  0.00000000000E+00 0.  1.
         22    1    1    2    0    0 -0.96651903993E+03 -0.70239619655E+03  0.44468016603E+03  0.12748568239E+04  0.00000000000E+00 0. -1.
<mgrwt>
<rscale>  0 0.33277982E+04</rscale>
<asrwt>0</asrwt>
<pdfrwt beam="1">  1        2 0.41963380E+00 0.33277982E+04</pdfrwt>
<pdfrwt beam="2">  1       -2 0.15615533E+00 0.33277982E+04</pdfrwt>
<totfact> 0.57302670E-01</totfact>
</mgrwt>
</event>
<event>
 6    1  0.5196787E-004  0.9833149E+03  0.7818608E-02  0.9327036E-01
          2   -1    0    0  501    0  0.00000000000E+00  0.00000000000E+00  0.23248722094E+04  0.23248722094E+04  0.00000000000E+00 0.  1.
         -2   -1    0    0    0  501 -0.00000000000E+00 -0.00000000000E+00 -0.10397433865E+03  0.10397433865E+03  0.00000000000E+00 0. -1.
         23    2    1    2    0    0 -0.37333057200E+03  0.27416364638E+03  0.14956912126E+04  0.15683431384E+04  0.89814115509E+02 0.  0.
         13    1    3    3    0    0 -0.23926675599E+03  0.12432660342E+03  0.90961994824E+03  0.94874345061E+03  0.00000000000E+00 0. -1.
        -13    1    3    3    0    0 -0.13406381601E+03  0.14983704296E+03  0.58607126436E+03  0.61959968780E+03  0.00000000000E+00 0.  1.
         22    1    1    2    0    0  0.37333057200E+03 -0.27416364638E+03  0.72520665817E+03  0.86050340966E+03  0.00000000000E+00 0. -1.
<mgrwt>
<rscale>  0 0.98331490E+03</rscale>
<asrwt>0</asrwt>
<pdfrwt beam="1">  1        2 0.35767261E+00 0.98331490E+03</pdfrwt>
<pdfrwt beam="2">  1       -2 0.15996054E-01 0.98331490E+03</pdfrwt>
<totfact> 0.13934689E+02</totfact>
</mgrwt>
</event>
<event>
 6    1  0.5196787E-004  0.4103100E+04  0.7818608E-02  0.7984065E-01
         -2   -1    0    0    0  501 -0.00000000000E+00  0.00000000000E+00  0.18167929763E+04  0.18167929763E+04  0.00000000000E+00 0. -1.
          2   -1    0    0  501    0  0.00000000000E+00 -0.00000000000E+00 -0.23166408669E+04  0.23166408669E+04  0.00000000000E+00 0.  1.
         23    2    1    2    0    0 -0.16304365720E+04  0.40340428859E+03 -0.14350287006E+04  0.22110338893E+04  0.91132061865E+02 0.  0.
         13    1    3    3    0    0 -0.37588418223E+03  0.12349565397E+03 -0.37088804961E+03  0.54230806774E+03  0.00000000000E+00 0.  1.
        -13    1    3    3    0    0 -0.12545523898E+04  0.27990863462E+03 -0.10641406510E+04  0.16687258215E+04  0.00000000000E+00 0. -1.
         22    1    1    2    0    0  0.16304365720E+04 -0.40340428859E+03  0.93518080995E+03  0.19223999539E+04  0.00000000000E+00 0. -1.
<mgrwt>
<rscale>  0 0.41030997E+04</rscale>
<asrwt>0</asrwt>
<pdfrwt beam="1">  1        2 0.35640629E+00 0.41030997E+04</pdfrwt>
<pdfrwt beam="2">  1       -2 0.27950661E+00 0.41030997E+04</pdfrwt>
<totfact> 0.14717575E-01</totfact>
</mgrwt>
</event>
<event>
 6    1  0.5196787E-004  0.2824262E+04  0.7818608E-02  0.8295775E-01
          2   -1    0    0  501    0  0.00000000000E+00  0.00000000000E+00  0.29921202835E+04  0.29921202835E+04  0.00000000000E+00 0.  1.
         -2   -1    0    0    0  501 -0.00000000000E+00 -0.00000000000E+00 -0.66645506458E+03  0.66645506458E+03  0.00000000000E+00 0. -1.
         23    2    1    2    0    0 -0.68474920261E+03  0.24514464356E+03 -0.40184718922E+03  0.83575737604E+03  0.89620652629E+02 0.  0.
         11    1    3    3    0    0 -0.63373917079E+03  0.25059624580E+03 -0.37204663377E+03  0.77642933529E+03  0.00000000000E+00 0.  1.
        -11    1    3    3    0    0 -0.51010031820E+02 -0.54516022483E+01 -0.29800555458E+02  0.59328040748E+02  0.00000000000E+00 0. -1.
         22    1    1    2    0    0  0.68474920261E+03 -0.24514464356E+03  0.27275124081E+04  0.28228179720E+04  0.00000000000E+00 0.  1.
<mgrwt>
<rscale>  0 0.28242618E+04</rscale>
<asrwt>0</asrwt>
<pdfrwt beam="1">  1        2 0.46032619E+00 0.28242618E+04</pdfrwt>
<pdfrwt beam="2">  1       -2 0.10253155E+00 0.28242618E+04</pdfrwt>
<totfact> 0.11896559E+00</totfact>
</mgrwt>
</event>
<event>
 6    1  0.5196787E-004  0.4686023E+03  0.7818608E-02  0.1022315E+00
          2   -1    0    0  501    0  0.00000000000E+00  0.00000000000E+00  0.36895033052E+03  0.36895033052E+03  0.00000000000E+00 0.  1.
         -2   -1    0    0    0  501 -0.00000000000E+00 -0.00000000000E+00 -0.14879246053E+03  0.14879246053E+03  0.00000000000E+00 0. -1.
         23    2    1    2    0    0  0.37830872462E+02  0.56445195623E+02  0.35179511381E+03  0.36960232062E+03  0.90712944436E+02 0.  0.
         11    1    3    3    0    0  0.78075101033E+01  0.70100182506E+02  0.15811519851E+03  0.17313407753E+03  0.00000000000E+00 0.  1.
        -11    1    3    3    0    0  0.30023362358E+02 -0.13654986883E+02  0.19367991530E+03  0.19646824309E+03  0.00000000000E+00 0. -1.
         22    1    1    2    0    0 -0.37830872462E+02 -0.56445195623E+02 -0.13163724382E+03  0.14814047043E+03  0.00000000000E+00 0. -1.
<mgrwt>
<rscale>  0 0.46860229E+03</rscale>
<asrwt>0</asrwt>
<pdfrwt beam="1">  1        2 0.56761589E-01 0.46860229E+03</pdfrwt>
<pdfrwt beam="2">  1       -2 0.22891148E-01 0.46860229E+03</pdfrwt>
<totfact> 0.14587342E+03</totfact>
</mgrwt>
</event>
<event>
 6    1  0.5196787E-004  0.2496778E+04  0.7818608E-02  0.8404134E-01
         -2   -1    0    0    0  501 -0.00000000000E+00  0.00000000000E+00  0.21163522007E+04  0.21163522007E+04  0.00000000000E+00 0. -1.
          2   -1    0    0  501    0  0.00000000000E+00 -0.00000000000E+00 -0.73639697243E+03  0.73639697243E+03  0.00000000000E+00 0.  1.
         23    2    1    2    0    0  0.28827384749E+03  0.31998659342E+03 -0.64585760018E+03  0.78165988317E+03  0.91470771985E+02 0.  0.
         11    1    3    3    0    0  0.19127012771E+02  0.49447503159E+02 -0.43441655113E+02  0.68542509329E+02  0.00000000000E+00 0. -1.
        -11    1    3    3    0    0  0.26914683472E+03  0.27053909026E+03 -0.60241594507E+03  0.71311737384E+03  0.00000000000E+00 0.  1.
         22    1    1    2    0    0 -0.28827384749E+03 -0.31998659342E+03  0.20258128284E+04  0.20710892900E+04  0.00000000000E+00 0. -1.
<mgrwt>
<rscale>  0 0.24967782E+04</rscale>
<asrwt>0</asrwt>
<pdfrwt beam="1">  1        2 0.11329184E+00 0.24967782E+04</pdfrwt>
<pdfrwt beam="2">  1       -2 0.32559264E+00 0.24967782E+04</pdfrwt>
<totfact> 0.75767288E-01</totfact>
</mgrwt>
</event>
<event>
 6    1  0.5196787E-004  0.3157919E+04  0.7818608E-02  0.8200020E-01
         -2   -1    0    0    0  501 -0.00000000000E+00  0.00000000000E+00  0.17265269005E+04  0.17265269005E+04  0.00000000000E+00 0. -1.
          2   -1    0    0  501    0  0.00000000000E+00 -0.00000000000E+00 -0.14440051703E+04  0.14440051703E+04  0.00000000000E+00 0.  1.
         23    2    1    2    0    0 -0.90569795130E+03  0.48031528886E+03 -0.10625727946E+04  0.14792985457E+04  0.90948819882E+02 0.  0.
         13    1    3    3    0    0 -0.39858488502E+03  0.17769645440E+03 -0.40345005576E+03  0.59432136759E+03  0.00000000000E+00 0. -1.
        -13    1    3    3    0    0 -0.50711306627E+03  0.30261883446E+03 -0.65912273888E+03  0.88497717816E+03  0.00000000000E+00 0.  1.
         22    1    1    2    0    0  0.90569795130E+03 -0.48031528886E+03  0.13450945248E+04  0.16912335251E+04  0.00000000000E+00 0. -1.
<mgrwt>
<rscale>  0 0.31579194E+04</rscale>
<asrwt>0</asrwt>
<pdfrwt beam="1">  1        2 0.22215464E+00 0.31579194E+04</pdfrwt>
<pdfrwt beam="2">  1       -2 0.26561952E+00 0.31579194E+04</pdfrwt>
<totfact> 0.59486342E-01</totfact>
</mgrwt>
</event>
<event>
 6    1  0.5196787E-004  0.1101830E+04  0.7818608E-02  0.9203410E-01
          2   -1    0    0  501    0  0.00000000000E+00  0.00000000000E+00  0.15716784930E+04  0.15716784930E+04  0.00000000000E+00 0.  1.
         -2   -1    0    0    0  501 -0.00000000000E+00 -0.00000000000E+00 -0.19311036442E+03  0.19311036442E+03  0.00000000000E+00 0. -1.
         23    2    1    2    0    0 -0.13240760234E+03 -0.43574903761E+03  0.11807393723E+04  0.12682556624E+04  0.83174292542E+02 0.  0.
         11    1    3    3    0    0  0.42113535365E-01 -0.40835453636E+02  0.59665320299E+02  0.72301358865E+02  0.00000000000E+00 0.  1.
        -11    1    3    3    0    0 -0.13244971587E+03 -0.39491358397E+03  0.11210740520E+04  0.11959543035E+04  0.00000000000E+00 0. -1.
         22    1    1    2    0    0  0.13240760234E+03  0.43574903761E+03  0.19782875622E+03  0.49653319498E+03  0.00000000000E+00 0.  1.
<mgrwt>
<rscale>  0 0.11018301E+04</rscale>
<asrwt>0</asrwt>
<pdfrwt beam="1">  1        2 0.24179668E+00 0.11018301E+04</pdfrwt>
<pdfrwt beam="2">  1       -2 0.29709288E-01 0.11018301E+04</pdfrwt>
<totfact> 0.11984808E+02</totfact>
</mgrwt>
</event>
<event>
 6    1  0.5196787E-004  0.4680968E+04  0.7818608E-02  0.7879699E-01
          2   -1    0    0  501    0  0.00000000000E+00  0.00000000000E+00  0.19633624439E+04  0.19633624439E+04  0.00000000000E+00 0.  1.
         -2   -1    0    0    0  501 -0.00000000000E+00 -0.00000000000E+00 -0.27900427320E+04  0.27900427320E+04  0.00000000000E+00 0. -1.
         23    2    1    2    0    0 -0.24772676407E+03  0.11034894133E+04 -0.24932868937E+04  0.27392961886E+04  0.90590506246E+02 0.  0.
         11    1    3    3    0    0 -0.26534241246E+02  0.83424676418E+02 -0.25485060684E+03  0.26946720469E+03  0.00000000000E+00 0. -1.
        -11    1    3    3    0    0 -0.22119252282E+03  0.10200647369E+04 -0.22384362868E+04  0.24698289839E+04  0.00000000000E+00 0.  1.
         22    1    1    2    0    0  0.24772676407E+03 -0.11034894133E+04  0.16666066055E+04  0.20141089872E+04  0.00000000000E+00 0.  1.
<mgrwt>
<rscale>  0 0.46809679E+04</rscale>
<asrwt>0</asrwt>
<pdfrwt beam="1">  1        2 0.30205576E+00 0.46809679E+04</pdfrwt>
<pdfrwt beam="2">  1       -2 0.42923734E+00 0.46809679E+04</pdfrwt>
<totfact> 0.24932673E-02</totfact>
</mgrwt>
</event>
<event>
 6    1  0.5196787E-004  0.2671256E+04  0.7818608E-02  0.8344392E-01
         -2   -1    0    0    0  501 -0.00000000000E+00  0.00000000000E+00  0.15288929408E+04  0.15288929408E+04  0.00000000000E+00 0. -1.
          2   -1    0    0  501    0  0.00000000000E+00 -0.00000000000E+00 -0.11667937371E+04  0.11667937371E+04  0.00000000000E+00 0.  1.
         23    2    1    2    0    0 -0.87666243842E+03  0.35280323069E+03 -0.76896215279E+03  0.12218118723E+04  0.92273010397E+02 0.  0.
         13    1    3    3    0    0 -0.33419736920E+03  0.17952724807E+03 -0.28536932002E+03  0.47471419105E+03  0.00000000000E+00 0.  1.
        -13    1    3    3    0    0 -0.54246506922E+03  0.17327598262E+03 -0.48359283276E+03  0.74709768128E+03  0.00000000000E+00 0. -1.
         22    1    1    2    0    0  0.87666243842E+03 -0.35280323069E+03  0.11310613564E+04  0.14738748056E+04  0.00000000000E+00 0. -1.
<mgrwt>
<rscale>  0 0.26712564E+04</rscale>
<asrwt>0</asrwt>
<pdfrwt beam="1">  1        2 0.17950673E+00 0.26712564E+04</pdfrwt>
<pdfrwt beam="2">  1       -2 0.23521430E+00 0.26712564E+04</pdfrwt>
<totfact> 0.13833179E+00</totfact>
</mgrwt>
</event>
<event>
 6    1  0.5196787E-004  0.5890429E+04  0.7818608E-02  0.7704138E-01
          2   -1    0    0  501    0  0.00000000000E+00  0.00000000000E+00  0.26812003017E+04  0.26812003017E+04  0.00000000000E+00 0.  1.
         -2   -1    0    0    0  501 -0.00000000000E+00 -0.00000000000E+00 -0.32352255061E+04  0.32352255061E+04  0.00000000000E+00 0. -1.
         23    2    1    2    0    0 -0.23877905149E+04 -0.20881216673E+03 -0.19948834266E+04  0.31197816616E+04  0.91277961242E+02 0.  0.
         13    1    3    3    0    0 -0.14187670286E+04 -0.16681822832E+03 -0.11700542957E+04  0.18465522624E+04  0.00000000000E+00 0. -1.
        -13    1    3    3    0    0 -0.96902348629E+03 -0.41993938412E+02 -0.82482913091E+03  0.12732293992E+04  0.00000000000E+00 0.  1.
         22    1    1    2    0    0  0.23877905149E+04  0.20881216673E+03  0.14408582222E+04  0.27966441462E+04  0.00000000000E+00 0.  1.
<mgrwt>
<rscale>  0 0.58904287E+04</rscale>
<asrwt>0</asrwt>
<pdfrwt beam="1">  1        2 0.41249235E+00 0.58904287E+04</pdfrwt>
<pdfrwt beam="2">  1       -2 0.49772700E+00 0.58904287E+04</pdfrwt>
<totfact> 0.31857996E-03</totfact>
</mgrwt>
</event>
<event>
 6    1  0.5196787E-004  0.1586440E+04  0.7818608E-02  0.8828922E-01
         -2   -1    0    0    0  501 -0.00000000000E+00  0.00000000000E+00  0.32880434229E+03  0.32880434229E+03  0.00000000000E+00 0. -1.
          2   -1    0    0  501    0  0.00000000000E+00 -0.00000000000E+00 -0.19135936719E+04  0.19135936719E+04  0.00000000000E+00 0.  1.
         23    2    1    2    0    0  0.46414020837E+03  0.58355411083E+03 -0.11663440884E+04  0.13873787435E+04  0.92193884114E+02 0.  0.
         11    1    3    3    0    0  0.32505907286E+03  0.33700868072E+03 -0.73004280783E+03  0.86729507839E+03  0.00000000000E+00 0. -1.
        -11    1    3    3    0    0  0.13908113552E+03  0.24654543010E+03 -0.43630128054E+03  0.52008366515E+03  0.00000000000E+00 0.  1.
         22    1    1    2    0    0 -0.46414020837E+03 -0.58355411083E+03 -0.41844524128E+03  0.85501927068E+03  0.00000000000E+00 0. -1.
<mgrwt>
<rscale>  0 0.15864399E+04</rscale>
<asrwt>0</asrwt>
<pdfrwt beam="1">  1        2 0.29439903E+00 0.15864399E+04</pdfrwt>
<pdfrwt beam="2">  1       -2 0.50585283E-01 0.15864399E+04</pdfrwt>
<totfact> 0.26473125E+01</totfact>
</mgrwt>
</event>
<event>
 6    1  0.5196787E-004  0.5708156E+04  0.7818608E-02  0.7727679E-01
         -2   -1    0    0    0  501 -0.00000000000E+00  0.00000000000E+00  0.20811385543E+04  0.20811385543E+04  0.00000000000E+00 0. -1.
          2   -1    0    0  501    0  0.00000000000E+00 -0.00000000000E+00 -0.39140883606E+04  0.39140883606E+04  0.00000000000E+00 0.  1.
         23    2    1    2    0    0  0.36872893082E+03 -0.12641266676E+04 -0.35753269179E+04  0.38112270853E+04  0.92260878197E+02 0.  0.
         13    1    3    3    0    0  0.19022897558E+03 -0.80601566000E+03 -0.22099723892E+04  0.23600479377E+04  0.00000000000E+00 0. -1.
        -13    1    3    3    0    0  0.17849995524E+03 -0.45811100762E+03 -0.13653545287E+04  0.14511791476E+04  0.00000000000E+00 0.  1.
         22    1    1    2    0    0 -0.36872893082E+03  0.12641266676E+04  0.17423771117E+04  0.21839998296E+04  0.00000000000E+00 0. -1.
<mgrwt>
<rscale>  0 0.57081556E+04</rscale>
<asrwt>0</asrwt>
<pdfrwt beam="1">  1        2 0.60216743E+00 0.57081556E+04</pdfrwt>
<pdfrwt beam="2">  1       -2 0.32017517E+00 0.57081556E+04</pdfrwt>
<totfact> 0.65589289E-03</totfact>
</mgrwt>
</event>
<event>
 6    1  0.5196787E-004  0.5147281E+04  0.7818608E-02  0.7806181E-01
         -2   -1    0    0    0  501 -0.00000000000E+00  0.00000000000E+00  0.12989671710E+04  0.12989671710E+04  0.00000000000E+00 0. -1.
          2   -1    0    0  501    0  0.00000000000E+00 -0.00000000000E+00 -0.50991476384E+04  0.50991476384E+04  0.00000000000E+00 0.  1.
         23    2    1    2    0    0 -0.25412224645E+04 -0.28235634827E+03 -0.15439721367E+04  0.29881276021E+04  0.86717276828E+02 0.  0.
         11    1    3    3    0    0 -0.21493427478E+03 -0.40417923826E+02 -0.15325632805E+03  0.26705402661E+03  0.00000000000E+00 0. -1.
        -11    1    3    3    0    0 -0.23262881898E+04 -0.24193842444E+03 -0.13907158086E+04  0.27210735755E+04  0.00000000000E+00 0.  1.
         22    1    1    2    0    0  0.25412224645E+04  0.28235634827E+03 -0.22562083307E+04  0.34099872072E+04  0.00000000000E+00 0.  1.
<mgrwt>
<rscale>  0 0.51472810E+04</rscale>
<asrwt>0</asrwt>
<pdfrwt beam="1">  1        2 0.78448426E+00 0.51472810E+04</pdfrwt>
<pdfrwt beam="2">  1       -2 0.19984110E+00 0.51472810E+04</pdfrwt>
<totfact> 0.23965966E-03</totfact>
</mgrwt>
</event>
<event>
 6    1  0.5196787E-004  0.4435434E+03  0.7818608E-02  0.1029665E+00
          4   -1    0    0  501    0  0.00000000000E+00  0.00000000000E+00  0.74536622071E+02  0.74536622071E+02  0.00000000000E+00 0.  1.
         -4   -1    0    0    0  501 -0.00000000000E+00 -0.00000000000E+00 -0.65984578523E+03  0.65984578523E+03  0.00000000000E+00 0. -1.
         23    2    1    2    0    0  0.14860669727E+03  0.15038281250E+03 -0.31629120615E+03  0.39222805330E+03  0.95413719878E+02 0.  0.
         13    1    3    3    0    0  0.57154542262E+02  0.46153633489E+02 -0.41352751153E+02  0.84302132911E+02  0.00000000000E+00 0.  1.
        -13    1    3    3    0    0  0.91452155009E+02  0.10422917901E+03 -0.27493845500E+03  0.30792592039E+03  0.00000000000E+00 0. -1.
         22    1    1    2    0    0 -0.14860669727E+03 -0.15038281250E+03 -0.26901795701E+03  0.34215435400E+03  0.00000000000E+00 0.  1.
<mgrwt>
<rscale>  0 0.44354335E+03</rscale>
<asrwt>0</asrwt>
<pdfrwt beam="1">  1        4 0.11467173E-01 0.44354335E+03</pdfrwt>
<pdfrwt beam="2">  1       -4 0.10151473E+00 0.44354335E+03</pdfrwt>
<totfact> 0.96233047E+01</totfact>
</mgrwt>
</event>
<event>
 6    1  0.5196787E-004  0.7724929E+03  0.7818608E-02  0.9600709E-01
         -2   -1    0    0    0  501 -0.00000000000E+00  0.00000000000E+00  0.10258841983E+03  0.10258841983E+03  0.00000000000E+00 0. -1.
          2   -1    0    0  501    0  0.00000000000E+00 -0.00000000000E+00 -0.14542219142E+04  0.14542219142E+04  0.00000000000E+00 0.  1.
         23    2    1    2    0    0  0.33745000990E+02  0.80375430308E+02 -0.14323451122E+04  0.14380109227E+04  0.93080386061E+02 0.  0.
         11    1    3    3    0    0 -0.24444573623E+02  0.29717941117E+02 -0.80821138418E+03  0.80912689655E+03  0.00000000000E+00 0. -1.
        -11    1    3    3    0    0  0.58189574614E+02  0.50657489191E+02 -0.62413372806E+03  0.62888402612E+03  0.00000000000E+00 0.  1.
         22    1    1    2    0    0 -0.33745000990E+02 -0.80375430308E+02  0.80711617852E+02  0.11879941138E+03  0.00000000000E+00 0. -1.
<mgrwt>
<rscale>  0 0.77249292E+03</rscale>
<asrwt>0</asrwt>
<pdfrwt beam="1">  1        2 0.22372645E+00 0.77249292E+03</pdfrwt>
<pdfrwt beam="2">  1       -2 0.15782834E-01 0.77249292E+03</pdfrwt>
<totfact> 0.43756689E+02</totfact>
</mgrwt>
</event>
<event>
 6    1  0.5196787E-004  0.1578934E+04  0.7818608E-02  0.8833595E-01
         -2   -1    0    0    0  501 -0.00000000000E+00  0.00000000000E+00  0.41731897496E+03  0.41731897496E+03  0.00000000000E+00 0. -1.
          2   -1    0    0  501    0  0.00000000000E+00 -0.00000000000E+00 -0.14934808654E+04  0.14934808654E+04  0.00000000000E+00 0.  1.
         23    2    1    2    0    0 -0.34800449612E+03 -0.55293886733E+02  0.31150503836E+03  0.47909314955E+03  0.91270552727E+02 0.  0.
         13    1    3    3    0    0 -0.18803446892E+03 -0.17626982042E+02  0.10815703670E+03  0.21763643212E+03  0.00000000000E+00 0.  1.
        -13    1    3    3    0    0 -0.15997002720E+03 -0.37666904691E+02  0.20334800166E+03  0.26145671743E+03  0.00000000000E+00 0. -1.
         22    1    1    2    0    0  0.34800449612E+03  0.55293886733E+02 -0.13876669288E+04  0.14317066908E+04  0.00000000000E+00 0.  1.
<mgrwt>
<rscale>  0 0.15789337E+04</rscale>
<asrwt>0</asrwt>
<pdfrwt beam="1">  1        2 0.22976629E+00 0.15789337E+04</pdfrwt>
<pdfrwt beam="2">  1       -2 0.64202919E-01 0.15789337E+04</pdfrwt>
<totfact> 0.27562739E+01</totfact>
</mgrwt>
</event>
<event>
 6    1  0.5196787E-004  0.1923358E+04  0.7818608E-02  0.8643316E-01
         -2   -1    0    0    0  501 -0.00000000000E+00  0.00000000000E+00  0.36322590510E+03  0.36322590510E+03  0.00000000000E+00 0. -1.
          2   -1    0    0  501    0  0.00000000000E+00 -0.00000000000E+00 -0.25461463602E+04  0.25461463602E+04  0.00000000000E+00 0.  1.
         23    2    1    2    0    0  0.53977262159E+03  0.74490164374E+03 -0.68034312708E+03  0.11475630905E+04  0.88325161667E+02 0.  0.
         11    1    3    3    0    0  0.13135885321E+03  0.17219159644E+03 -0.20790885751E+03  0.30021856576E+03  0.00000000000E+00 0.  1.
        -11    1    3    3    0    0  0.40841376838E+03  0.57271004730E+03 -0.47243426957E+03  0.84734452470E+03  0.00000000000E+00 0. -1.
         22    1    1    2    0    0 -0.53977262159E+03 -0.74490164374E+03 -0.15025773280E+04  0.17618091748E+04  0.00000000000E+00 0.  1.
<mgrwt>
<rscale>  0 0.19233578E+04</rscale>
<asrwt>0</asrwt>
<pdfrwt beam="1">  1        2 0.39171482E+00 0.19233578E+04</pdfrwt>
<pdfrwt beam="2">  1       -2 0.55880910E-01 0.19233578E+04</pdfrwt>
<totfact> 0.92091057E+00</totfact>
</mgrwt>
</event>
<event>
 6    1  0.5196787E-004  0.2576118E+04  0.7818608E-02  0.8376359E-01
         -1   -1    0    0    0  501 -0.00000000000E+00  0.00000000000E+00  0.77618867250E+03  0.77618867250E+03  0.00000000000E+00 0. -1.
          1   -1    0    0  501    0  0.00000000000E+00 -0.00000000000E+00 -0.21374912674E+04  0.21374912674E+04  0.00000000000E+00 0.  1.
         23    2    1    2    0    0  0.43243903854E+03  0.84208215256E+03  0.30470675385E+03  0.99751370916E+03  0.77984103592E+02 0.  0.
         13    1    3    3    0    0  0.31299707494E+03  0.65909577984E+03  0.20922331254E+03  0.75904466959E+03  0.00000000000E+00 0.  1.
        -13    1    3    3    0    0  0.11944196360E+03  0.18298637272E+03  0.95483441318E+02  0.23846903957E+03  0.00000000000E+00 0. -1.
         22    1    1    2    0    0 -0.43243903854E+03 -0.84208215256E+03 -0.16660093487E+04  0.19161662307E+04  0.00000000000E+00 0.  1.
<mgrwt>
<rscale>  0 0.25761184E+04</rscale>
<asrwt>0</asrwt>
<pdfrwt beam="1">  1        1 0.32884481E+00 0.25761184E+04</pdfrwt>
<pdfrwt beam="2">  1       -1 0.11941364E+00 0.25761184E+04</pdfrwt>
<totfact> 0.13285449E+00</totfact>
</mgrwt>
</event>
<event>
 6    1  0.5196787E-004  0.1820625E+04  0.7818608E-02  0.8695407E-01
          2   -1    0    0  501    0  0.00000000000E+00  0.00000000000E+00  0.56118749171E+03  0.56118749171E+03  0.00000000000E+00 0.  1.
         -2   -1    0    0    0  501 -0.00000000000E+00 -0.00000000000E+00 -0.14766352553E+04  0.14766352553E+04  0.00000000000E+00 0. -1.
         23    2    1    2    0    0 -0.26589039657E+03  0.27461330404E+03 -0.13807319494E+04  0.14356603575E+04  0.92681045016E+02 0.  0.
         11    1    3    3    0    0 -0.28848374145E+02 -0.21255823357E+01 -0.10448878272E+03  0.10841887522E+03  0.00000000000E+00 0.  1.
        -11    1    3    3    0    0 -0.23704202242E+03  0.27673888637E+03 -0.12762431667E+04  0.13272414823E+04  0.00000000000E+00 0. -1.
         22    1    1    2    0    0  0.26589039657E+03 -0.27461330404E+03  0.46528418586E+03  0.60216238952E+03  0.00000000000E+00 0.  1.
<mgrwt>
<rscale>  0 0.18206254E+04</rscale>
<asrwt>0</asrwt>
<pdfrwt beam="1">  1        2 0.86336539E-01 0.18206254E+04</pdfrwt>
<pdfrwt beam="2">  1       -2 0.22717465E+00 0.18206254E+04</pdfrwt>
<totfact> 0.45089463E+00</totfact>
</mgrwt>
</event>
<event>
 6    1  0.5490593E-004  0.3162840E+04  0.7818608E-02  0.8198701E-01
          2   -1    0    0  501    0  0.00000000000E+00  0.00000000000E+00  0.17290587345E+04  0.17290587345E+04  0.00000000000E+00 0.  1.
         -2   -1    0    0    0  501 -0.00000000000E+00 -0.00000000000E+00 -0.14463877475E+04  0.14463877475E+04  0.00000000000E+00 0. -1.
         23    2    1    2    0    0 -0.12546001686E+04  0.53563158347E+01 -0.82274004040E+03  0.15033269250E+04  0.95080998888E+02 0.  0.
         13    1    3    3    0    0 -0.88109531394E+03  0.34139797472E+02 -0.61413215284E+03  0.10745477091E+04  0.00000000000E+00 0.  1.
        -13    1    3    3    0    0 -0.37350485462E+03 -0.28783481637E+02 -0.20860788757E+03  0.42877921590E+03  0.00000000000E+00 0. -1.
         22    1    1    2    0    0  0.12546001686E+04 -0.53563158347E+01  0.11054110274E+04  0.16721195569E+04  0.00000000000E+00 0.  1.
<mgrwt>
<rscale>  0 0.31628401E+04</rscale>
<asrwt>0</asrwt>
<pdfrwt beam="1">  1        2 0.26600904E+00 0.31628401E+04</pdfrwt>
<pdfrwt beam="2">  1       -2 0.22252119E+00 0.31628401E+04</pdfrwt>
<totfact> 0.76038018E-01</totfact>
</mgrwt>
</event>
<event>
 6    1  0.5196787E-004  0.5704675E+03  0.7818608E-02  0.9968645E-01
         -2   -1    0    0    0  501 -0.00000000000E+00  0.00000000000E+00  0.36270839775E+02  0.36270839775E+02  0.00000000000E+00 0. -1.
          2   -1    0    0  501    0  0.00000000000E+00 -0.00000000000E+00 -0.22430770859E+04  0.22430770859E+04  0.00000000000E+00 0.  1.
         23    2    1    2    0    0 -0.23624684091E+03  0.14689001767E+03 -0.11509255655E+04  0.11874352649E+04  0.89351014401E+02 0.  0.
         13    1    3    3    0    0 -0.12676492474E+03  0.61969955990E+02 -0.75225095110E+03  0.76536992038E+03  0.00000000000E+00 0.  1.
        -13    1    3    3    0    0 -0.10948191617E+03  0.84920061676E+02 -0.39867461444E+03  0.42206534452E+03  0.00000000000E+00 0. -1.
         22    1    1    2    0    0  0.23624684091E+03 -0.14689001767E+03 -0.10558806805E+04  0.10919126607E+04  0.00000000000E+00 0.  1.
<mgrwt>
<rscale>  0 0.57046749E+03</rscale>
<asrwt>0</asrwt>
<pdfrwt beam="1">  1        2 0.34508881E+00 0.57046749E+03</pdfrwt>
<pdfrwt beam="2">  1       -2 0.55801288E-02 0.57046749E+03</pdfrwt>
<totfact> 0.88622933E+02</totfact>
</mgrwt>
</event>
<event>
 6    1  0.5196787E-004  0.1001431E+04  0.7818608E-02  0.9306976E-01
          2   -1    0    0  501    0  0.00000000000E+00  0.00000000000E+00  0.95054018613E+03  0.95054018613E+03  0.00000000000E+00 0.  1.
         -2   -1    0    0    0  501 -0.00000000000E+00 -0.00000000000E+00 -0.26376183844E+03  0.26376183844E+03  0.00000000000E+00 0. -1.
         23    2    1    2    0    0  0.29936056159E+03  0.37804718247E+03  0.20220468290E+03  0.53067343051E+03  0.90504906196E+02 0.  0.
         13    1    3    3    0    0  0.13906383448E+03  0.24359281548E+03  0.99630126518E+02  0.29766150561E+03  0.00000000000E+00 0. -1.
        -13    1    3    3    0    0  0.16029672711E+03  0.13445436700E+03  0.10257455638E+03  0.23301192490E+03  0.00000000000E+00 0.  1.
         22    1    1    2    0    0 -0.29936056159E+03 -0.37804718247E+03  0.48457366479E+03  0.68362859406E+03  0.00000000000E+00 0. -1.
<mgrwt>
<rscale>  0 0.10014314E+04</rscale>
<asrwt>0</asrwt>
<pdfrwt beam="1">  1        2 0.14623695E+00 0.10014314E+04</pdfrwt>
<pdfrwt beam="2">  1       -2 0.40578745E-01 0.10014314E+04</pdfrwt>
<totfact> 0.15559044E+02</totfact>
</mgrwt>
</event>
<event>
 6    1  0.5196787E-004  0.1459317E+04  0.7818608E-02  0.8911967E-01
          2   -1    0    0  501    0  0.00000000000E+00  0.00000000000E+00  0.38956931384E+03  0.38956931384E+03  0.00000000000E+00 0.  1.
         -2   -1    0    0    0  501 -0.00000000000E+00 -0.00000000000E+00 -0.13666413022E+04  0.13666413022E+04  0.00000000000E+00 0. -1.
         23    2    1    2    0    0  0.49111218937E+03  0.53124956290E+03 -0.40876004920E+03  0.83621293080E+03  0.93541473091E+02 0.  0.
         13    1    3    3    0    0  0.36850838193E+03  0.37019795789E+03 -0.25065165915E+03  0.57937139195E+03  0.00000000000E+00 0.  1.
        -13    1    3    3    0    0  0.12260380745E+03  0.16105160502E+03 -0.15810839004E+03  0.25684153885E+03  0.00000000000E+00 0. -1.
         22    1    1    2    0    0 -0.49111218937E+03 -0.53124956290E+03 -0.56831193915E+03  0.91999768522E+03  0.00000000000E+00 0. -1.
<mgrwt>
<rscale>  0 0.14593170E+04</rscale>
<asrwt>0</asrwt>
<pdfrwt beam="1">  1        2 0.59933741E-01 0.14593170E+04</pdfrwt>
<pdfrwt beam="2">  1       -2 0.21025251E+00 0.14593170E+04</pdfrwt>
<totfact> 0.90504443E+00</totfact>
</mgrwt>
</event>
<event>
 6    1  0.5196787E-004  0.2281880E+04  0.7818608E-02  0.8485100E-01
          2   -1    0    0  501    0  0.00000000000E+00  0.00000000000E+00  0.19336530757E+04  0.19336530757E+04  0.00000000000E+00 0.  1.
         -2   -1    0    0    0  501 -0.00000000000E+00 -0.00000000000E+00 -0.67320460362E+03  0.67320460362E+03  0.00000000000E+00 0. -1.
         23    2    1    2    0    0  0.50667599568E+03 -0.34377174762E+03 -0.46603897973E+03  0.77501202525E+03  0.92475562177E+02 0.  0.
         13    1    3    3    0    0  0.37663673706E+02 -0.38177277248E+01 -0.45530031947E+02  0.59212424128E+02  0.00000000000E+00 0. -1.
        -13    1    3    3    0    0  0.46901232197E+03 -0.33995401989E+03 -0.42050894778E+03  0.71579960112E+03  0.00000000000E+00 0.  1.
         22    1    1    2    0    0 -0.50667599568E+03  0.34377174762E+03  0.17264874518E+04  0.18318456541E+04  0.00000000000E+00 0.  1.
<mgrwt>
<rscale>  0 0.22818801E+04</rscale>
<asrwt>0</asrwt>
<pdfrwt beam="1">  1        2 0.29748509E+00 0.22818801E+04</pdfrwt>
<pdfrwt beam="2">  1       -2 0.10356994E+00 0.22818801E+04</pdfrwt>
<totfact> 0.50167746E+00</totfact>
</mgrwt>
</event>
<event>
 6    1  0.5196787E-004  0.5465911E+04  0.7818608E-02  0.7760397E-01
          2   -1    0    0  501    0  0.00000000000E+00  0.00000000000E+00  0.21077911828E+04  0.21077911828E+04  0.00000000000E+00 0.  1.
         -2   -1    0    0    0  501 -0.00000000000E+00 -0.00000000000E+00 -0.35435417006E+04  0.35435417006E+04  0.00000000000E+00 0. -1.
         23    2    1    2    0    0  0.24196814586E+04 -0.10680694085E+04 -0.14259290219E+04  0.30063892008E+04  0.97323321989E+02 0.  0.
         13    1    3    3    0    0  0.12352648140E+04 -0.54402229289E+03 -0.78290616353E+03  0.15603786325E+04  0.00000000000E+00 0. -1.
        -13    1    3    3    0    0  0.11844166446E+04 -0.52404711560E+03 -0.64302285837E+03  0.14460105683E+04  0.00000000000E+00 0.  1.
         22    1    1    2    0    0 -0.24196814586E+04  0.10680694085E+04 -0.98214959377E+01  0.26449436826E+04  0.00000000000E+00 0.  1.
<mgrwt>
<rscale>  0 0.54659111E+04</rscale>
<asrwt>0</asrwt>
<pdfrwt beam="1">  1        2 0.32427557E+00 0.54659111E+04</pdfrwt>
<pdfrwt beam="2">  1       -2 0.54516026E+00 0.54659111E+04</pdfrwt>
<totfact> 0.37441124E-03</totfact>
</mgrwt>
</event>
<event>
 6    1  0.5196787E-004  0.1214916E+04  0.7818608E-02  0.9099900E-01
         -2   -1    0    0    0  501 -0.00000000000E+00  0.00000000000E+00  0.68185900378E+03  0.68185900378E+03  0.00000000000E+00 0. -1.
          2   -1    0    0  501    0  0.00000000000E+00 -0.00000000000E+00 -0.54117544854E+03  0.54117544854E+03  0.00000000000E+00 0.  1.
         23    2    1    2    0    0  0.48515647010E+03  0.23402909001E+03  0.34746433406E+03  0.64605550476E+03  0.80683556792E+02 0.  0.
         11    1    3    3    0    0  0.88547258114E+02  0.56179053428E+02  0.10475051910E+03  0.14822069429E+03  0.00000000000E+00 0. -1.
        -11    1    3    3    0    0  0.39660921198E+03  0.17785003658E+03  0.24271381495E+03  0.49783481047E+03  0.00000000000E+00 0.  1.
         22    1    1    2    0    0 -0.48515647010E+03 -0.23402909001E+03 -0.20678077881E+03  0.57697894756E+03  0.00000000000E+00 0.  1.
<mgrwt>
<rscale>  0 0.12149162E+04</rscale>
<asrwt>0</asrwt>
<pdfrwt beam="1">  1        2 0.83257761E-01 0.12149162E+04</pdfrwt>
<pdfrwt beam="2">  1       -2 0.10490139E+00 0.12149162E+04</pdfrwt>
<totfact> 0.40761499E+01</totfact>
</mgrwt>
</event>
<event>
 6    1  0.5196787E-004  0.3090895E+04  0.7818608E-02  0.8218241E-01
         -2   -1    0    0    0  501 -0.00000000000E+00  0.00000000000E+00  0.14662929174E+04  0.14662929174E+04  0.00000000000E+00 0. -1.
          2   -1    0    0  501    0  0.00000000000E+00 -0.00000000000E+00 -0.16288748232E+04  0.16288748232E+04  0.00000000000E+00 0.  1.
         23    2    1    2    0    0 -0.70843464080E+03  0.66629224614E+03  0.11196562091E+04  0.14858326043E+04  0.90793744084E+02 0.  0.
         13    1    3    3    0    0 -0.12219015675E+03  0.12283110598E+03  0.15020283472E+03  0.22930069028E+03  0.00000000000E+00 0. -1.
        -13    1    3    3    0    0 -0.58624448405E+03  0.54346114016E+03  0.96945337434E+03  0.12565319140E+04  0.00000000000E+00 0.  1.
         22    1    1    2    0    0  0.70843464080E+03 -0.66629224614E+03 -0.12822381149E+04  0.16093351362E+04  0.00000000000E+00 0.  1.
<mgrwt>
<rscale>  0 0.30908948E+04</rscale>
<asrwt>0</asrwt>
<pdfrwt beam="1">  1        2 0.25059613E+00 0.30908948E+04</pdfrwt>
<pdfrwt beam="2">  1       -2 0.22558353E+00 0.30908948E+04</pdfrwt>
<totfact> 0.83202201E-01</totfact>
</mgrwt>
</event>
<event>
 6    1  0.5196787E-004  0.1229623E+04  0.7818608E-02  0.9087316E-01
          2   -1    0    0  501    0  0.00000000000E+00  0.00000000000E+00  0.34793949878E+03  0.34793949878E+03  0.00000000000E+00 0.  1.
         -2   -1    0    0    0  501 -0.00000000000E+00 -0.00000000000E+00 -0.10863760821E+04  0.10863760821E+04  0.00000000000E+00 0. -1.
         23    2    1    2    0    0 -0.29398031195E+03 -0.14244684485E+03  0.23166298223E+03  0.41069031034E+03  0.91012451102E+02 0.  0.
         13    1    3    3    0    0 -0.58489198500E+02 -0.59827811242E+02  0.26934366959E+02  0.87896606662E+02  0.00000000000E+00 0. -1.
        -13    1    3    3    0    0 -0.23549111344E+03 -0.82619033608E+02  0.20472861527E+03  0.32279370368E+03  0.00000000000E+00 0.  1.
         22    1    1    2    0    0  0.29398031195E+03  0.14244684485E+03 -0.97009956558E+03  0.10236252706E+04  0.00000000000E+00 0. -1.
<mgrwt>
<rscale>  0 0.12296229E+04</rscale>
<asrwt>0</asrwt>
<pdfrwt beam="1">  1        2 0.53529155E-01 0.12296229E+04</pdfrwt>
<pdfrwt beam="2">  1       -2 0.16713478E+00 0.12296229E+04</pdfrwt>
<totfact> 0.20445232E+01</totfact>
</mgrwt>
</event>
<event>
 6    1  0.5196787E-004  0.2577738E+04  0.7818608E-02  0.8375803E-01
         -2   -1    0    0    0  501 -0.00000000000E+00  0.00000000000E+00  0.10345001110E+04  0.10345001110E+04  0.00000000000E+00 0. -1.
          2   -1    0    0  501    0  0.00000000000E+00 -0.00000000000E+00 -0.16057833203E+04  0.16057833203E+04  0.00000000000E+00 0.  1.
         23    2    1    2    0    0 -0.64287173176E+03 -0.36937252437E+03 -0.13643892578E+04  0.15545867290E+04  0.73903490907E+02 0.  0.
         11    1    3    3    0    0 -0.60354553128E+03 -0.33990022962E+03 -0.12320418791E+04  0.14134095537E+04  0.00000000000E+00 0.  1.
        -11    1    3    3    0    0 -0.39326200479E+02 -0.29472294751E+02 -0.13234737868E+03  0.14117717537E+03  0.00000000000E+00 0. -1.
         22    1    1    2    0    0  0.64287173176E+03  0.36937252437E+03  0.79310604845E+03  0.10856967023E+04  0.00000000000E+00 0. -1.
<mgrwt>
<rscale>  0 0.25777378E+04</rscale>
<asrwt>0</asrwt>
<pdfrwt beam="1">  1        2 0.24704359E+00 0.25777378E+04</pdfrwt>
<pdfrwt beam="2">  1       -2 0.15915386E+00 0.25777378E+04</pdfrwt>
<totfact> 0.25072328E+00</totfact>
</mgrwt>
</event>
<event>
 6    1  0.5196787E-004  0.1573319E+04  0.7818608E-02  0.8837109E-01
          2   -1    0    0  501    0  0.00000000000E+00  0.00000000000E+00  0.10589229872E+04  0.10589229872E+04  0.00000000000E+00 0.  1.
         -2   -1    0    0    0  501 -0.00000000000E+00 -0.00000000000E+00 -0.58439870508E+03  0.58439870508E+03  0.00000000000E+00 0. -1.
         23    2    1    2    0    0  0.20967279788E+03 -0.43223006107E+03 -0.40721342371E+03  0.63920671393E+03  0.10943921976E+03 0.  0.
         11    1    3    3    0    0  0.63079601437E+02 -0.21277801582E+03 -0.13351917963E+03  0.25899979047E+03  0.00000000000E+00 0.  1.
        -11    1    3    3    0    0  0.14659319644E+03 -0.21945204525E+03 -0.27369424408E+03  0.38020692347E+03  0.00000000000E+00 0. -1.
         22    1    1    2    0    0 -0.20967279788E+03  0.43223006107E+03  0.88173770580E+03  0.10041149783E+04  0.00000000000E+00 0.  1.
<mgrwt>
<rscale>  0 0.15733191E+04</rscale>
<asrwt>0</asrwt>
<pdfrwt beam="1">  1        2 0.16291123E+00 0.15733191E+04</pdfrwt>
<pdfrwt beam="2">  1       -2 0.89907493E-01 0.15733191E+04</pdfrwt>
<totfact> 0.23526106E+01</totfact>
</mgrwt>
</event>
<event>
 6    1  0.1121961E-003  0.2944940E+04  0.7818608E-02  0.8259631E-01
         -2   -1    0    0    0  501 -0.00000000000E+00  0.00000000000E+00  0.11487086775E+04  0.11487086775E+04  0.00000000000E+00 0. -1.
          2   -1    0    0  501    0  0.00000000000E+00 -0.00000000000E+00 -0.18874828544E+04  0.18874828544E+04  0.00000000000E+00 0.  1.
         23    2    1    2    0    0  0.90012142936E+02 -0.33226595128E+03  0.11048271649E+04  0.11607265881E+04  0.90223609352E+02 0.  0.
         13    1    3    3    0    0  0.14765916437E+02 -0.19991002721E+03  0.70309285065E+03  0.73110984667E+03  0.00000000000E+00 0. -1.
        -13    1    3    3    0    0  0.75246226498E+02 -0.13235592407E+03  0.40173431427E+03  0.42961674141E+03  0.00000000000E+00 0.  1.
         22    1    1    2    0    0 -0.90012142936E+02  0.33226595128E+03 -0.18436013418E+04  0.18754649439E+04  0.00000000000E+00 0.  1.
<mgrwt>
<rscale>  0 0.29449400E+04</rscale>
<asrwt>0</asrwt>
<pdfrwt beam="1">  1        2 0.29038197E+00 0.29449400E+04</pdfrwt>
<pdfrwt beam="2">  1       -2 0.17672441E+00 0.29449400E+04</pdfrwt>
<totfact> 0.12679913E+00</totfact>
</mgrwt>
</event>
<event>
 6    1  0.5196787E-004  0.4077907E+04  0.7818608E-02  0.7989012E-01
          2   -1    0    0  501    0  0.00000000000E+00  0.00000000000E+00  0.50886461427E+04  0.50886461427E+04  0.00000000000E+00 0.  1.
         -2   -1    0    0    0  501 -0.00000000000E+00 -0.00000000000E+00 -0.81698191617E+03  0.81698191617E+03  0.00000000000E+00 0. -1.
         23    2    1    2    0    0  0.79425124646E+02  0.33633110258E+03  0.50454810727E+04  0.50581497568E+04  0.92589126718E+02 0.  0.
         13    1    3    3    0    0  0.51091950594E+02  0.85614123316E+02  0.18726537861E+04  0.18753059399E+04  0.00000000000E+00 0.  1.
        -13    1    3    3    0    0  0.28333174052E+02  0.25071697926E+03  0.31728272866E+04  0.31828438170E+04  0.00000000000E+00 0. -1.
         22    1    1    2    0    0 -0.79425124646E+02 -0.33633110258E+03 -0.77381684619E+03  0.84747830204E+03  0.00000000000E+00 0. -1.
<mgrwt>
<rscale>  0 0.40779072E+04</rscale>
<asrwt>0</asrwt>
<pdfrwt beam="1">  1        2 0.78286862E+00 0.40779072E+04</pdfrwt>
<pdfrwt beam="2">  1       -2 0.12568953E+00 0.40779072E+04</pdfrwt>
<totfact> 0.96293640E-03</totfact>
</mgrwt>
</event>
<event>
 6    1  0.5196787E-004  0.3677501E+04  0.7818608E-02  0.8072966E-01
          2   -1    0    0  501    0  0.00000000000E+00  0.00000000000E+00  0.30559371691E+04  0.30559371691E+04  0.00000000000E+00 0.  1.
         -2   -1    0    0    0  501 -0.00000000000E+00 -0.00000000000E+00 -0.11063718559E+04  0.11063718559E+04  0.00000000000E+00 0. -1.
         23    2    1    2    0    0 -0.76154568389E+03 -0.46132008881E+03 -0.84405740232E+03  0.12302285469E+04  0.90891838576E+02 0.  0.
         11    1    3    3    0    0 -0.44373481263E+03 -0.31909111021E+03 -0.53012920246E+03  0.76141755421E+03  0.00000000000E+00 0.  1.
        -11    1    3    3    0    0 -0.31781087126E+03 -0.14222897859E+03 -0.31392819986E+03  0.46881099274E+03  0.00000000000E+00 0. -1.
         22    1    1    2    0    0  0.76154568389E+03  0.46132008881E+03  0.27936227155E+04  0.29320804780E+04  0.00000000000E+00 0.  1.
<mgrwt>
<rscale>  0 0.36775007E+04</rscale>
<asrwt>0</asrwt>
<pdfrwt beam="1">  1        2 0.47014418E+00 0.36775007E+04</pdfrwt>
<pdfrwt beam="2">  1       -2 0.17021106E+00 0.36775007E+04</pdfrwt>
<totfact> 0.27592750E-01</totfact>
</mgrwt>
</event>
<event>
 6    1  0.5196787E-004  0.1220031E+04  0.7818608E-02  0.9095501E-01
         -2   -1    0    0    0  501 -0.00000000000E+00  0.00000000000E+00  0.15234088617E+04  0.15234088617E+04  0.00000000000E+00 0. -1.
          2   -1    0    0  501    0  0.00000000000E+00 -0.00000000000E+00 -0.24426745235E+03  0.24426745235E+03  0.00000000000E+00 0.  1.
         23    2    1    2    0    0 -0.36402765068E+03  0.22209454203E+03  0.17195439440E+02  0.43562911256E+03  0.87378055129E+02 0.  0.
         13    1    3    3    0    0 -0.17608464881E+03  0.14986730805E+03  0.33432382790E+02  0.23363162840E+03  0.00000000000E+00 0.  1.
        -13    1    3    3    0    0 -0.18794300187E+03  0.72227233973E+02 -0.16236943350E+02  0.20199748416E+03  0.00000000000E+00 0. -1.
         22    1    1    2    0    0  0.36402765068E+03 -0.22209454203E+03  0.12619459699E+04  0.13320472015E+04  0.00000000000E+00 0. -1.
<mgrwt>
<rscale>  0 0.12200315E+04</rscale>
<asrwt>0</asrwt>
<pdfrwt beam="1">  1        2 0.37579609E-01 0.12200315E+04</pdfrwt>
<pdfrwt beam="2">  1       -2 0.23437059E+00 0.12200315E+04</pdfrwt>
<totfact> 0.10943827E+01</totfact>
</mgrwt>
</event>
<event>
 6    1  0.5196787E-004  0.2665618E+04  0.7818608E-02  0.8346248E-01
          2   -1    0    0  501    0  0.00000000000E+00  0.00000000000E+00  0.25775623621E+04  0.25775623621E+04  0.00000000000E+00 0.  1.
         -2   -1    0    0    0  501 -0.00000000000E+00 -0.00000000000E+00 -0.68917040894E+03  0.68917040894E+03  0.00000000000E+00 0. -1.
         23    2    1    2    0    0 -0.59684475764E+03  0.70560946335E+03 -0.22864714717E+03  0.95676243967E+03  0.94902415959E+02 0.  0.
         11    1    3    3    0    0 -0.42547897945E+03  0.48569347154E+03 -0.20264098723E+03  0.67675245102E+03  0.00000000000E+00 0.  1.
        -11    1    3    3    0    0 -0.17136577819E+03  0.21991599180E+03 -0.26006159933E+02  0.28000998864E+03  0.00000000000E+00 0. -1.
         22    1    1    2    0    0  0.59684475764E+03 -0.70560946335E+03  0.21170391003E+04  0.23099703314E+04  0.00000000000E+00 0.  1.
<mgrwt>
<rscale>  0 0.26656179E+04</rscale>
<asrwt>0</asrwt>
<pdfrwt beam="1">  1        2 0.39654805E+00 0.26656179E+04</pdfrwt>
<pdfrwt beam="2">  1       -2 0.10602622E+00 0.26656179E+04</pdfrwt>
<totfact> 0.19812476E+00</totfact>
</mgrwt>
</event>
<event>
 6    1  0.5196787E-004  0.2047504E+04  0.7818608E-02  0.8584727E-01
          2   -1    0    0  501    0  0.00000000000E+00  0.00000000000E+00  0.45964884482E+04  0.45964884482E+04  0.00000000000E+00 0.  1.
         -2   -1    0    0    0  501 -0.00000000000E+00 -0.00000000000E+00 -0.22801507726E+03  0.22801507726E+03  0.00000000000E+00 0. -1.
         23    2    1    2    0    0  0.27143354321E+03  0.82534147148E+03  0.92176075525E+03  0.12699722528E+04  0.91224558769E+02 0.  0.
         13    1    3    3    0    0  0.10736104909E+03  0.34249126520E+03  0.44652836414E+03  0.57289985301E+03  0.00000000000E+00 0. -1.
        -13    1    3    3    0    0  0.16407249411E+03  0.48285020628E+03  0.47523239111E+03  0.69707239982E+03  0.00000000000E+00 0.  1.
         22    1    1    2    0    0 -0.27143354321E+03 -0.82534147148E+03  0.34467126157E+04  0.35545312726E+04  0.00000000000E+00 0.  1.
<mgrwt>
<rscale>  0 0.20475045E+04</rscale>
<asrwt>0</asrwt>
<pdfrwt beam="1">  1        2 0.70715200E+00 0.20475045E+04</pdfrwt>
<pdfrwt beam="2">  1       -2 0.35079246E-01 0.20475045E+04</pdfrwt>
<totfact> 0.70733601E-01</totfact>
</mgrwt>
</event>
<event>
 6    1  0.5196787E-004  0.1184826E+04  0.7818608E-02  0.9126243E-01
         -2   -1    0    0    0  501 -0.00000000000E+00  0.00000000000E+00  0.10227822557E+03  0.10227822557E+03  0.00000000000E+00 0. -1.
          2   -1    0    0  501    0  0.00000000000E+00 -0.00000000000E+00 -0.34313587342E+04  0.34313587342E+04  0.00000000000E+00 0.  1.
         23    2    1    2    0    0  0.48055288668E+03 -0.12320343462E+03 -0.72356740463E+03  0.88131558061E+03  0.84007144861E+02 0.  0.
         13    1    3    3    0    0  0.25426009248E+03 -0.37544057017E+02 -0.42915951746E+03  0.50023558677E+03  0.00000000000E+00 0.  1.
        -13    1    3    3    0    0  0.22629279420E+03 -0.85659377602E+02 -0.29440788717E+03  0.38107999384E+03  0.00000000000E+00 0. -1.
         22    1    1    2    0    0 -0.48055288668E+03  0.12320343462E+03 -0.26055131040E+04  0.26523213792E+04  0.00000000000E+00 0.  1.
<mgrwt>
<rscale>  0 0.11848262E+04</rscale>
<asrwt>0</asrwt>
<pdfrwt beam="1">  1        2 0.52790126E+00 0.11848262E+04</pdfrwt>
<pdfrwt beam="2">  1       -2 0.15735114E-01 0.11848262E+04</pdfrwt>
<totfact> 0.29741004E+01</totfact>
</mgrwt>
</event>
<event>
 6    1  0.5196787E-004  0.4770044E+04  0.7818608E-02  0.7864993E-01
          2   -1    0    0  501    0  0.00000000000E+00  0.00000000000E+00  0.39142823315E+04  0.39142823315E+04  0.00000000000E+00 0. -1.
         -2   -1    0    0    0  501 -0.00000000000E+00 -0.00000000000E+00 -0.14532242910E+04  0.14532242910E+04  0.00000000000E+00 0.  1.
         23    2    1    2    0    0  0.45513438740E+03 -0.13229340170E+04 -0.94131076723E+03  0.16887275821E+04  0.91832250593E+02 0.  0.
         11    1    3    3    0    0  0.25129246108E+03 -0.74323139095E+03 -0.58229055969E+03  0.97703792014E+03  0.00000000000E+00 0.  1.
        -11    1    3    3    0    0  0.20384192632E+03 -0.57970262605E+03 -0.35902020754E+03  0.71168966200E+03  0.00000000000E+00 0. -1.
         22    1    1    2    0    0 -0.45513438740E+03  0.13229340170E+04  0.34023688077E+04  0.36787790403E+04  0.00000000000E+00 0. -1.
<mgrwt>
<rscale>  0 0.47700441E+04</rscale>
<asrwt>0</asrwt>
<pdfrwt beam="1">  1        2 0.60219728E+00 0.47700441E+04</pdfrwt>
<pdfrwt beam="2">  1       -2 0.22357297E+00 0.47700441E+04</pdfrwt>
<totfact> 0.27756259E-02</totfact>
</mgrwt>
</event>
<event>
 6    1  0.5196787E-004  0.1238869E+04  0.7818608E-02  0.9079499E-01
         -3   -1    0    0    0  501 -0.00000000000E+00  0.00000000000E+00  0.32872984358E+03  0.32872984358E+03  0.00000000000E+00 0. -1.
          3   -1    0    0  501    0  0.00000000000E+00 -0.00000000000E+00 -0.11672165767E+04  0.11672165767E+04  0.00000000000E+00 0.  1.
         23    2    1    2    0    0 -0.48881148495E+03 -0.33316775029E+03 -0.62949397105E+03  0.86855866757E+03  0.90521167542E+02 0.  0.
         13    1    3    3    0    0 -0.17940763546E+02 -0.26082011585E+01 -0.37136465565E+01  0.18505806674E+02  0.00000000000E+00 0. -1.
        -13    1    3    3    0    0 -0.47087072140E+03 -0.33055954913E+03 -0.62578032449E+03  0.85005286090E+03  0.00000000000E+00 0.  1.
         22    1    1    2    0    0  0.48881148495E+03  0.33316775029E+03 -0.20899276207E+03  0.62738775271E+03  0.00000000000E+00 0. -1.
<mgrwt>
<rscale>  0 0.12388687E+04</rscale>
<asrwt>0</asrwt>
<pdfrwt beam="1">  1        3 0.17957178E+00 0.12388687E+04</pdfrwt>
<pdfrwt beam="2">  1       -3 0.50573822E-01 0.12388687E+04</pdfrwt>
<totfact> 0.20000441E+00</totfact>
</mgrwt>
</event>
<event>
 6    1  0.5196787E-004  0.2928468E+04  0.7818608E-02  0.8264457E-01
         -2   -1    0    0    0  501 -0.00000000000E+00  0.00000000000E+00  0.11608409701E+04  0.11608409701E+04  0.00000000000E+00 0.  1.
          2   -1    0    0  501    0  0.00000000000E+00 -0.00000000000E+00 -0.18469205873E+04  0.18469205873E+04  0.00000000000E+00 0. -1.
         23    2    1    2    0    0  0.68417813576E+03 -0.86708855641E+02  0.98161431084E+03  0.12030950551E+04  0.90845523589E+02 0.  0.
         13    1    3    3    0    0  0.21248422772E+03 -0.79596285276E+01  0.23981176811E+03  0.32050364559E+03  0.00000000000E+00 0.  1.
        -13    1    3    3    0    0  0.47169390804E+03 -0.78749227113E+02  0.74180254273E+03  0.88259140946E+03  0.00000000000E+00 0. -1.
         22    1    1    2    0    0 -0.68417813576E+03  0.86708855641E+02 -0.16676939280E+04  0.18046665023E+04  0.00000000000E+00 0. -1.
<mgrwt>
<rscale>  0 0.29284679E+04</rscale>
<asrwt>0</asrwt>
<pdfrwt beam="1">  1        2 0.28414163E+00 0.29284679E+04</pdfrwt>
<pdfrwt beam="2">  1       -2 0.17859092E+00 0.29284679E+04</pdfrwt>
<totfact> 0.12978302E+00</totfact>
</mgrwt>
</event>
<event>
 6    1  0.5196787E-004  0.3688523E+04  0.7818608E-02  0.8070510E-01
          2   -1    0    0  501    0  0.00000000000E+00  0.00000000000E+00  0.21070196747E+04  0.21070196747E+04  0.00000000000E+00 0.  1.
         -2   -1    0    0    0  501 -0.00000000000E+00 -0.00000000000E+00 -0.16142706069E+04  0.16142706069E+04  0.00000000000E+00 0. -1.
         23    2    1    2    0    0 -0.55468220314E+03 -0.10455604201E+04 -0.11789228881E+04  0.16730334455E+04  0.91174531650E+02 0.  0.
         11    1    3    3    0    0 -0.50406034120E+02 -0.14014551202E+03 -0.17988003143E+03  0.23353449107E+03  0.00000000000E+00 0. -1.
        -11    1    3    3    0    0 -0.50427616902E+03 -0.90541490810E+03 -0.99904285668E+03  0.14394989545E+04  0.00000000000E+00 0.  1.
         22    1    1    2    0    0  0.55468220314E+03  0.10455604201E+04  0.16716719558E+04  0.20482568361E+04  0.00000000000E+00 0.  1.
<mgrwt>
<rscale>  0 0.36885227E+04</rscale>
<asrwt>0</asrwt>
<pdfrwt beam="1">  1        2 0.32415688E+00 0.36885227E+04</pdfrwt>
<pdfrwt beam="2">  1       -2 0.24834932E+00 0.36885227E+04</pdfrwt>
<totfact> 0.30997585E-01</totfact>
</mgrwt>
</event>
<event>
 6    1  0.5196787E-004  0.4994725E+04  0.7818608E-02  0.7829321E-01
         -2   -1    0    0    0  501 -0.00000000000E+00  0.00000000000E+00  0.22783025290E+04  0.22783025290E+04  0.00000000000E+00 0. -1.
          2   -1    0    0  501    0  0.00000000000E+00 -0.00000000000E+00 -0.27374850680E+04  0.27374850680E+04  0.00000000000E+00 0.  1.
         23    2    1    2    0    0  0.63941484977E+03  0.16996075219E+03 -0.26470587269E+04  0.27300622809E+04  0.92639875407E+02 0.  0.
         11    1    3    3    0    0  0.51507784797E+03  0.17389433052E+03 -0.21435259915E+04  0.22113905363E+04  0.00000000000E+00 0.  1.
        -11    1    3    3    0    0  0.12433700180E+03 -0.39335783365E+01 -0.50353273533E+03  0.51867174456E+03  0.00000000000E+00 0. -1.
         22    1    1    2    0    0 -0.63941484977E+03 -0.16996075219E+03  0.21878761879E+04  0.22857253162E+04  0.00000000000E+00 0. -1.
<mgrwt>
<rscale>  0 0.49947249E+04</rscale>
<asrwt>0</asrwt>
<pdfrwt beam="1">  1        2 0.42115155E+00 0.49947249E+04</pdfrwt>
<pdfrwt beam="2">  1       -2 0.35050808E+00 0.49947249E+04</pdfrwt>
<totfact> 0.28366345E-02</totfact>
</mgrwt>
</event>
<event>
 6    1  0.5196787E-004  0.2173659E+04  0.7818608E-02  0.8529472E-01
         -2   -1    0    0    0  501 -0.00000000000E+00  0.00000000000E+00  0.10637535103E+04  0.10637535103E+04  0.00000000000E+00 0. -1.
          2   -1    0    0  501    0  0.00000000000E+00 -0.00000000000E+00 -0.11104060177E+04  0.11104060177E+04  0.00000000000E+00 0.  1.
         23    2    1    2    0    0  0.24653508717E+03 -0.98954668634E+03  0.34701085010E+03  0.10810204551E+04  0.90589737795E+02 0.  0.
         13    1    3    3    0    0  0.14741066442E+03 -0.57845861381E+03  0.24989948289E+03  0.64714296985E+03  0.00000000000E+00 0. -1.
        -13    1    3    3    0    0  0.99124422752E+02 -0.41108807253E+03  0.97111367207E+02  0.43387748525E+03  0.00000000000E+00 0.  1.
         22    1    1    2    0    0 -0.24653508717E+03  0.98954668634E+03 -0.39366335749E+03  0.10931390729E+04  0.00000000000E+00 0. -1.
<mgrwt>
<rscale>  0 0.21736589E+04</rscale>
<asrwt>0</asrwt>
<pdfrwt beam="1">  1        2 0.17083169E+00 0.21736589E+04</pdfrwt>
<pdfrwt beam="2">  1       -2 0.16365439E+00 0.21736589E+04</pdfrwt>
<totfact> 0.46561076E+00</totfact>
</mgrwt>
</event>
<event>
 6    1  0.5196787E-004  0.4193766E+04  0.7818608E-02  0.7966559E-01
          2   -1    0    0  501    0  0.00000000000E+00  0.00000000000E+00  0.17197834936E+04  0.17197834936E+04  0.00000000000E+00 0.  1.
         -2   -1    0    0    0  501 -0.00000000000E+00 -0.00000000000E+00 -0.25566695503E+04  0.25566695503E+04  0.00000000000E+00 0. -1.
         23    2    1    2    0    0  0.59744388597E+03  0.75437307941E+02  0.16283508706E+04  0.17387329860E+04  0.95057111944E+02 0.  0.
         11    1    3    3    0    0  0.28260242918E+03  0.52461988451E+02  0.90366645545E+03  0.94827709870E+03  0.00000000000E+00 0. -1.
        -11    1    3    3    0    0  0.31484145679E+03  0.22975319490E+02  0.72468441516E+03  0.79045588731E+03  0.00000000000E+00 0.  1.
         22    1    1    2    0    0 -0.59744388597E+03 -0.75437307941E+02 -0.24652369273E+04  0.25377200579E+04  0.00000000000E+00 0. -1.
<mgrwt>
<rscale>  0 0.41937659E+04</rscale>
<asrwt>0</asrwt>
<pdfrwt beam="1">  1        2 0.26458208E+00 0.41937659E+04</pdfrwt>
<pdfrwt beam="2">  1       -2 0.39333377E+00 0.41937659E+04</pdfrwt>
<totfact> 0.60911886E-02</totfact>
</mgrwt>
</event>
<event>
 6    1  0.5196787E-004  0.8234839E+03  0.7818608E-02  0.9526634E-01
         -2   -1    0    0    0  501 -0.00000000000E+00  0.00000000000E+00  0.12652059697E+03  0.12652059697E+03  0.00000000000E+00 0. -1.
          2   -1    0    0  501    0  0.00000000000E+00 -0.00000000000E+00 -0.13399512620E+04  0.13399512620E+04  0.00000000000E+00 0.  1.
         23    2    1    2    0    0 -0.88176915688E+02  0.51188711852E+02 -0.13152679547E+04  0.13223667368E+04  0.91260840816E+02 0.  0.
         13    1    3    3    0    0 -0.15025352712E+02  0.42415878140E+02 -0.21625763174E+03  0.22088963586E+03  0.00000000000E+00 0. -1.
        -13    1    3    3    0    0 -0.73151562977E+02  0.87728337116E+01 -0.10990103230E+04  0.11014771009E+04  0.00000000000E+00 0.  1.
         22    1    1    2    0    0  0.88176915688E+02 -0.51188711852E+02  0.10183728968E+03  0.14410512222E+03  0.00000000000E+00 0. -1.
<mgrwt>
<rscale>  0 0.82348390E+03</rscale>
<asrwt>0</asrwt>
<pdfrwt beam="1">  1        2 0.20614635E+00 0.82348390E+03</pdfrwt>
<pdfrwt beam="2">  1       -2 0.19464707E-01 0.82348390E+03</pdfrwt>
<totfact> 0.35292983E+02</totfact>
</mgrwt>
</event>
<event>
 6    1  0.5196787E-004  0.5683643E+04  0.7818608E-02  0.7730913E-01
          2   -1    0    0  501    0  0.00000000000E+00  0.00000000000E+00  0.26664597351E+04  0.26664597351E+04  0.00000000000E+00 0.  1.
         -2   -1    0    0    0  501 -0.00000000000E+00 -0.00000000000E+00 -0.30287159869E+04  0.30287159869E+04  0.00000000000E+00 0. -1.
         23    2    1    2    0    0  0.83322610168E+03  0.19667824734E+04 -0.20582546913E+04  0.29677392441E+04  0.92546271416E+02 0.  0.
         11    1    3    3    0    0  0.62606889806E+03  0.15468006373E+04 -0.15688797834E+04  0.22904013298E+04  0.00000000000E+00 0.  1.
        -11    1    3    3    0    0  0.20715720361E+03  0.41998183611E+03 -0.48937490787E+03  0.67733791428E+03  0.00000000000E+00 0. -1.
         22    1    1    2    0    0 -0.83322610168E+03 -0.19667824734E+04  0.16959984394E+04  0.27274364779E+04  0.00000000000E+00 0.  1.
<mgrwt>
<rscale>  0 0.56836429E+04</rscale>
<asrwt>0</asrwt>
<pdfrwt beam="1">  1        2 0.41022458E+00 0.56836429E+04</pdfrwt>
<pdfrwt beam="2">  1       -2 0.46595631E+00 0.56836429E+04</pdfrwt>
<totfact> 0.52563506E-03</totfact>
</mgrwt>
</event>
<event>
 6    1  0.5196787E-004  0.1352253E+04  0.7818608E-02  0.8989124E-01
         -2   -1    0    0    0  501 -0.00000000000E+00  0.00000000000E+00  0.48697639215E+03  0.48697639215E+03  0.00000000000E+00 0. -1.
          2   -1    0    0  501    0  0.00000000000E+00 -0.00000000000E+00 -0.93874608078E+03  0.93874608078E+03  0.00000000000E+00 0.  1.
         23    2    1    2    0    0 -0.36355752131E+03  0.45649887803E+03  0.12647723013E+03  0.60417831953E+03  0.92030729161E+02 0.  0.
         13    1    3    3    0    0 -0.10114768544E+03  0.71371695572E+02  0.40776303837E+02  0.13033602784E+03  0.00000000000E+00 0. -1.
        -13    1    3    3    0    0 -0.26240983586E+03  0.38512718246E+03  0.85700926295E+02  0.47384229169E+03  0.00000000000E+00 0.  1.
         22    1    1    2    0    0  0.36355752131E+03 -0.45649887803E+03 -0.57824691875E+03  0.82154415340E+03  0.00000000000E+00 0.  1.
<mgrwt>
<rscale>  0 0.13522532E+04</rscale>
<asrwt>0</asrwt>
<pdfrwt beam="1">  1        2 0.14442247E+00 0.13522532E+04</pdfrwt>
<pdfrwt beam="2">  1       -2 0.74919446E-01 0.13522532E+04</pdfrwt>
<totfact> 0.43187664E+01</totfact>
</mgrwt>
</event>
<event>
 6    1  0.5196787E-004  0.3742537E+04  0.7818608E-02  0.8058600E-01
         -2   -1    0    0    0  501 -0.00000000000E+00  0.00000000000E+00  0.18246837308E+04  0.18246837308E+04  0.00000000000E+00 0. -1.
          2   -1    0    0  501    0  0.00000000000E+00 -0.00000000000E+00 -0.19190426084E+04  0.19190426084E+04  0.00000000000E+00 0.  1.
         23    2    1    2    0    0  0.17435834273E+04 -0.60354740947E+03  0.25827654418E+03  0.18652417413E+04  0.89818354227E+02 0.  0.
         13    1    3    3    0    0  0.77240736238E+03 -0.30796198744E+03  0.93157096507E+02  0.83673888627E+03  0.00000000000E+00 0. -1.
        -13    1    3    3    0    0  0.97117606497E+03 -0.29558542203E+03  0.16511944767E+03  0.10285028551E+04  0.00000000000E+00 0.  1.
         22    1    1    2    0    0 -0.17435834273E+04  0.60354740947E+03 -0.35263542178E+03  0.18784845978E+04  0.00000000000E+00 0.  1.
<mgrwt>
<rscale>  0 0.37425370E+04</rscale>
<asrwt>0</asrwt>
<pdfrwt beam="1">  1        2 0.29523732E+00 0.37425370E+04</pdfrwt>
<pdfrwt beam="2">  1       -2 0.28072057E+00 0.37425370E+04</pdfrwt>
<totfact> 0.24889170E-01</totfact>
</mgrwt>
</event>
<event>
 6    1  0.5196787E-004  0.2122815E+04  0.7818608E-02  0.8551259E-01
          2   -1    0    0  501    0  0.00000000000E+00  0.00000000000E+00  0.47477656988E+03  0.47477656988E+03  0.00000000000E+00 0.  1.
         -2   -1    0    0    0  501 -0.00000000000E+00 -0.00000000000E+00 -0.23728754304E+04  0.23728754304E+04  0.00000000000E+00 0. -1.
         23    2    1    2    0    0  0.72933641007E+03 -0.44977793449E+03 -0.17866251459E+04  0.19835581521E+04  0.90784035834E+02 0.  0.
         11    1    3    3    0    0  0.41053684611E+03 -0.21207453080E+03 -0.10260621710E+04  0.11253087076E+04  0.00000000000E+00 0.  1.
        -11    1    3    3    0    0  0.31879956397E+03 -0.23770340369E+03 -0.76056297488E+03  0.85824944444E+03  0.00000000000E+00 0. -1.
         22    1    1    2    0    0 -0.72933641007E+03  0.44977793449E+03 -0.11147371454E+03  0.86409384817E+03  0.00000000000E+00 0.  1.
<mgrwt>
<rscale>  0 0.21228148E+04</rscale>
<asrwt>0</asrwt>
<pdfrwt beam="1">  1        2 0.73042549E-01 0.21228148E+04</pdfrwt>
<pdfrwt beam="2">  1       -2 0.36505776E+00 0.21228148E+04</pdfrwt>
<totfact> 0.75249527E-01</totfact>
</mgrwt>
</event>
<event>
 6    1  0.5196787E-004  0.1484026E+04  0.7818608E-02  0.8895145E-01
         -2   -1    0    0    0  501 -0.00000000000E+00  0.00000000000E+00  0.33933687473E+03  0.33933687473E+03  0.00000000000E+00 0. -1.
          2   -1    0    0  501    0  0.00000000000E+00 -0.00000000000E+00 -0.16225273196E+04  0.16225273196E+04  0.00000000000E+00 0.  1.
         23    2    1    2    0    0  0.65059224915E+03  0.71979756027E+02 -0.19104698704E+03  0.68858940371E+03  0.95942981542E+02 0.  0.
         13    1    3    3    0    0  0.29995332700E+03  0.15734453185E+02 -0.13405876938E+03  0.32892449748E+03  0.00000000000E+00 0. -1.
        -13    1    3    3    0    0  0.35063892216E+03  0.56245302842E+02 -0.56988217665E+02  0.35966490623E+03  0.00000000000E+00 0.  1.
         22    1    1    2    0    0 -0.65059224915E+03 -0.71979756027E+02 -0.10921434578E+04  0.12732747906E+04  0.00000000000E+00 0.  1.
<mgrwt>
<rscale>  0 0.14840261E+04</rscale>
<asrwt>0</asrwt>
<pdfrwt beam="1">  1        2 0.24961959E+00 0.14840261E+04</pdfrwt>
<pdfrwt beam="2">  1       -2 0.52205673E-01 0.14840261E+04</pdfrwt>
<totfact> 0.36288545E+01</totfact>
</mgrwt>
</event>
<event>
 6    1  0.5196787E-004  0.3352464E+04  0.7818608E-02  0.8149673E-01
          2   -1    0    0  501    0  0.00000000000E+00  0.00000000000E+00  0.14285654130E+04  0.14285654130E+04  0.00000000000E+00 0.  1.
         -2   -1    0    0    0  501 -0.00000000000E+00 -0.00000000000E+00 -0.19668357688E+04  0.19668357688E+04  0.00000000000E+00 0. -1.
         23    2    1    2    0    0 -0.12717529571E+03  0.11938490363E+04 -0.14522937838E+04  0.18864651644E+04  0.90246910246E+02 0.  0.
         11    1    3    3    0    0 -0.19429044430E+02  0.24321637714E+03 -0.24138163383E+03  0.34321536537E+03  0.00000000000E+00 0. -1.
        -11    1    3    3    0    0 -0.10774625128E+03  0.95063265912E+03 -0.12109121500E+04  0.15432497991E+04  0.00000000000E+00 0.  1.
         22    1    1    2    0    0  0.12717529571E+03 -0.11938490363E+04  0.91402342804E+03  0.15089360173E+04  0.00000000000E+00 0.  1.
<mgrwt>
<rscale>  0 0.33524639E+04</rscale>
<asrwt>0</asrwt>
<pdfrwt beam="1">  1        2 0.21977929E+00 0.33524639E+04</pdfrwt>
<pdfrwt beam="2">  1       -2 0.30259012E+00 0.33524639E+04</pdfrwt>
<totfact> 0.35512204E-01</totfact>
</mgrwt>
</event>
<event>
 6    1  0.6529404E-004  0.3250179E+04  0.7818608E-02  0.8175689E-01
          2   -1    0    0  501    0  0.00000000000E+00  0.00000000000E+00  0.15651295182E+04  0.15651295182E+04  0.00000000000E+00 0. -1.
         -2   -1    0    0    0  501 -0.00000000000E+00 -0.00000000000E+00 -0.16873468020E+04  0.16873468020E+04  0.00000000000E+00 0.  1.
         23    2    1    2    0    0 -0.15747268596E+04 -0.38409421926E+03  0.36603149017E+02  0.16238213594E+04  0.90349130723E+02 0.  0.
         11    1    3    3    0    0 -0.11279762034E+04 -0.23858150802E+03  0.55479698670E+01  0.11529450253E+04  0.00000000000E+00 0. -1.
        -11    1    3    3    0    0 -0.44675065615E+03 -0.14551271125E+03  0.31055179150E+02  0.47087633415E+03  0.00000000000E+00 0.  1.
         22    1    1    2    0    0  0.15747268596E+04  0.38409421926E+03 -0.15882043281E+03  0.16286549608E+04  0.00000000000E+00 0.  1.
<mgrwt>
<rscale>  0 0.32501792E+04</rscale>
<asrwt>0</asrwt>
<pdfrwt beam="1">  1        2 0.24078916E+00 0.32501792E+04</pdfrwt>
<pdfrwt beam="2">  1       -2 0.25959181E+00 0.32501792E+04</pdfrwt>
<totfact> 0.54895961E-01</totfact>
</mgrwt>
</event>
<event>
 6    1  0.5196787E-004  0.3119548E+04  0.7818608E-02  0.8210394E-01
          2   -1    0    0  501    0  0.00000000000E+00  0.00000000000E+00  0.25616507068E+04  0.25616507068E+04  0.00000000000E+00 0.  1.
         -2   -1    0    0    0  501 -0.00000000000E+00 -0.00000000000E+00 -0.94973699543E+03  0.94973699543E+03  0.00000000000E+00 0. -1.
         23    2    1    2    0    0 -0.48496827600E+03  0.73936420469E+03 -0.63785109829E+03  0.10940967899E+04  0.91324182258E+02 0.  0.
         11    1    3    3    0    0 -0.92093559839E+02  0.10344997018E+03 -0.13353163682E+03  0.19238975577E+03  0.00000000000E+00 0.  1.
        -11    1    3    3    0    0 -0.39287471616E+03  0.63591423451E+03 -0.50431946146E+03  0.90170703417E+03  0.00000000000E+00 0. -1.
         22    1    1    2    0    0  0.48496827600E+03 -0.73936420469E+03  0.22497648096E+04  0.24172909123E+04  0.00000000000E+00 0.  1.
<mgrwt>
<rscale>  0 0.31195477E+04</rscale>
<asrwt>0</asrwt>
<pdfrwt beam="1">  1        2 0.39410011E+00 0.31195477E+04</pdfrwt>
<pdfrwt beam="2">  1       -2 0.14611338E+00 0.31195477E+04</pdfrwt>
<totfact> 0.87222817E-01</totfact>
</mgrwt>
</event>
<event>
 6    1  0.5196787E-004  0.3431974E+04  0.7818608E-02  0.8130103E-01
         -2   -1    0    0    0  501 -0.00000000000E+00  0.00000000000E+00  0.97062886492E+03  0.97062886492E+03  0.00000000000E+00 0. -1.
          2   -1    0    0  501    0  0.00000000000E+00 -0.00000000000E+00 -0.30337142588E+04  0.30337142588E+04  0.00000000000E+00 0.  1.
         23    2    1    2    0    0  0.95151738318E+03 -0.86740544117E+03  0.28914688247E+03  0.13227812259E+04  0.91469788202E+02 0.  0.
         13    1    3    3    0    0  0.41574759736E+03 -0.31910358432E+03  0.10958300440E+03  0.53542655621E+03  0.00000000000E+00 0. -1.
        -13    1    3    3    0    0  0.53576978582E+03 -0.54830185685E+03  0.17956387807E+03  0.78735466972E+03  0.00000000000E+00 0.  1.
         22    1    1    2    0    0 -0.95151738318E+03  0.86740544117E+03 -0.23522322764E+04  0.26815618978E+04  0.00000000000E+00 0. -1.
<mgrwt>
<rscale>  0 0.34319736E+04</rscale>
<asrwt>0</asrwt>
<pdfrwt beam="1">  1        2 0.46672527E+00 0.34319736E+04</pdfrwt>
<pdfrwt beam="2">  1       -2 0.14932752E+00 0.34319736E+04</pdfrwt>
<totfact> 0.41510132E-01</totfact>
</mgrwt>
</event>
<event>
 6    1  0.5196787E-004  0.1623273E+04  0.7818608E-02  0.8806377E-01
          2   -1    0    0  501    0  0.00000000000E+00  0.00000000000E+00  0.93036604509E+03  0.93036604509E+03  0.00000000000E+00 0.  1.
         -2   -1    0    0    0  501 -0.00000000000E+00 -0.00000000000E+00 -0.70805871932E+03  0.70805871932E+03  0.00000000000E+00 0. -1.
         23    2    1    2    0    0 -0.66291234678E+03 -0.20030365652E+03 -0.31102308224E+03  0.76434487193E+03  0.88957243801E+02 0.  0.
         13    1    3    3    0    0 -0.73213338664E+02 -0.45875499853E+02 -0.59518161393E+02  0.10491504173E+03  0.00000000000E+00 0.  1.
        -13    1    3    3    0    0 -0.58969900812E+03 -0.15442815666E+03 -0.25150492084E+03  0.65942983020E+03  0.00000000000E+00 0. -1.
         22    1    1    2    0    0  0.66291234678E+03  0.20030365652E+03  0.53333040801E+03  0.87407989248E+03  0.00000000000E+00 0.  1.
<mgrwt>
<rscale>  0 0.16232730E+04</rscale>
<asrwt>0</asrwt>
<pdfrwt beam="1">  1        2 0.14313324E+00 0.16232730E+04</pdfrwt>
<pdfrwt beam="2">  1       -2 0.10893211E+00 0.16232730E+04</pdfrwt>
<totfact> 0.18017321E+01</totfact>
</mgrwt>
</event>
<event>
 6    1  0.5196787E-004  0.1849705E+04  0.7818608E-02  0.8680305E-01
         -2   -1    0    0    0  501 -0.00000000000E+00  0.00000000000E+00  0.17942151487E+04  0.17942151487E+04  0.00000000000E+00 0. -1.
          2   -1    0    0  501    0  0.00000000000E+00 -0.00000000000E+00 -0.47672772398E+03  0.47672772398E+03  0.00000000000E+00 0.  1.
         23    2    1    2    0    0  0.50838380128E+03  0.76929657065E+03  0.62042321892E+03  0.11150147564E+04  0.89786599043E+02 0.  0.
         13    1    3    3    0    0  0.28745772665E+03  0.35387294080E+03  0.30997888295E+03  0.55131199036E+03  0.00000000000E+00 0. -1.
        -13    1    3    3    0    0  0.22092607463E+03  0.41542362985E+03  0.31044433598E+03  0.56370276603E+03  0.00000000000E+00 0.  1.
         22    1    1    2    0    0 -0.50838380128E+03 -0.76929657065E+03  0.69706420576E+03  0.11559281163E+04  0.00000000000E+00 0. -1.
<mgrwt>
<rscale>  0 0.18497050E+04</rscale>
<asrwt>0</asrwt>
<pdfrwt beam="1">  1        2 0.73342728E-01 0.18497050E+04</pdfrwt>
<pdfrwt beam="2">  1       -2 0.27603310E+00 0.18497050E+04</pdfrwt>
<totfact> 0.27266289E+00</totfact>
</mgrwt>
</event>
<event>
 6    1  0.5196787E-004  0.2391087E+04  0.7818608E-02  0.8442848E-01
         -2   -1    0    0    0  501 -0.00000000000E+00  0.00000000000E+00  0.77103655087E+03  0.77103655087E+03  0.00000000000E+00 0. -1.
          2   -1    0    0  501    0  0.00000000000E+00 -0.00000000000E+00 -0.18537703007E+04  0.18537703007E+04  0.00000000000E+00 0.  1.
         23    2    1    2    0    0 -0.14796937849E+03 -0.46491490649E+03  0.65405640717E+03  0.82078887584E+03  0.88678000080E+02 0.  0.
         11    1    3    3    0    0  0.67557738290E+01 -0.44151471234E+02  0.88195343396E+02  0.98860565894E+02  0.00000000000E+00 0. -1.
        -11    1    3    3    0    0 -0.15472515232E+03 -0.42076343526E+03  0.56586106378E+03  0.72192830995E+03  0.00000000000E+00 0.  1.
         22    1    1    2    0    0  0.14796937849E+03  0.46491490649E+03 -0.17367901570E+04  0.18040179757E+04  0.00000000000E+00 0.  1.
<mgrwt>
<rscale>  0 0.23910873E+04</rscale>
<asrwt>0</asrwt>
<pdfrwt beam="1">  1        2 0.28519543E+00 0.23910873E+04</pdfrwt>
<pdfrwt beam="2">  1       -2 0.11862101E+00 0.23910873E+04</pdfrwt>
<totfact> 0.39617078E+00</totfact>
</mgrwt>
</event>
<event>
 6    1  0.5196787E-004  0.2583627E+04  0.7818608E-02  0.8373784E-01
         -2   -1    0    0    0  501 -0.00000000000E+00  0.00000000000E+00  0.73431803436E+03  0.73431803436E+03  0.00000000000E+00 0. -1.
          2   -1    0    0  501    0  0.00000000000E+00 -0.00000000000E+00 -0.22725610393E+04  0.22725610393E+04  0.00000000000E+00 0.  1.
         23    2    1    2    0    0  0.24784024168E+03 -0.66862004719E+03  0.48144369395E+03  0.86500794902E+03  0.89292600567E+02 0.  0.
         13    1    3    3    0    0  0.12833814981E+03 -0.22318342933E+03  0.17094542157E+03  0.30903698967E+03  0.00000000000E+00 0. -1.
        -13    1    3    3    0    0  0.11950209186E+03 -0.44543661786E+03  0.31049827238E+03  0.55597095935E+03  0.00000000000E+00 0.  1.
         22    1    1    2    0    0 -0.24784024168E+03  0.66862004719E+03 -0.20196866989E+04  0.21418711247E+04  0.00000000000E+00 0.  1.
<mgrwt>
<rscale>  0 0.25836273E+04</rscale>
<asrwt>0</asrwt>
<pdfrwt beam="1">  1        2 0.34962477E+00 0.25836273E+04</pdfrwt>
<pdfrwt beam="2">  1       -2 0.11297201E+00 0.25836273E+04</pdfrwt>
<totfact> 0.25627207E+00</totfact>
</mgrwt>
</event>
<event>
 6    1  0.5196787E-004  0.5156070E+04  0.7818608E-02  0.7804873E-01
         -2   -1    0    0    0  501 -0.00000000000E+00  0.00000000000E+00  0.24635507223E+04  0.24635507223E+04  0.00000000000E+00 0. -1.
          2   -1    0    0  501    0  0.00000000000E+00 -0.00000000000E+00 -0.26978398173E+04  0.26978398173E+04  0.00000000000E+00 0.  1.
         23    2    1    2    0    0 -0.22704413930E+04 -0.83049213397E+03  0.77671260627E+03  0.25409429168E+04  0.92125621014E+02 0.  0.
         11    1    3    3    0    0 -0.38372124857E+03 -0.17486086734E+03  0.12172213944E+03  0.43890158209E+03  0.00000000000E+00 0. -1.
        -11    1    3    3    0    0 -0.18867201444E+04 -0.65563126663E+03  0.65499046683E+03  0.21020413347E+04  0.00000000000E+00 0.  1.
         22    1    1    2    0    0  0.22704413930E+04  0.83049213397E+03 -0.10110017013E+04  0.26204476227E+04  0.00000000000E+00 0.  1.
<mgrwt>
<rscale>  0 0.51560703E+04</rscale>
<asrwt>0</asrwt>
<pdfrwt beam="1">  1        2 0.41505228E+00 0.51560703E+04</pdfrwt>
<pdfrwt beam="2">  1       -2 0.37900780E+00 0.51560703E+04</pdfrwt>
<totfact> 0.19466374E-02</totfact>
</mgrwt>
</event>
<event>
 6    1  0.5196787E-004  0.1592459E+04  0.7818608E-02  0.8825194E-01
         -2   -1    0    0    0  501 -0.00000000000E+00  0.00000000000E+00  0.21697407576E+03  0.21697407576E+03  0.00000000000E+00 0. -1.
          2   -1    0    0  501    0  0.00000000000E+00 -0.00000000000E+00 -0.29219219803E+04  0.29219219803E+04  0.00000000000E+00 0.  1.
         23    2    1    2    0    0  0.38613646611E+03 -0.63712458203E+03 -0.81962837906E+03  0.11117160402E+04  0.95356021537E+02 0.  0.
         11    1    3    3    0    0  0.23482590829E+03 -0.29547547273E+03 -0.41215583210E+03  0.55885721980E+03  0.00000000000E+00 0.  1.
        -11    1    3    3    0    0  0.15131055782E+03 -0.34164910930E+03 -0.40747254696E+03  0.55285882042E+03  0.00000000000E+00 0. -1.
         22    1    1    2    0    0 -0.38613646611E+03  0.63712458203E+03 -0.18853195255E+04  0.20271800158E+04  0.00000000000E+00 0.  1.
<mgrwt>
<rscale>  0 0.15924589E+04</rscale>
<asrwt>0</asrwt>
<pdfrwt beam="1">  1        2 0.44952646E+00 0.15924589E+04</pdfrwt>
<pdfrwt beam="2">  1       -2 0.33380627E-01 0.15924589E+04</pdfrwt>
<totfact> 0.15752459E+01</totfact>
</mgrwt>
</event>
<event>
 6    1  0.5196787E-004  0.1443895E+04  0.7818608E-02  0.8922644E-01
         -2   -1    0    0    0  501 -0.00000000000E+00  0.00000000000E+00  0.15478905832E+03  0.15478905832E+03  0.00000000000E+00 0. -1.
          2   -1    0    0  501    0  0.00000000000E+00 -0.00000000000E+00 -0.33672148013E+04  0.33672148013E+04  0.00000000000E+00 0.  1.
         23    2    1    2    0    0 -0.67481612013E+03  0.53802188244E+02 -0.10227106859E+04  0.12300345094E+04  0.93681778739E+02 0.  0.
         13    1    3    3    0    0 -0.24899174310E+03 -0.14658518165E+02 -0.32322646202E+03  0.40827332271E+03  0.00000000000E+00 0. -1.
        -13    1    3    3    0    0 -0.42582437703E+03  0.68460706409E+02 -0.69948422390E+03  0.82176118665E+03  0.00000000000E+00 0.  1.
         22    1    1    2    0    0  0.67481612013E+03 -0.53802188244E+02 -0.21897150571E+04  0.22919693503E+04  0.00000000000E+00 0.  1.
<mgrwt>
<rscale>  0 0.14438947E+04</rscale>
<asrwt>0</asrwt>
<pdfrwt beam="1">  1        2 0.51803301E+00 0.14438947E+04</pdfrwt>
<pdfrwt beam="2">  1       -2 0.23813703E-01 0.14438947E+04</pdfrwt>
<totfact> 0.15463116E+01</totfact>
</mgrwt>
</event>
<event>
 6    1  0.5196787E-004  0.2688021E+04  0.7818608E-02  0.8338902E-01
         -1   -1    0    0    0  501 -0.00000000000E+00  0.00000000000E+00  0.10936097114E+04  0.10936097114E+04  0.00000000000E+00 0. -1.
          1   -1    0    0  501    0  0.00000000000E+00 -0.00000000000E+00 -0.16517447426E+04  0.16517447426E+04  0.00000000000E+00 0.  1.
         23    2    1    2    0    0 -0.60592640458E+01 -0.58189746774E+03  0.95603752631E+03  0.11232077554E+04  0.94586111342E+02 0.  0.
         11    1    3    3    0    0 -0.22917408291E+02 -0.42913611562E+03  0.62814956083E+03  0.76108796082E+03  0.00000000000E+00 0. -1.
        -11    1    3    3    0    0  0.16858144246E+02 -0.15276135212E+03  0.32788796547E+03  0.36211979458E+03  0.00000000000E+00 0.  1.
         22    1    1    2    0    0  0.60592640458E+01  0.58189746774E+03 -0.15141725575E+04  0.16221466985E+04  0.00000000000E+00 0.  1.
<mgrwt>
<rscale>  0 0.26880209E+04</rscale>
<asrwt>0</asrwt>
<pdfrwt beam="1">  1        1 0.25411458E+00 0.26880209E+04</pdfrwt>
<pdfrwt beam="2">  1       -1 0.16824765E+00 0.26880209E+04</pdfrwt>
<totfact> 0.11393926E+00</totfact>
</mgrwt>
</event>
<event>
 6    1  0.5196787E-004  0.2045043E+04  0.7818608E-02  0.8585846E-01
         -1   -1    0    0    0  501 -0.00000000000E+00  0.00000000000E+00  0.67983337006E+03  0.67983337006E+03  0.00000000000E+00 0.  1.
          1   -1    0    0  501    0  0.00000000000E+00 -0.00000000000E+00 -0.15379511536E+04  0.15379511536E+04  0.00000000000E+00 0. -1.
         23    2    1    2    0    0  0.21367577135E+03  0.64350471136E+03 -0.12569024922E+04  0.14311557086E+04  0.92989992138E+02 0.  0.
         13    1    3    3    0    0  0.13110030135E+03  0.31987803034E+03 -0.55539303926E+03  0.65419467390E+03  0.00000000000E+00 0.  1.
        -13    1    3    3    0    0  0.82575470000E+02  0.32362668103E+03 -0.70150945294E+03  0.77696103473E+03  0.00000000000E+00 0. -1.
         22    1    1    2    0    0 -0.21367577135E+03 -0.64350471136E+03  0.39878470864E+03  0.78662881504E+03  0.00000000000E+00 0.  1.
<mgrwt>
<rscale>  0 0.20450433E+04</rscale>
<asrwt>0</asrwt>
<pdfrwt beam="1">  1        1 0.23660787E+00 0.20450433E+04</pdfrwt>
<pdfrwt beam="2">  1       -1 0.10458975E+00 0.20450433E+04</pdfrwt>
<totfact> 0.48883584E+00</totfact>
</mgrwt>
</event>
<event>
 6    1  0.5196787E-004  0.5496475E+04  0.7818608E-02  0.7756174E-01
          1   -1    0    0  501    0  0.00000000000E+00  0.00000000000E+00  0.18437773611E+04  0.18437773611E+04  0.00000000000E+00 0.  1.
         -1   -1    0    0    0  501 -0.00000000000E+00 -0.00000000000E+00 -0.40963787677E+04  0.40963787677E+04  0.00000000000E+00 0. -1.
         23    2    1    2    0    0 -0.25243287158E+04 -0.69113207112E+03 -0.22315593955E+03  0.26282763138E+04  0.90215315882E+02 0.  0.
         13    1    3    3    0    0 -0.11854305757E+04 -0.34288172129E+03 -0.14678585298E+03  0.12427226606E+04  0.00000000000E+00 0. -1.
        -13    1    3    3    0    0 -0.13388981401E+04 -0.34825034983E+03 -0.76370086573E+02  0.13855536532E+04  0.00000000000E+00 0.  1.
         22    1    1    2    0    0  0.25243287158E+04  0.69113207112E+03 -0.20294454670E+04  0.33118798150E+04  0.00000000000E+00 0.  1.
<mgrwt>
<rscale>  0 0.54964754E+04</rscale>
<asrwt>0</asrwt>
<pdfrwt beam="1">  1        1 0.28365806E+00 0.54964754E+04</pdfrwt>
<pdfrwt beam="2">  1       -1 0.63021212E+00 0.54964754E+04</pdfrwt>
<totfact> 0.91590002E-04</totfact>
</mgrwt>
</event>
<event>
 6    1  0.5196787E-004  0.1909747E+04  0.7818608E-02  0.8650020E-01
         -2   -1    0    0    0  501 -0.00000000000E+00  0.00000000000E+00  0.80803715701E+03  0.80803715701E+03  0.00000000000E+00 0. -1.
          2   -1    0    0  501    0  0.00000000000E+00 -0.00000000000E+00 -0.11283927136E+04  0.11283927136E+04  0.00000000000E+00 0.  1.
         23    2    1    2    0    0  0.94101457798E+03 -0.12905451419E+03 -0.79940571117E+02  0.95665292206E+03  0.81429815028E+02 0.  0.
         13    1    3    3    0    0  0.54783678262E+03 -0.10897731623E+03 -0.24809143762E+02  0.55912135485E+03  0.00000000000E+00 0.  1.
        -13    1    3    3    0    0  0.39317779536E+03 -0.20077197966E+02 -0.55131427354E+02  0.39753156721E+03  0.00000000000E+00 0. -1.
         22    1    1    2    0    0 -0.94101457798E+03  0.12905451419E+03 -0.24041498542E+03  0.97977694850E+03  0.00000000000E+00 0. -1.
<mgrwt>
<rscale>  0 0.19097468E+04</rscale>
<asrwt>0</asrwt>
<pdfrwt beam="1">  1        2 0.17359888E+00 0.19097468E+04</pdfrwt>
<pdfrwt beam="2">  1       -2 0.12431341E+00 0.19097468E+04</pdfrwt>
<totfact> 0.95224690E+00</totfact>
</mgrwt>
</event>
<event>
 6    1  0.5196787E-004  0.1680025E+04  0.7818608E-02  0.8772839E-01
          2   -1    0    0  501    0  0.00000000000E+00  0.00000000000E+00  0.76179057509E+03  0.76179057509E+03  0.00000000000E+00 0.  1.
         -2   -1    0    0    0  501 -0.00000000000E+00 -0.00000000000E+00 -0.92626660719E+03  0.92626660719E+03  0.00000000000E+00 0. -1.
         23    2    1    2    0    0  0.74853981753E+03  0.15596811832E+03  0.26125316929E+03  0.81290961457E+03  0.89055660287E+02 0.  0.
         13    1    3    3    0    0  0.32087781174E+03  0.75111254492E+02  0.67019790693E+02  0.33629737281E+03  0.00000000000E+00 0.  1.
        -13    1    3    3    0    0  0.42766200580E+03  0.80856863825E+02  0.19423337860E+03  0.47661224175E+03  0.00000000000E+00 0. -1.
         22    1    1    2    0    0 -0.74853981753E+03 -0.15596811832E+03 -0.42572920139E+03  0.87514756772E+03  0.00000000000E+00 0. -1.
<mgrwt>
<rscale>  0 0.16800252E+04</rscale>
<asrwt>0</asrwt>
<pdfrwt beam="1">  1        2 0.11719855E+00 0.16800252E+04</pdfrwt>
<pdfrwt beam="2">  1       -2 0.14250256E+00 0.16800252E+04</pdfrwt>
<totfact> 0.12005106E+01</totfact>
</mgrwt>
</event>
<event>
 6    1  0.5196787E-004  0.3070355E+04  0.7818608E-02  0.8223921E-01
         -2   -1    0    0    0  501 -0.00000000000E+00  0.00000000000E+00  0.17364091497E+04  0.17364091497E+04  0.00000000000E+00 0. -1.
          2   -1    0    0  501    0  0.00000000000E+00 -0.00000000000E+00 -0.13572666191E+04  0.13572666191E+04  0.00000000000E+00 0.  1.
         23    2    1    2    0    0  0.52843266580E+03  0.12715644778E+04 -0.49106654344E+03  0.14647555326E+04  0.90802624977E+02 0.  0.
         13    1    3    3    0    0  0.38539971068E+03  0.10222688487E+04 -0.39466775238E+03  0.11616062891E+04  0.00000000000E+00 0. -1.
        -13    1    3    3    0    0  0.14303295512E+03  0.24929562908E+03 -0.96398791059E+02  0.30314924352E+03  0.00000000000E+00 0.  1.
         22    1    1    2    0    0 -0.52843266580E+03 -0.12715644778E+04  0.87020907397E+03  0.16289202362E+04  0.00000000000E+00 0. -1.
<mgrwt>
<rscale>  0 0.30703551E+04</rscale>
<asrwt>0</asrwt>
<pdfrwt beam="1">  1        2 0.20881025E+00 0.30703551E+04</pdfrwt>
<pdfrwt beam="2">  1       -2 0.26713987E+00 0.30703551E+04</pdfrwt>
<totfact> 0.65759133E-01</totfact>
</mgrwt>
</event>
<event>
 6    1  0.5196787E-004  0.4599479E+04  0.7818608E-02  0.7893449E-01
         -2   -1    0    0    0  501 -0.00000000000E+00  0.00000000000E+00  0.12415896273E+04  0.12415896273E+04  0.00000000000E+00 0. -1.
          2   -1    0    0  501    0  0.00000000000E+00 -0.00000000000E+00 -0.42597022532E+04  0.42597022532E+04  0.00000000000E+00 0.  1.
         23    2    1    2    0    0  0.15569248503E+04 -0.15295693694E+02  0.51319728732E+03  0.16419656891E+04  0.91820046765E+02 0.  0.
         13    1    3    3    0    0  0.12086195090E+04 -0.23131246711E+02  0.35940571762E+03  0.12611378362E+04  0.00000000000E+00 0.  1.
        -13    1    3    3    0    0  0.34830534129E+03  0.78355530169E+01  0.15379156969E+03  0.38082785293E+03  0.00000000000E+00 0. -1.
         22    1    1    2    0    0 -0.15569248503E+04  0.15295693694E+02 -0.35313099133E+04  0.38593261914E+04  0.00000000000E+00 0.  1.
<mgrwt>
<rscale>  0 0.45994792E+04</rscale>
<asrwt>0</asrwt>
<pdfrwt beam="1">  1        2 0.65533879E+00 0.45994792E+04</pdfrwt>
<pdfrwt beam="2">  1       -2 0.19101379E+00 0.45994792E+04</pdfrwt>
<totfact> 0.23488210E-02</totfact>
</mgrwt>
</event>
<event>
 6    1  0.5196787E-004  0.1797832E+04  0.7818608E-02  0.8707453E-01
         -2   -1    0    0    0  501 -0.00000000000E+00  0.00000000000E+00  0.32207603392E+03  0.32207603392E+03  0.00000000000E+00 0. -1.
          2   -1    0    0  501    0  0.00000000000E+00 -0.00000000000E+00 -0.25088797439E+04  0.25088797439E+04  0.00000000000E+00 0.  1.
         23    2    1    2    0    0 -0.57809971066E+03 -0.28955597072E+03 -0.11859554189E+03  0.66403931377E+03  0.94028570267E+02 0.  0.
         11    1    3    3    0    0 -0.13992970348E+03 -0.27603740652E+02 -0.18562972370E+02  0.14382931675E+03  0.00000000000E+00 0.  1.
        -11    1    3    3    0    0 -0.43817000718E+03 -0.26195223006E+03 -0.10003256952E+03  0.52020999701E+03  0.00000000000E+00 0. -1.
         22    1    1    2    0    0  0.57809971066E+03  0.28955597072E+03 -0.20682081681E+04  0.21669164641E+04  0.00000000000E+00 0.  1.
<mgrwt>
<rscale>  0 0.17978321E+04</rscale>
<asrwt>0</asrwt>
<pdfrwt beam="1">  1        2 0.38598152E+00 0.17978321E+04</pdfrwt>
<pdfrwt beam="2">  1       -2 0.49550156E-01 0.17978321E+04</pdfrwt>
<totfact> 0.12536247E+01</totfact>
</mgrwt>
</event>
<event>
 6    1  0.5196787E-004  0.2252869E+04  0.7818608E-02  0.8496740E-01
         -2   -1    0    0    0  501 -0.00000000000E+00  0.00000000000E+00  0.11771183409E+04  0.11771183409E+04  0.00000000000E+00 0. -1.
          2   -1    0    0  501    0  0.00000000000E+00 -0.00000000000E+00 -0.10779328226E+04  0.10779328226E+04  0.00000000000E+00 0.  1.
         23    2    1    2    0    0 -0.13747970574E+03  0.46724983658E+03  0.10642081615E+04  0.11740831800E+04  0.93323219945E+02 0.  0.
         13    1    3    3    0    0 -0.13878982573E+03  0.33131425272E+03  0.74221371796E+03  0.82456834338E+03  0.00000000000E+00 0. -1.
        -13    1    3    3    0    0  0.13101199944E+01  0.13593558386E+03  0.32199444355E+03  0.34951483666E+03  0.00000000000E+00 0.  1.
         22    1    1    2    0    0  0.13747970574E+03 -0.46724983658E+03 -0.96502264325E+03  0.10809679835E+04  0.00000000000E+00 0.  1.
<mgrwt>
<rscale>  0 0.22528688E+04</rscale>
<asrwt>0</asrwt>
<pdfrwt beam="1">  1        2 0.16583582E+00 0.22528688E+04</pdfrwt>
<pdfrwt beam="2">  1       -2 0.18109513E+00 0.22528688E+04</pdfrwt>
<totfact> 0.36460055E+00</totfact>
</mgrwt>
</event>
<event>
 6    1  0.5196787E-004  0.3818344E+04  0.7818608E-02  0.8042230E-01
          2   -1    0    0  501    0  0.00000000000E+00  0.00000000000E+00  0.28231714812E+04  0.28231714812E+04  0.00000000000E+00 0.  1.
         -2   -1    0    0    0  501 -0.00000000000E+00 -0.00000000000E+00 -0.12910790434E+04  0.12910790434E+04  0.00000000000E+00 0. -1.
         23    2    1    2    0    0  0.44293272001E+03 -0.16516716004E+04 -0.14573841612E+03  0.17185617208E+04  0.89477551390E+02 0.  0.
         11    1    3    3    0    0  0.35350812035E+03 -0.14364437352E+04 -0.12670542570E+03  0.14847197919E+04  0.00000000000E+00 0.  1.
        -11    1    3    3    0    0  0.89424599662E+02 -0.21522786519E+03 -0.19032990418E+02  0.23384192888E+03  0.00000000000E+00 0. -1.
         22    1    1    2    0    0 -0.44293272001E+03  0.16516716004E+04  0.16778308540E+04  0.23956888038E+04  0.00000000000E+00 0.  1.
<mgrwt>
<rscale>  0 0.38183439E+04</rscale>
<asrwt>0</asrwt>
<pdfrwt beam="1">  1        2 0.43433407E+00 0.38183439E+04</pdfrwt>
<pdfrwt beam="2">  1       -2 0.19862755E+00 0.38183439E+04</pdfrwt>
<totfact> 0.24330785E-01</totfact>
</mgrwt>
</event>
<event>
 6    1  0.5880878E-004  0.4445596E+04  0.7818608E-02  0.7920231E-01
          2   -1    0    0  501    0  0.00000000000E+00  0.00000000000E+00  0.26351030798E+04  0.26351030798E+04  0.00000000000E+00 0.  1.
         -2   -1    0    0    0  501 -0.00000000000E+00 -0.00000000000E+00 -0.18750051227E+04  0.18750051227E+04  0.00000000000E+00 0. -1.
         23    2    1    2    0    0  0.70738506139E+03  0.99656604913E+03  0.22627278012E+04  0.25732463171E+04  0.90122088266E+02 0.  0.
         11    1    3    3    0    0  0.32842875282E+03  0.46392563795E+03  0.95846096699E+03  0.11143338227E+04  0.00000000000E+00 0.  1.
        -11    1    3    3    0    0  0.37895630857E+03  0.53264041118E+03  0.13042668342E+04  0.14589124943E+04  0.00000000000E+00 0. -1.
         22    1    1    2    0    0 -0.70738506139E+03 -0.99656604913E+03 -0.15026298440E+04  0.19368618855E+04  0.00000000000E+00 0. -1.
<mgrwt>
<rscale>  0 0.44455964E+04</rscale>
<asrwt>0</asrwt>
<pdfrwt beam="1">  1        2 0.40540047E+00 0.44455964E+04</pdfrwt>
<pdfrwt beam="2">  1       -2 0.28846233E+00 0.44455964E+04</pdfrwt>
<totfact> 0.82564073E-02</totfact>
</mgrwt>
</event>
<event>
 6    1  0.5196787E-004  0.3439448E+04  0.7818608E-02  0.8128292E-01
         -2   -1    0    0    0  501 -0.00000000000E+00  0.00000000000E+00  0.80345187639E+03  0.80345187639E+03  0.00000000000E+00 0. -1.
          2   -1    0    0  501    0  0.00000000000E+00 -0.00000000000E+00 -0.36809298957E+04  0.36809298957E+04  0.00000000000E+00 0.  1.
         23    2    1    2    0    0  0.72273542099E+03  0.14921514790E+04 -0.85028882449E+03  0.18655349731E+04  0.91471993738E+02 0.  0.
         13    1    3    3    0    0  0.13613356123E+03  0.34542341476E+03 -0.16158936413E+03  0.40492073861E+03  0.00000000000E+00 0. -1.
        -13    1    3    3    0    0  0.58660185976E+03  0.11467280643E+04 -0.68869946036E+03  0.14606142345E+04  0.00000000000E+00 0.  1.
         22    1    1    2    0    0 -0.72273542099E+03 -0.14921514790E+04 -0.20271891948E+04  0.26188467990E+04  0.00000000000E+00 0.  1.
<mgrwt>
<rscale>  0 0.34394476E+04</rscale>
<asrwt>0</asrwt>
<pdfrwt beam="1">  1        2 0.56629691E+00 0.34394476E+04</pdfrwt>
<pdfrwt beam="2">  1       -2 0.12360798E+00 0.34394476E+04</pdfrwt>
<totfact> 0.24505632E-01</totfact>
</mgrwt>
</event>
<event>
 6    1  0.5196787E-004  0.3796294E+04  0.7818608E-02  0.8046951E-01
          2   -1    0    0  501    0  0.00000000000E+00  0.00000000000E+00  0.14057638455E+04  0.14057638455E+04  0.00000000000E+00 0.  1.
         -2   -1    0    0    0  501 -0.00000000000E+00 -0.00000000000E+00 -0.25629918742E+04  0.25629918742E+04  0.00000000000E+00 0. -1.
         23    2    1    2    0    0 -0.18445626855E+04 -0.21950914126E+03 -0.17647654504E+03  0.18681678885E+04  0.91167564479E+02 0.  0.
         13    1    3    3    0    0 -0.28373668860E+03 -0.60459876953E+01 -0.44851177493E+02  0.28732332058E+03  0.00000000000E+00 0. -1.
        -13    1    3    3    0    0 -0.15608259969E+04 -0.21346315357E+03 -0.13162536754E+03  0.15808445679E+04  0.00000000000E+00 0.  1.
         22    1    1    2    0    0  0.18445626855E+04  0.21950914126E+03 -0.98075148361E+03  0.21005878312E+04  0.00000000000E+00 0. -1.
<mgrwt>
<rscale>  0 0.37962936E+04</rscale>
<asrwt>0</asrwt>
<pdfrwt beam="1">  1        2 0.21627136E+00 0.37962936E+04</pdfrwt>
<pdfrwt beam="2">  1       -2 0.39430644E+00 0.37962936E+04</pdfrwt>
<totfact> 0.93076342E-02</totfact>
</mgrwt>
</event>
<event>
 6    1  0.5196787E-004  0.6315819E+04  0.7818608E-02  0.7652431E-01
         -2   -1    0    0    0  501 -0.00000000000E+00  0.00000000000E+00  0.20411035793E+04  0.20411035793E+04  0.00000000000E+00 0. -1.
          2   -1    0    0  501    0  0.00000000000E+00 -0.00000000000E+00 -0.48857845498E+04  0.48857845498E+04  0.00000000000E+00 0.  1.
         23    2    1    2    0    0 -0.30344456867E+04 -0.42920095521E+03 -0.59023097806E+03  0.31223357436E+04  0.92378584933E+02 0.  0.
         13    1    3    3    0    0 -0.70651944822E+03 -0.11775974680E+03 -0.17357485735E+03  0.73699750324E+03  0.00000000000E+00 0. -1.
        -13    1    3    3    0    0 -0.23279262385E+04 -0.31144120840E+03 -0.41665612071E+03  0.23853382404E+04  0.00000000000E+00 0.  1.
         22    1    1    2    0    0  0.30344456867E+04  0.42920095521E+03 -0.22544499924E+04  0.38045523855E+04  0.00000000000E+00 0.  1.
<mgrwt>
<rscale>  0 0.63158190E+04</rscale>
<asrwt>0</asrwt>
<pdfrwt beam="1">  1        2 0.75165916E+00 0.63158190E+04</pdfrwt>
<pdfrwt beam="2">  1       -2 0.31401593E+00 0.63158190E+04</pdfrwt>
<totfact> 0.79516929E-04</totfact>
</mgrwt>
</event>
<event>
 6    1  0.5196787E-004  0.3488583E+04  0.7818608E-02  0.8116501E-01
         -2   -1    0    0    0  501 -0.00000000000E+00  0.00000000000E+00  0.14753704774E+04  0.14753704774E+04  0.00000000000E+00 0. -1.
          2   -1    0    0  501    0  0.00000000000E+00 -0.00000000000E+00 -0.20622299475E+04  0.20622299475E+04  0.00000000000E+00 0.  1.
         23    2    1    2    0    0 -0.57890813749E+03 -0.16369486628E+04 -0.13683034457E+03  0.17439277206E+04  0.88463523508E+02 0.  0.
         13    1    3    3    0    0 -0.28884222641E+03 -0.91552954937E+03 -0.10483719481E+03  0.96571995162E+03  0.00000000000E+00 0. -1.
        -13    1    3    3    0    0 -0.29006591108E+03 -0.72141911344E+03 -0.31993149756E+02  0.77820776894E+03  0.00000000000E+00 0.  1.
         22    1    1    2    0    0  0.57890813749E+03  0.16369486628E+04 -0.45002912556E+03  0.17936727043E+04  0.00000000000E+00 0. -1.
<mgrwt>
<rscale>  0 0.34885832E+04</rscale>
<asrwt>0</asrwt>
<pdfrwt beam="1">  1        2 0.31726615E+00 0.34885832E+04</pdfrwt>
<pdfrwt beam="2">  1       -2 0.22698007E+00 0.34885832E+04</pdfrwt>
<totfact> 0.45312219E-01</totfact>
</mgrwt>
</event>
<event>
 6    1  0.5196787E-004  0.6174941E+04  0.7818608E-02  0.7669082E-01
         -2   -1    0    0    0  501 -0.00000000000E+00  0.00000000000E+00  0.21806605713E+04  0.21806605713E+04  0.00000000000E+00 0. -1.
          2   -1    0    0  501    0  0.00000000000E+00 -0.00000000000E+00 -0.43713699936E+04  0.43713699936E+04  0.00000000000E+00 0.  1.
         23    2    1    2    0    0 -0.75337451906E+03 -0.12547135240E+04  0.17881765323E+04  0.23125243870E+04  0.91184081419E+02 0.  0.
         13    1    3    3    0    0 -0.16589057369E+03 -0.30234565328E+03  0.48015669042E+03  0.59117089226E+03  0.00000000000E+00 0. -1.
        -13    1    3    3    0    0 -0.58748394537E+03 -0.95236787070E+03  0.13080198419E+04  0.17213534948E+04  0.00000000000E+00 0.  1.
         22    1    1    2    0    0  0.75337451906E+03  0.12547135240E+04 -0.39788859545E+04  0.42395061779E+04  0.00000000000E+00 0.  1.
<mgrwt>
<rscale>  0 0.61749410E+04</rscale>
<asrwt>0</asrwt>
<pdfrwt beam="1">  1        2 0.67251846E+00 0.61749410E+04</pdfrwt>
<pdfrwt beam="2">  1       -2 0.33548624E+00 0.61749410E+04</pdfrwt>
<totfact> 0.20591087E-03</totfact>
</mgrwt>
</event>
<event>
 6    1  0.5196787E-004  0.2815467E+04  0.7818608E-02  0.8298483E-01
          2   -1    0    0  501    0  0.00000000000E+00  0.00000000000E+00  0.23993953651E+04  0.23993953651E+04  0.00000000000E+00 0.  1.
         -2   -1    0    0    0  501 -0.00000000000E+00 -0.00000000000E+00 -0.82592188445E+03  0.82592188445E+03  0.00000000000E+00 0. -1.
         23    2    1    2    0    0  0.72038614981E+03  0.26942143052E+02 -0.59556168222E+03  0.93962356455E+03  0.92285653401E+02 0.  0.
         13    1    3    3    0    0  0.42853693493E+03  0.60769170761E+02 -0.34550195635E+03  0.55381260238E+03  0.00000000000E+00 0. -1.
        -13    1    3    3    0    0  0.29184921488E+03 -0.33827027709E+02 -0.25005972587E+03  0.38581096217E+03  0.00000000000E+00 0.  1.
         22    1    1    2    0    0 -0.72038614981E+03 -0.26942143052E+02  0.21690351629E+04  0.22856936850E+04  0.00000000000E+00 0.  1.
<mgrwt>
<rscale>  0 0.28154667E+04</rscale>
<asrwt>0</asrwt>
<pdfrwt beam="1">  1        2 0.36913775E+00 0.28154667E+04</pdfrwt>
<pdfrwt beam="2">  1       -2 0.12706491E+00 0.28154667E+04</pdfrwt>
<totfact> 0.15906511E+00</totfact>
</mgrwt>
</event>
<event>
 6    1  0.5196787E-004  0.2460791E+04  0.7818608E-02  0.8417089E-01
         -1   -1    0    0    0  501 -0.00000000000E+00  0.00000000000E+00  0.11429167865E+04  0.11429167865E+04  0.00000000000E+00 0. -1.
          1   -1    0    0  501    0  0.00000000000E+00 -0.00000000000E+00 -0.13245697318E+04  0.13245697318E+04  0.00000000000E+00 0.  1.
         23    2    1    2    0    0  0.54641371253E+03 -0.10254361906E+04  0.30911184841E+03  0.12061628449E+04  0.95871514505E+02 0.  0.
         13    1    3    3    0    0  0.35219503682E+03 -0.67522998427E+03  0.15562910054E+03  0.77730128815E+03  0.00000000000E+00 0.  1.
        -13    1    3    3    0    0  0.19421867571E+03 -0.35020620634E+03  0.15348274787E+03  0.42886155674E+03  0.00000000000E+00 0. -1.
         22    1    1    2    0    0 -0.54641371253E+03  0.10254361906E+04 -0.49076479370E+03  0.12613236734E+04  0.00000000000E+00 0.  1.
<mgrwt>
<rscale>  0 0.24607909E+04</rscale>
<asrwt>0</asrwt>
<pdfrwt beam="1">  1        1 0.20377996E+00 0.24607909E+04</pdfrwt>
<pdfrwt beam="2">  1       -1 0.17583335E+00 0.24607909E+04</pdfrwt>
<totfact> 0.17274911E+00</totfact>
</mgrwt>
</event>
<event>
 6    1  0.5196787E-004  0.2441007E+04  0.7818608E-02  0.8424309E-01
          2   -1    0    0  501    0  0.00000000000E+00  0.00000000000E+00  0.16975862112E+04  0.16975862112E+04  0.00000000000E+00 0.  1.
         -2   -1    0    0    0  501 -0.00000000000E+00 -0.00000000000E+00 -0.87749833373E+03  0.87749833373E+03  0.00000000000E+00 0. -1.
         23    2    1    2    0    0 -0.76021521806E+03  0.51221347818E+03  0.12579765677E+04  0.15591926559E+04  0.91032238287E+02 0.  0.
         13    1    3    3    0    0 -0.56193072651E+03  0.36819357541E+03  0.98569684374E+03  0.11928666808E+04  0.00000000000E+00 0. -1.
        -13    1    3    3    0    0 -0.19828449154E+03  0.14401990277E+03  0.27227972399E+03  0.36632597516E+03  0.00000000000E+00 0.  1.
         22    1    1    2    0    0  0.76021521806E+03 -0.51221347818E+03 -0.43788869028E+03  0.10158918890E+04  0.00000000000E+00 0. -1.
<mgrwt>
<rscale>  0 0.24410072E+04</rscale>
<asrwt>0</asrwt>
<pdfrwt beam="1">  1        2 0.26116711E+00 0.24410072E+04</pdfrwt>
<pdfrwt beam="2">  1       -2 0.13499974E+00 0.24410072E+04</pdfrwt>
<totfact> 0.34786812E+00</totfact>
</mgrwt>
</event>
<event>
 6    1  0.5196787E-004  0.2010158E+04  0.7818608E-02  0.8601886E-01
          2   -1    0    0  501    0  0.00000000000E+00  0.00000000000E+00  0.23732702998E+04  0.23732702998E+04  0.00000000000E+00 0.  1.
         -2   -1    0    0    0  501 -0.00000000000E+00 -0.00000000000E+00 -0.42565060998E+03  0.42565060998E+03  0.00000000000E+00 0. -1.
         23    2    1    2    0    0 -0.54480985623E+03  0.34685993204E+03 -0.87758449158E+02  0.66353013511E+03  0.12426223439E+03 0.  0.
         13    1    3    3    0    0 -0.11901325108E+03  0.19479076091E+02 -0.16030220524E+02  0.12165753700E+03  0.00000000000E+00 0.  1.
        -13    1    3    3    0    0 -0.42579660515E+03  0.32738085595E+03 -0.71728228634E+02  0.54187259811E+03  0.00000000000E+00 0. -1.
         22    1    1    2    0    0  0.54480985623E+03 -0.34685993204E+03  0.20353781389E+04  0.21353907746E+04  0.00000000000E+00 0.  1.
<mgrwt>
<rscale>  0 0.20101582E+04</rscale>
<asrwt>0</asrwt>
<pdfrwt beam="1">  1        2 0.36511850E+00 0.20101582E+04</pdfrwt>
<pdfrwt beam="2">  1       -2 0.65484710E-01 0.20101582E+04</pdfrwt>
<totfact> 0.82154311E+00</totfact>
</mgrwt>
</event>
<event>
 6    1  0.5196787E-004  0.3978189E+04  0.7818608E-02  0.8008961E-01
         -2   -1    0    0    0  501 -0.00000000000E+00  0.00000000000E+00  0.12855148416E+04  0.12855148416E+04  0.00000000000E+00 0. -1.
          2   -1    0    0  501    0  0.00000000000E+00 -0.00000000000E+00 -0.30777527051E+04  0.30777527051E+04  0.00000000000E+00 0.  1.
         23    2    1    2    0    0 -0.71820137511E+03 -0.16939481350E+04 -0.17224507503E+04  0.25220332486E+04  0.92420889302E+02 0.  0.
         11    1    3    3    0    0 -0.54496122279E+03 -0.12208031812E+04 -0.12950104313E+04  0.18612885748E+04  0.00000000000E+00 0. -1.
        -11    1    3    3    0    0 -0.17324015231E+03 -0.47314495379E+03 -0.42744031897E+03  0.66074467379E+03  0.00000000000E+00 0.  1.
         22    1    1    2    0    0  0.71820137511E+03  0.16939481350E+04 -0.69787113159E+02  0.18412342981E+04  0.00000000000E+00 0. -1.
<mgrwt>
<rscale>  0 0.39781889E+04</rscale>
<asrwt>0</asrwt>
<pdfrwt beam="1">  1        2 0.47350041E+00 0.39781889E+04</pdfrwt>
<pdfrwt beam="2">  1       -2 0.19777152E+00 0.39781889E+04</pdfrwt>
<totfact> 0.16891871E-01</totfact>
</mgrwt>
</event>
<event>
 6    1  0.5196787E-004  0.1830063E+04  0.7818608E-02  0.8690474E-01
          2   -1    0    0  501    0  0.00000000000E+00  0.00000000000E+00  0.10806533554E+04  0.10806533554E+04  0.00000000000E+00 0.  1.
         -2   -1    0    0    0  501 -0.00000000000E+00 -0.00000000000E+00 -0.77479297050E+03  0.77479297050E+03  0.00000000000E+00 0. -1.
         23    2    1    2    0    0 -0.24330003682E+03  0.82840751433E+03  0.45276068933E+03  0.97964177171E+03  0.96186492574E+02 0.  0.
         13    1    3    3    0    0 -0.94874990213E+02  0.46288320776E+03  0.21596411292E+03  0.51952153552E+03  0.00000000000E+00 0. -1.
        -13    1    3    3    0    0 -0.14842504660E+03  0.36552430657E+03  0.23679657641E+03  0.46012023619E+03  0.00000000000E+00 0.  1.
         22    1    1    2    0    0  0.24330003682E+03 -0.82840751433E+03 -0.14690030443E+03  0.87580455420E+03  0.00000000000E+00 0. -1.
<mgrwt>
<rscale>  0 0.18300630E+04</rscale>
<asrwt>0</asrwt>
<pdfrwt beam="1">  1        2 0.16625436E+00 0.18300630E+04</pdfrwt>
<pdfrwt beam="2">  1       -2 0.11919892E+00 0.18300630E+04</pdfrwt>
<totfact> 0.11389841E+01</totfact>
</mgrwt>
</event>
<event>
 6    1  0.5196787E-004  0.3110796E+04  0.7818608E-02  0.8212781E-01
         -2   -1    0    0    0  501 -0.00000000000E+00  0.00000000000E+00  0.77649743206E+03  0.77649743206E+03  0.00000000000E+00 0. -1.
          2   -1    0    0  501    0  0.00000000000E+00 -0.00000000000E+00 -0.31156097234E+04  0.31156097234E+04  0.00000000000E+00 0.  1.
         23    2    1    2    0    0 -0.59230961667E+03 -0.12345260808E+04 -0.20900092763E+04  0.25003680857E+04  0.93896022648E+02 0.  0.
         13    1    3    3    0    0 -0.27214964033E+03 -0.64670142285E+03 -0.10113372294E+04  0.12308903886E+04  0.00000000000E+00 0. -1.
        -13    1    3    3    0    0 -0.32015997634E+03 -0.58782465791E+03 -0.10786720469E+04  0.12694776972E+04  0.00000000000E+00 0.  1.
         22    1    1    2    0    0  0.59230961667E+03  0.12345260808E+04 -0.24910301502E+03  0.13917390697E+04  0.00000000000E+00 0. -1.
<mgrwt>
<rscale>  0 0.31107960E+04</rscale>
<asrwt>0</asrwt>
<pdfrwt beam="1">  1        2 0.47932456E+00 0.31107960E+04</pdfrwt>
<pdfrwt beam="2">  1       -2 0.11946115E+00 0.31107960E+04</pdfrwt>
<totfact> 0.66933580E-01</totfact>
</mgrwt>
</event>
<event>
 6    1  0.5196787E-004  0.1789784E+04  0.7818608E-02  0.8711751E-01
         -2   -1    0    0    0  501 -0.00000000000E+00  0.00000000000E+00  0.10888776628E+04  0.10888776628E+04  0.00000000000E+00 0. -1.
          2   -1    0    0  501    0  0.00000000000E+00 -0.00000000000E+00 -0.73546538656E+03  0.73546538656E+03  0.00000000000E+00 0.  1.
         23    2    1    2    0    0  0.36889544372E+03 -0.25594634788E+03 -0.60902925963E+03  0.76232323252E+03  0.92885361392E+02 0.  0.
         11    1    3    3    0    0  0.15553982941E+03 -0.15783018527E+03 -0.33192943021E+03  0.39909917634E+03  0.00000000000E+00 0.  1.
        -11    1    3    3    0    0  0.21335561431E+03 -0.98116162617E+02 -0.27709982942E+03  0.36322405618E+03  0.00000000000E+00 0. -1.
         22    1    1    2    0    0 -0.36889544372E+03  0.25594634788E+03  0.96244153586E+03  0.10620198168E+04  0.00000000000E+00 0. -1.
<mgrwt>
<rscale>  0 0.17897842E+04</rscale>
<asrwt>0</asrwt>
<pdfrwt beam="1">  1        2 0.11314852E+00 0.17897842E+04</pdfrwt>
<pdfrwt beam="2">  1       -2 0.16751964E+00 0.17897842E+04</pdfrwt>
<totfact> 0.80634434E+00</totfact>
</mgrwt>
</event>
<event>
 6    1  0.5196787E-004  0.1156936E+04  0.7818608E-02  0.9151409E-01
          2   -1    0    0  501    0  0.00000000000E+00  0.00000000000E+00  0.95284749745E+03  0.95284749745E+03  0.00000000000E+00 0.  1.
         -2   -1    0    0    0  501 -0.00000000000E+00 -0.00000000000E+00 -0.35118421902E+03  0.35118421902E+03  0.00000000000E+00 0. -1.
         23    2    1    2    0    0 -0.35278959006E+03 -0.28745829502E+03 -0.93487515475E+02  0.47317228642E+03  0.89773776019E+02 0.  0.
         13    1    3    3    0    0 -0.26472798556E+03 -0.20240232256E+03 -0.28220180655E+02  0.33443083756E+03  0.00000000000E+00 0. -1.
        -13    1    3    3    0    0 -0.88061604502E+02 -0.85055972454E+02 -0.65267334820E+02  0.13874144886E+03  0.00000000000E+00 0.  1.
         22    1    1    2    0    0  0.35278959006E+03  0.28745829502E+03  0.69515079390E+03  0.83085943004E+03  0.00000000000E+00 0.  1.
<mgrwt>
<rscale>  0 0.11569356E+04</rscale>
<asrwt>0</asrwt>
<pdfrwt beam="1">  1        2 0.14659192E+00 0.11569356E+04</pdfrwt>
<pdfrwt beam="2">  1       -2 0.54028342E-01 0.11569356E+04</pdfrwt>
<totfact> 0.86295361E+01</totfact>
</mgrwt>
</event>
<event>
 6    1  0.5196787E-004  0.2212988E+04  0.7818608E-02  0.8513042E-01
         -2   -1    0    0    0  501 -0.00000000000E+00  0.00000000000E+00  0.44649394232E+03  0.44649394232E+03  0.00000000000E+00 0. -1.
          2   -1    0    0  501    0  0.00000000000E+00 -0.00000000000E+00 -0.27420950696E+04  0.27420950696E+04  0.00000000000E+00 0.  1.
         23    2    1    2    0    0 -0.87115771203E+03  0.46237841301E+03 -0.18659512549E+04  0.21128062417E+04  0.97296315176E+02 0.  0.
         11    1    3    3    0    0 -0.11773431300E+03  0.82635255428E+02 -0.33919572469E+03  0.36843411018E+03  0.00000000000E+00 0. -1.
        -11    1    3    3    0    0 -0.75342339903E+03  0.37974315758E+03 -0.15267555302E+04  0.17443721315E+04  0.00000000000E+00 0.  1.
         22    1    1    2    0    0  0.87115771203E+03 -0.46237841301E+03 -0.42964987239E+03  0.10757827703E+04  0.00000000000E+00 0. -1.
<mgrwt>
<rscale>  0 0.22129879E+04</rscale>
<asrwt>0</asrwt>
<pdfrwt beam="1">  1        2 0.42186079E+00 0.22129879E+04</pdfrwt>
<pdfrwt beam="2">  1       -2 0.68691375E-01 0.22129879E+04</pdfrwt>
<totfact> 0.44343075E+00</totfact>
</mgrwt>
</event>
<event>
 6    1  0.5196787E-004  0.1478660E+04  0.7818608E-02  0.8898769E-01
         -2   -1    0    0    0  501 -0.00000000000E+00  0.00000000000E+00  0.23803179990E+03  0.23803179990E+03  0.00000000000E+00 0. -1.
          2   -1    0    0  501    0  0.00000000000E+00 -0.00000000000E+00 -0.22963701891E+04  0.22963701891E+04  0.00000000000E+00 0.  1.
         23    2    1    2    0    0  0.51122721317E+03  0.41801856809E+03 -0.47110841601E+03  0.81527669556E+03  0.81487201094E+02 0.  0.
         13    1    3    3    0    0  0.18502717798E+03  0.20231437662E+03 -0.18569754352E+03  0.33113402309E+03  0.00000000000E+00 0.  1.
        -13    1    3    3    0    0  0.32620003518E+03  0.21570419147E+03 -0.28541087249E+03  0.48414267247E+03  0.00000000000E+00 0. -1.
         22    1    1    2    0    0 -0.51122721317E+03 -0.41801856809E+03 -0.15872299731E+04  0.17191252934E+04  0.00000000000E+00 0.  1.
<mgrwt>
<rscale>  0 0.14786604E+04</rscale>
<asrwt>0</asrwt>
<pdfrwt beam="1">  1        2 0.35328771E+00 0.14786604E+04</pdfrwt>
<pdfrwt beam="2">  1       -2 0.36620278E-01 0.14786604E+04</pdfrwt>
<totfact> 0.31007149E+01</totfact>
</mgrwt>
</event>
<event>
 6    1  0.5196787E-004  0.8236604E+03  0.7818608E-02  0.9526387E-01
          2   -1    0    0  501    0  0.00000000000E+00  0.00000000000E+00  0.84379027973E+03  0.84379027973E+03  0.00000000000E+00 0.  1.
         -2   -1    0    0    0  501 -0.00000000000E+00 -0.00000000000E+00 -0.20100267696E+03  0.20100267696E+03  0.00000000000E+00 0. -1.
         23    2    1    2    0    0 -0.14656036436E+03 -0.37142725713E+03  0.22743596294E+03  0.46863748075E+03  0.91955551092E+02 0.  0.
         13    1    3    3    0    0 -0.11495760996E+03 -0.27449708026E+03  0.12101245950E+03  0.32125988625E+03  0.00000000000E+00 0. -1.
        -13    1    3    3    0    0 -0.31602754403E+02 -0.96930176877E+02  0.10642350344E+03  0.14737759450E+03  0.00000000000E+00 0.  1.
         22    1    1    2    0    0  0.14656036436E+03  0.37142725713E+03  0.41535163983E+03  0.57615547594E+03  0.00000000000E+00 0. -1.
<mgrwt>
<rscale>  0 0.82366038E+03</rscale>
<asrwt>0</asrwt>
<pdfrwt beam="1">  1        2 0.12981389E+00 0.82366038E+03</pdfrwt>
<pdfrwt beam="2">  1       -2 0.30923489E-01 0.82366038E+03</pdfrwt>
<totfact> 0.31176887E+02</totfact>
</mgrwt>
</event>
<event>
 6    1  0.5196787E-004  0.1729551E+04  0.7818608E-02  0.8744688E-01
          2   -1    0    0  501    0  0.00000000000E+00  0.00000000000E+00  0.22153508202E+04  0.22153508202E+04  0.00000000000E+00 0.  1.
         -2   -1    0    0    0  501 -0.00000000000E+00 -0.00000000000E+00 -0.33757019283E+03  0.33757019283E+03  0.00000000000E+00 0. -1.
         23    2    1    2    0    0  0.57417706796E+03  0.33118371218E+03  0.12699414247E+03  0.68085924260E+03  0.89887927055E+02 0.  0.
         11    1    3    3    0    0  0.85961467967E+01  0.23126816607E+02  0.15508761952E+01  0.24721419925E+02  0.00000000000E+00 0. -1.
        -11    1    3    3    0    0  0.56558092116E+03  0.30805689558E+03  0.12544326627E+03  0.65613782268E+03  0.00000000000E+00 0.  1.
         22    1    1    2    0    0 -0.57417706796E+03 -0.33118371218E+03  0.17507864849E+04  0.18720617704E+04  0.00000000000E+00 0.  1.
<mgrwt>
<rscale>  0 0.17295507E+04</rscale>
<asrwt>0</asrwt>
<pdfrwt beam="1">  1        2 0.34082319E+00 0.17295507E+04</pdfrwt>
<pdfrwt beam="2">  1       -2 0.51933877E-01 0.17295507E+04</pdfrwt>
<totfact> 0.16832300E+01</totfact>
</mgrwt>
</event>
<event>
 6    1  0.5196787E-004  0.4549372E+04  0.7818608E-02  0.7902050E-01
         -1   -1    0    0    0  501 -0.00000000000E+00  0.00000000000E+00  0.11418922674E+04  0.11418922674E+04  0.00000000000E+00 0. -1.
          1   -1    0    0  501    0  0.00000000000E+00 -0.00000000000E+00 -0.45312479173E+04  0.45312479173E+04  0.00000000000E+00 0.  1.
         23    2    1    2    0    0 -0.64160739685E+03  0.74159462302E+03 -0.42534592571E+04  0.43661215618E+04  0.97361206079E+02 0.  0.
         11    1    3    3    0    0 -0.47497127422E+03  0.60980111111E+03 -0.33520409753E+04  0.34400049137E+04  0.00000000000E+00 0.  1.
        -11    1    3    3    0    0 -0.16663612263E+03  0.13179351191E+03 -0.90141828176E+03  0.92611664807E+03  0.00000000000E+00 0. -1.
         22    1    1    2    0    0  0.64160739685E+03 -0.74159462302E+03  0.86410360720E+03  0.13070186229E+04  0.00000000000E+00 0. -1.
<mgrwt>
<rscale>  0 0.45493722E+04</rscale>
<asrwt>0</asrwt>
<pdfrwt beam="1">  1        1 0.69711508E+00 0.45493722E+04</pdfrwt>
<pdfrwt beam="2">  1       -1 0.17567573E+00 0.45493722E+04</pdfrwt>
<totfact> 0.49687773E-03</totfact>
</mgrwt>
</event>
<event>
 6    1  0.5196787E-004  0.1753863E+04  0.7818608E-02  0.8731227E-01
         -2   -1    0    0    0  501 -0.00000000000E+00  0.00000000000E+00  0.25760308477E+03  0.25760308477E+03  0.00000000000E+00 0. -1.
          2   -1    0    0  501    0  0.00000000000E+00 -0.00000000000E+00 -0.29852472249E+04  0.29852472249E+04  0.00000000000E+00 0.  1.
         23    2    1    2    0    0 -0.19503756764E+03  0.68885709914E+03 -0.22961848242E+04  0.24069550428E+04  0.91673744706E+02 0.  0.
         11    1    3    3    0    0 -0.19449575449E+03  0.56434954252E+03 -0.18709359126E+04  0.19638534043E+04  0.00000000000E+00 0.  1.
        -11    1    3    3    0    0 -0.54181315067E+00  0.12450755662E+03 -0.42524891156E+03  0.44310163845E+03  0.00000000000E+00 0. -1.
         22    1    1    2    0    0  0.19503756764E+03 -0.68885709914E+03 -0.43145931590E+03  0.83589526683E+03  0.00000000000E+00 0.  1.
<mgrwt>
<rscale>  0 0.17538630E+04</rscale>
<asrwt>0</asrwt>
<pdfrwt beam="1">  1        2 0.45926881E+00 0.17538630E+04</pdfrwt>
<pdfrwt beam="2">  1       -2 0.39631244E-01 0.17538630E+04</pdfrwt>
<totfact> 0.10192316E+01</totfact>
</mgrwt>
</event>
<event>
 6    1  0.5324030E-004  0.4104183E+04  0.7818608E-02  0.7983853E-01
          2   -1    0    0  501    0  0.00000000000E+00  0.00000000000E+00  0.23362691526E+04  0.23362691526E+04  0.00000000000E+00 0.  1.
         -2   -1    0    0    0  501 -0.00000000000E+00 -0.00000000000E+00 -0.18024803064E+04  0.18024803064E+04  0.00000000000E+00 0. -1.
         23    2    1    2    0    0  0.12068246959E+04 -0.17857539740E+03  0.19297100130E+04  0.22848587062E+04  0.92106209510E+02 0.  0.
         13    1    3    3    0    0  0.32715087187E+03 -0.70291691740E+02  0.59589565394E+03  0.68341806039E+03  0.00000000000E+00 0.  1.
        -13    1    3    3    0    0  0.87967382399E+03 -0.10828370567E+03  0.13338143591E+04  0.16014406458E+04  0.00000000000E+00 0. -1.
         22    1    1    2    0    0 -0.12068246959E+04  0.17857539740E+03 -0.13959211669E+04  0.18538907528E+04  0.00000000000E+00 0. -1.
<mgrwt>
<rscale>  0 0.41041828E+04</rscale>
<asrwt>0</asrwt>
<pdfrwt beam="1">  1        2 0.35942603E+00 0.41041828E+04</pdfrwt>
<pdfrwt beam="2">  1       -2 0.27730466E+00 0.41041828E+04</pdfrwt>
<totfact> 0.14793116E-01</totfact>
</mgrwt>
</event>
<event>
 6    1  0.5196787E-004  0.2669766E+04  0.7818608E-02  0.8344882E-01
          2   -1    0    0  501    0  0.00000000000E+00  0.00000000000E+00  0.20666753967E+04  0.20666753967E+04  0.00000000000E+00 0.  1.
         -2   -1    0    0    0  501 -0.00000000000E+00 -0.00000000000E+00 -0.86221199430E+03  0.86221199430E+03  0.00000000000E+00 0. -1.
         23    2    1    2    0    0  0.63126917782E+03  0.25010342506E+03 -0.65600450882E+03  0.94838408459E+03  0.89654660909E+02 0.  0.
         13    1    3    3    0    0  0.38809100716E+03  0.10630630755E+03 -0.38428970986E+03  0.55641193550E+03  0.00000000000E+00 0.  1.
        -13    1    3    3    0    0  0.24317817066E+03  0.14379711751E+03 -0.27171479896E+03  0.39197214909E+03  0.00000000000E+00 0. -1.
         22    1    1    2    0    0 -0.63126917782E+03 -0.25010342506E+03  0.18604679113E+04  0.19805033065E+04  0.00000000000E+00 0.  1.
<mgrwt>
<rscale>  0 0.26697658E+04</rscale>
<asrwt>0</asrwt>
<pdfrwt beam="1">  1        2 0.31795006E+00 0.26697658E+04</pdfrwt>
<pdfrwt beam="2">  1       -2 0.13264800E+00 0.26697658E+04</pdfrwt>
<totfact> 0.22256739E+00</totfact>
</mgrwt>
</event>
<event>
 6    1  0.5741436E-004  0.3859693E+04  0.7818608E-02  0.8033465E-01
          1   -1    0    0  501    0  0.00000000000E+00  0.00000000000E+00  0.27606776972E+04  0.27606776972E+04  0.00000000000E+00 0.  1.
         -1   -1    0    0    0  501 -0.00000000000E+00 -0.00000000000E+00 -0.13490554114E+04  0.13490554114E+04  0.00000000000E+00 0. -1.
         23    2    1    2    0    0 -0.56994421073E+02 -0.14890019331E+04  0.20101904758E+04  0.25039127579E+04  0.91313907700E+02 0.  0.
         11    1    3    3    0    0 -0.72344028803E+02 -0.87585880645E+03  0.11457479262E+04  0.14439877485E+04  0.00000000000E+00 0. -1.
        -11    1    3    3    0    0  0.15349607730E+02 -0.61314312663E+03  0.86444254953E+03  0.10599250094E+04  0.00000000000E+00 0.  1.
         22    1    1    2    0    0  0.56994421073E+02  0.14890019331E+04 -0.59856819000E+03  0.16058203507E+04  0.00000000000E+00 0. -1.
<mgrwt>
<rscale>  0 0.38596928E+04</rscale>
<asrwt>0</asrwt>
<pdfrwt beam="1">  1        1 0.42471965E+00 0.38596928E+04</pdfrwt>
<pdfrwt beam="2">  1       -1 0.20754699E+00 0.38596928E+04</pdfrwt>
<totfact> 0.93994184E-02</totfact>
</mgrwt>
</event>
<event>
 6    1  0.5196787E-004  0.2040094E+04  0.7818608E-02  0.8588101E-01
         -2   -1    0    0    0  501 -0.00000000000E+00  0.00000000000E+00  0.71645998207E+03  0.71645998207E+03  0.00000000000E+00 0.  1.
          2   -1    0    0  501    0  0.00000000000E+00 -0.00000000000E+00 -0.14522742262E+04  0.14522742262E+04  0.00000000000E+00 0. -1.
         23    2    1    2    0    0  0.27833705011E+03  0.51911336663E+03 -0.12510780323E+04  0.13861442951E+04  0.96174649183E+02 0.  0.
         13    1    3    3    0    0  0.17551299546E+03  0.37532367472E+03 -0.78433809840E+03  0.88705068907E+03  0.00000000000E+00 0. -1.
        -13    1    3    3    0    0  0.10282405465E+03  0.14378969191E+03 -0.46673993387E+03  0.49909360603E+03  0.00000000000E+00 0.  1.
         22    1    1    2    0    0 -0.27833705011E+03 -0.51911336663E+03  0.51526378812E+03  0.78258991319E+03  0.00000000000E+00 0.  1.
<mgrwt>
<rscale>  0 0.20400945E+04</rscale>
<asrwt>0</asrwt>
<pdfrwt beam="1">  1        2 0.22342680E+00 0.20400945E+04</pdfrwt>
<pdfrwt beam="2">  1       -2 0.11022461E+00 0.20400945E+04</pdfrwt>
<totfact> 0.81805140E+00</totfact>
</mgrwt>
</event>
<event>
 6    1  0.5196787E-004  0.1379259E+04  0.7818608E-02  0.8968970E-01
          2   -1    0    0  501    0  0.00000000000E+00  0.00000000000E+00  0.80153115988E+03  0.80153115988E+03  0.00000000000E+00 0.  1.
         -2   -1    0    0    0  501 -0.00000000000E+00 -0.00000000000E+00 -0.59335060454E+03  0.59335060454E+03  0.00000000000E+00 0. -1.
         23    2    1    2    0    0  0.52685815344E+03  0.32136246355E+03  0.40951411816E+03  0.74573728871E+03  0.86999678057E+02 0.  0.
         13    1    3    3    0    0  0.22874825929E+03  0.97256552747E+02  0.19111833436E+03  0.31354556433E+03  0.00000000000E+00 0. -1.
        -13    1    3    3    0    0  0.29810989414E+03  0.22410591080E+03  0.21839578379E+03  0.43219172438E+03  0.00000000000E+00 0.  1.
         22    1    1    2    0    0 -0.52685815344E+03 -0.32136246355E+03 -0.20133356282E+03  0.64914447571E+03  0.00000000000E+00 0.  1.
<mgrwt>
<rscale>  0 0.13792592E+04</rscale>
<asrwt>0</asrwt>
<pdfrwt beam="1">  1        2 0.12331249E+00 0.13792592E+04</pdfrwt>
<pdfrwt beam="2">  1       -2 0.91284708E-01 0.13792592E+04</pdfrwt>
<totfact> 0.34263001E+01</totfact>
</mgrwt>
</event>
<event>
 6    1  0.5196787E-004  0.2915201E+04  0.7818608E-02  0.8268369E-01
          2   -1    0    0  501    0  0.00000000000E+00  0.00000000000E+00  0.10224301066E+04  0.10224301066E+04  0.00000000000E+00 0. -1.
         -2   -1    0    0    0  501 -0.00000000000E+00 -0.00000000000E+00 -0.20779895243E+04  0.20779895243E+04  0.00000000000E+00 0.  1.
         23    2    1    2    0    0  0.16792185241E+03  0.11474197700E+04 -0.14649665393E+04  0.18706293772E+04  0.91418972013E+02 0.  0.
         13    1    3    3    0    0  0.14544568578E+03  0.68525448696E+03 -0.88574651343E+03  0.11292807647E+04  0.00000000000E+00 0. -1.
        -13    1    3    3    0    0  0.22476166631E+02  0.46216528302E+03 -0.57922002589E+03  0.74134861252E+03  0.00000000000E+00 0.  1.
         22    1    1    2    0    0 -0.16792185241E+03 -0.11474197700E+04  0.40940712163E+03  0.12297902538E+04  0.00000000000E+00 0. -1.
<mgrwt>
<rscale>  0 0.29152009E+04</rscale>
<asrwt>0</asrwt>
<pdfrwt beam="1">  1        2 0.15729694E+00 0.29152009E+04</pdfrwt>
<pdfrwt beam="2">  1       -2 0.31969069E+00 0.29152009E+04</pdfrwt>
<totfact> 0.50514463E-01</totfact>
</mgrwt>
</event>
<event>
 6    1  0.5196787E-004  0.2209045E+04  0.7818608E-02  0.8514673E-01
         -2   -1    0    0    0  501 -0.00000000000E+00  0.00000000000E+00  0.81471688974E+03  0.81471688974E+03  0.00000000000E+00 0. -1.
          2   -1    0    0  501    0  0.00000000000E+00 -0.00000000000E+00 -0.14974164794E+04  0.14974164794E+04  0.00000000000E+00 0.  1.
         23    2    1    2    0    0 -0.22158319301E+03  0.21884778474E+03 -0.14490470234E+04  0.14849200632E+04  0.90867230402E+02 0.  0.
         11    1    3    3    0    0 -0.10745996320E+03  0.54033355584E+02 -0.43950369333E+03  0.45566516617E+03  0.00000000000E+00 0.  1.
        -11    1    3    3    0    0 -0.11412322980E+03  0.16481442916E+03 -0.10095433301E+04  0.10292548970E+04  0.00000000000E+00 0. -1.
         22    1    1    2    0    0  0.22158319301E+03 -0.21884778474E+03  0.76634743378E+03  0.82721330597E+03  0.00000000000E+00 0. -1.
<mgrwt>
<rscale>  0 0.22090455E+04</rscale>
<asrwt>0</asrwt>
<pdfrwt beam="1">  1        2 0.23037176E+00 0.22090455E+04</pdfrwt>
<pdfrwt beam="2">  1       -2 0.12534106E+00 0.22090455E+04</pdfrwt>
<totfact> 0.55407619E+00</totfact>
</mgrwt>
</event>
<event>
 6    1  0.5196787E-004  0.2046291E+04  0.7818608E-02  0.8585279E-01
          2   -1    0    0  501    0  0.00000000000E+00  0.00000000000E+00  0.30359531962E+04  0.30359531962E+04  0.00000000000E+00 0.  1.
         -2   -1    0    0    0  501 -0.00000000000E+00 -0.00000000000E+00 -0.34481005232E+03  0.34481005232E+03  0.00000000000E+00 0. -1.
         23    2    1    2    0    0 -0.10132153244E+04 -0.11773839663E+03  0.14283413159E+04  0.17574530254E+04  0.89524288987E+02 0.  0.
         13    1    3    3    0    0 -0.84431340529E+03 -0.64342044700E+02  0.11745187757E+04  0.14479293420E+04  0.00000000000E+00 0.  1.
        -13    1    3    3    0    0 -0.16890191910E+03 -0.53396351931E+02  0.25382254016E+03  0.30952368337E+03  0.00000000000E+00 0. -1.
         22    1    1    2    0    0  0.10132153244E+04  0.11773839663E+03  0.12628018280E+04  0.16233102231E+04  0.00000000000E+00 0.  1.
<mgrwt>
<rscale>  0 0.20462915E+04</rscale>
<asrwt>0</asrwt>
<pdfrwt beam="1">  1        2 0.46706971E+00 0.20462915E+04</pdfrwt>
<pdfrwt beam="2">  1       -2 0.53047702E-01 0.20462915E+04</pdfrwt>
<totfact> 0.51378767E+00</totfact>
</mgrwt>
</event>
<event>
 6    1  0.5196787E-004  0.2473580E+04  0.7818608E-02  0.8412459E-01
         -2   -1    0    0    0  501 -0.00000000000E+00  0.00000000000E+00  0.64987032346E+03  0.64987032346E+03  0.00000000000E+00 0. -1.
          2   -1    0    0  501    0  0.00000000000E+00 -0.00000000000E+00 -0.23537761828E+04  0.23537761828E+04  0.00000000000E+00 0.  1.
         23    2    1    2    0    0  0.45539756296E+02 -0.11650734577E+04 -0.13478149600E+04  0.17845194580E+04  0.91839525142E+02 0.  0.
         13    1    3    3    0    0  0.50602433920E+02 -0.10221199546E+04 -0.12229321720E+04  0.15946325298E+04  0.00000000000E+00 0. -1.
        -13    1    3    3    0    0 -0.50626776233E+01 -0.14295350309E+03 -0.12488278803E+03  0.18988692819E+03  0.00000000000E+00 0.  1.
         22    1    1    2    0    0 -0.45539756296E+02  0.11650734577E+04 -0.35609089933E+03  0.12191270483E+04  0.00000000000E+00 0. -1.
<mgrwt>
<rscale>  0 0.24735798E+04</rscale>
<asrwt>0</asrwt>
<pdfrwt beam="1">  1        2 0.36211941E+00 0.24735798E+04</pdfrwt>
<pdfrwt beam="2">  1       -2 0.99980050E-01 0.24735798E+04</pdfrwt>
<totfact> 0.31203917E+00</totfact>
</mgrwt>
</event>
<event>
 6    1  0.5196787E-004  0.8357250E+03  0.7818608E-02  0.9509699E-01
          2   -1    0    0  501    0  0.00000000000E+00  0.00000000000E+00  0.10792312417E+04  0.10792312417E+04  0.00000000000E+00 0.  1.
         -2   -1    0    0    0  501 -0.00000000000E+00 -0.00000000000E+00 -0.16179023285E+03  0.16179023285E+03  0.00000000000E+00 0. -1.
         23    2    1    2    0    0  0.32038363485E+03 -0.25629992959E+03  0.38844844735E+03  0.57156762438E+03  0.86383016860E+02 0.  0.
         13    1    3    3    0    0  0.18340343165E+03 -0.95633269823E+02  0.21480524246E+03  0.29820099468E+03  0.00000000000E+00 0.  1.
        -13    1    3    3    0    0  0.13698020320E+03 -0.16066665977E+03  0.17364320488E+03  0.27336662970E+03  0.00000000000E+00 0. -1.
         22    1    1    2    0    0 -0.32038363485E+03  0.25629992959E+03  0.52899256155E+03  0.66945385021E+03  0.00000000000E+00 0.  1.
<mgrwt>
<rscale>  0 0.83572501E+03</rscale>
<asrwt>0</asrwt>
<pdfrwt beam="1">  1        2 0.16603557E+00 0.83572501E+03</pdfrwt>
<pdfrwt beam="2">  1       -2 0.24890806E-01 0.83572501E+03</pdfrwt>
<totfact> 0.32549285E+02</totfact>
</mgrwt>
</event>
<event>
 6    1  0.5196787E-004  0.2112922E+04  0.7818608E-02  0.8555572E-01
          2   -1    0    0  501    0  0.00000000000E+00  0.00000000000E+00  0.11703968585E+04  0.11703968585E+04  0.00000000000E+00 0.  1.
         -2   -1    0    0    0  501 -0.00000000000E+00 -0.00000000000E+00 -0.95361679786E+03  0.95361679786E+03  0.00000000000E+00 0. -1.
         23    2    1    2    0    0 -0.82885590036E+03 -0.22822687935E+03 -0.50521303058E+03  0.10013544758E+04  0.91547626015E+02 0.  0.
         11    1    3    3    0    0 -0.71739677032E+02  0.15097049281E+01 -0.59695441238E+02  0.93340270914E+02  0.00000000000E+00 0.  1.
        -11    1    3    3    0    0 -0.75711622333E+03 -0.22973658428E+03 -0.44551758934E+03  0.90801420484E+03  0.00000000000E+00 0. -1.
         22    1    1    2    0    0  0.82885590036E+03  0.22822687935E+03  0.72199309121E+03  0.11226591806E+04  0.00000000000E+00 0.  1.
<mgrwt>
<rscale>  0 0.21129222E+04</rscale>
<asrwt>0</asrwt>
<pdfrwt beam="1">  1        2 0.18006105E+00 0.21129222E+04</pdfrwt>
<pdfrwt beam="2">  1       -2 0.14671028E+00 0.21129222E+04</pdfrwt>
<totfact> 0.57720286E+00</totfact>
</mgrwt>
</event>
<event>
 6    1  0.5196787E-004  0.8338631E+03  0.7818608E-02  0.9512255E-01
         -2   -1    0    0    0  501 -0.00000000000E+00  0.00000000000E+00  0.21043878620E+03  0.21043878620E+03  0.00000000000E+00 0. -1.
          2   -1    0    0  501    0  0.00000000000E+00 -0.00000000000E+00 -0.82604498149E+03  0.82604498149E+03  0.00000000000E+00 0.  1.
         23    2    1    2    0    0 -0.36077804219E+03 -0.17554078156E+03 -0.42568742357E+03  0.59258681843E+03  0.94731162091E+02 0.  0.
         11    1    3    3    0    0 -0.91881105155E+02 -0.85165994391E+02 -0.16620695774E+03  0.20813490069E+03  0.00000000000E+00 0. -1.
        -11    1    3    3    0    0 -0.26889693704E+03 -0.90374787164E+02 -0.25948046583E+03  0.38445191774E+03  0.00000000000E+00 0.  1.
         22    1    1    2    0    0  0.36077804219E+03  0.17554078156E+03 -0.18991877172E+03  0.44389694927E+03  0.00000000000E+00 0. -1.
<mgrwt>
<rscale>  0 0.83386307E+03</rscale>
<asrwt>0</asrwt>
<pdfrwt beam="1">  1        2 0.12708384E+00 0.83386307E+03</pdfrwt>
<pdfrwt beam="2">  1       -2 0.32375198E-01 0.83386307E+03</pdfrwt>
<totfact> 0.29429266E+02</totfact>
</mgrwt>
</event>
<event>
 6    1  0.5196787E-004  0.1806577E+04  0.7818608E-02  0.8702810E-01
         -2   -1    0    0    0  501 -0.00000000000E+00  0.00000000000E+00  0.57814493095E+03  0.57814493095E+03  0.00000000000E+00 0. -1.
          2   -1    0    0  501    0  0.00000000000E+00 -0.00000000000E+00 -0.14112898028E+04  0.14112898028E+04  0.00000000000E+00 0.  1.
         23    2    1    2    0    0  0.15161911690E+03 -0.57537738070E+03  0.32816733399E+03  0.68456174137E+03  0.82966811528E+02 0.  0.
         13    1    3    3    0    0  0.60143164121E+02 -0.29122394726E+03  0.12018596642E+03  0.32073860724E+03  0.00000000000E+00 0. -1.
        -13    1    3    3    0    0  0.91475952782E+02 -0.28415343344E+03  0.20798136756E+03  0.36382313413E+03  0.00000000000E+00 0.  1.
         22    1    1    2    0    0 -0.15161911690E+03  0.57537738070E+03 -0.11613122059E+04  0.13048729924E+04  0.00000000000E+00 0.  1.
<mgrwt>
<rscale>  0 0.18065769E+04</rscale>
<asrwt>0</asrwt>
<pdfrwt beam="1">  1        2 0.21712150E+00 0.18065769E+04</pdfrwt>
<pdfrwt beam="2">  1       -2 0.88945376E-01 0.18065769E+04</pdfrwt>
<totfact> 0.14609536E+01</totfact>
</mgrwt>
</event>
<event>
 6    1  0.5196787E-004  0.1757972E+04  0.7818608E-02  0.8728974E-01
          2   -1    0    0  501    0  0.00000000000E+00  0.00000000000E+00  0.97944268760E+03  0.97944268760E+03  0.00000000000E+00 0.  1.
         -2   -1    0    0    0  501 -0.00000000000E+00 -0.00000000000E+00 -0.78883253773E+03  0.78883253773E+03  0.00000000000E+00 0. -1.
         23    2    1    2    0    0 -0.23949184078E+03  0.30122356947E+03  0.88797458878E+03  0.97177717683E+03  0.88091035253E+02 0.  0.
         13    1    3    3    0    0 -0.24036027949E+03  0.26265162023E+03  0.79245303784E+03  0.86875816816E+03  0.00000000000E+00 0.  1.
        -13    1    3    3    0    0  0.86843870541E+00  0.38571949247E+02  0.95521550941E+02  0.10301900868E+03  0.00000000000E+00 0. -1.
         22    1    1    2    0    0  0.23949184078E+03 -0.30122356947E+03 -0.69736443891E+03  0.79649804850E+03  0.00000000000E+00 0. -1.
<mgrwt>
<rscale>  0 0.17579719E+04</rscale>
<asrwt>0</asrwt>
<pdfrwt beam="1">  1        2 0.15068349E+00 0.17579719E+04</pdfrwt>
<pdfrwt beam="2">  1       -2 0.12135885E+00 0.17579719E+04</pdfrwt>
<totfact> 0.12702227E+01</totfact>
</mgrwt>
</event>
<event>
 6    1  0.5196787E-004  0.6511071E+04  0.7818608E-02  0.7630074E-01
         -2   -1    0    0    0  501 -0.00000000000E+00  0.00000000000E+00  0.36378890726E+04  0.36378890726E+04  0.00000000000E+00 0. -1.
          2   -1    0    0  501    0  0.00000000000E+00 -0.00000000000E+00 -0.29133687096E+04  0.29133687096E+04  0.00000000000E+00 0.  1.
         23    2    1    2    0    0 -0.11636441096E+04  0.14755825292E+04 -0.23117331725E+04  0.29805089888E+04  0.88950305577E+02 0.  0.
         13    1    3    3    0    0 -0.82767310727E+03  0.99048474661E+03 -0.16165577696E+04  0.20686618448E+04  0.00000000000E+00 0.  1.
        -13    1    3    3    0    0 -0.33597100236E+03  0.48509778264E+03 -0.69517540287E+03  0.91184714393E+03  0.00000000000E+00 0. -1.
         22    1    1    2    0    0  0.11636441096E+04 -0.14755825292E+04  0.30362535355E+04  0.35707487935E+04  0.00000000000E+00 0. -1.
<mgrwt>
<rscale>  0 0.65110712E+04</rscale>
<asrwt>0</asrwt>
<pdfrwt beam="1">  1        2 0.44821057E+00 0.65110712E+04</pdfrwt>
<pdfrwt beam="2">  1       -2 0.55967524E+00 0.65110712E+04</pdfrwt>
<totfact> 0.99596484E-04</totfact>
</mgrwt>
</event>
<event>
 6    1  0.5196787E-004  0.1719159E+04  0.7818608E-02  0.8750512E-01
          2   -1    0    0  501    0  0.00000000000E+00  0.00000000000E+00  0.14055977969E+04  0.14055977969E+04  0.00000000000E+00 0. -1.
         -2   -1    0    0    0  501 -0.00000000000E+00 -0.00000000000E+00 -0.52566708236E+03  0.52566708236E+03  0.00000000000E+00 0.  1.
         23    2    1    2    0    0 -0.43285876033E+02  0.27187475282E+03  0.13531902568E+04  0.13837576714E+04  0.88723581357E+02 0.  0.
         13    1    3    3    0    0 -0.55423612263E+02  0.17501063957E+03  0.71735203433E+03  0.74046906885E+03  0.00000000000E+00 0.  1.
        -13    1    3    3    0    0  0.12137736229E+02  0.96864113250E+02  0.63583822244E+03  0.64328860257E+03  0.00000000000E+00 0. -1.
         22    1    1    2    0    0  0.43285876033E+02 -0.27187475282E+03 -0.47325954225E+03  0.54750720782E+03  0.00000000000E+00 0.  1.
<mgrwt>
<rscale>  0 0.17191585E+04</rscale>
<asrwt>0</asrwt>
<pdfrwt beam="1">  1        2 0.21624581E+00 0.17191585E+04</pdfrwt>
<pdfrwt beam="2">  1       -2 0.80871859E-01 0.17191585E+04</pdfrwt>
<totfact> 0.18410572E+01</totfact>
</mgrwt>
</event>
<event>
 6    1  0.5196787E-004  0.3398229E+04  0.7818608E-02  0.8138341E-01
          2   -1    0    0  501    0  0.00000000000E+00  0.00000000000E+00  0.18712353699E+04  0.18712353699E+04  0.00000000000E+00 0.  1.
         -2   -1    0    0    0  501 -0.00000000000E+00 -0.00000000000E+00 -0.15428254234E+04  0.15428254234E+04  0.00000000000E+00 0. -1.
         23    2    1    2    0    0 -0.14164893723E+04  0.49572688407E+03 -0.63345804101E+03  0.16315408606E+04  0.92028281595E+02 0.  0.
         13    1    3    3    0    0 -0.32008016925E+03  0.14732273970E+03 -0.12675781124E+03  0.37446341221E+03  0.00000000000E+00 0.  1.
        -13    1    3    3    0    0 -0.10964092030E+04  0.34840414437E+03 -0.50670022977E+03  0.12570774483E+04  0.00000000000E+00 0. -1.
         22    1    1    2    0    0  0.14164893723E+04 -0.49572688407E+03  0.96186798747E+03  0.17825199327E+04  0.00000000000E+00 0.  1.
<mgrwt>
<rscale>  0 0.33982287E+04</rscale>
<asrwt>0</asrwt>
<pdfrwt beam="1">  1        2 0.28788237E+00 0.33982287E+04</pdfrwt>
<pdfrwt beam="2">  1       -2 0.23735776E+00 0.33982287E+04</pdfrwt>
<totfact> 0.50214098E-01</totfact>
</mgrwt>
</event>
<event>
 6    1  0.5196787E-004  0.1948980E+04  0.7818608E-02  0.8630853E-01
          2   -1    0    0  501    0  0.00000000000E+00  0.00000000000E+00  0.26039431484E+04  0.26039431484E+04  0.00000000000E+00 0.  1.
         -2   -1    0    0    0  501 -0.00000000000E+00 -0.00000000000E+00 -0.36468960696E+03  0.36468960696E+03  0.00000000000E+00 0. -1.
         23    2    1    2    0    0 -0.69050252546E+02 -0.90979114040E+03  0.16340565961E+04  0.18737577857E+04  0.91320445713E+02 0.  0.
         13    1    3    3    0    0 -0.89734479966E+02 -0.70047675285E+03  0.12344740206E+04  0.14221976184E+04  0.00000000000E+00 0.  1.
        -13    1    3    3    0    0  0.20684227420E+02 -0.20931438756E+03  0.39958257548E+03  0.45156016735E+03  0.00000000000E+00 0. -1.
         22    1    1    2    0    0  0.69050252546E+02  0.90979114040E+03  0.60519694541E+03  0.10948749697E+04  0.00000000000E+00 0. -1.
<mgrwt>
<rscale>  0 0.19489802E+04</rscale>
<asrwt>0</asrwt>
<pdfrwt beam="1">  1        2 0.40060663E+00 0.19489802E+04</pdfrwt>
<pdfrwt beam="2">  1       -2 0.56106095E-01 0.19489802E+04</pdfrwt>
<totfact> 0.84307416E+00</totfact>
</mgrwt>
</event>
<event>
 6    1  0.5196787E-004  0.1056317E+04  0.7818608E-02  0.9248846E-01
         -2   -1    0    0    0  501 -0.00000000000E+00  0.00000000000E+00  0.76413023963E+03  0.76413023963E+03  0.00000000000E+00 0. -1.
          2   -1    0    0  501    0  0.00000000000E+00 -0.00000000000E+00 -0.36505740125E+03  0.36505740125E+03  0.00000000000E+00 0.  1.
         23    2    1    2    0    0  0.13626622828E+03 -0.49693452683E+03  0.30426047855E+03  0.60525845435E+03  0.90834733580E+02 0.  0.
         13    1    3    3    0    0  0.14876795299E+03 -0.46085492239E+03  0.27307603266E+03  0.55595834641E+03  0.00000000000E+00 0. -1.
        -13    1    3    3    0    0 -0.12501724708E+02 -0.36079604443E+02  0.31184445893E+02  0.49300107942E+02  0.00000000000E+00 0.  1.
         22    1    1    2    0    0 -0.13626622828E+03  0.49693452683E+03  0.94812359831E+02  0.52392918654E+03  0.00000000000E+00 0. -1.
<mgrwt>
<rscale>  0 0.10563170E+04</rscale>
<asrwt>0</asrwt>
<pdfrwt beam="1">  1        2 0.56162677E-01 0.10563170E+04</pdfrwt>
<pdfrwt beam="2">  1       -2 0.11755850E+00 0.10563170E+04</pdfrwt>
<totfact> 0.49001432E+01</totfact>
</mgrwt>
</event>
<event>
 6    1  0.5196787E-004  0.6144080E+04  0.7818608E-02  0.7672790E-01
         -2   -1    0    0    0  501 -0.00000000000E+00  0.00000000000E+00  0.22758463401E+04  0.22758463401E+04  0.00000000000E+00 0. -1.
          2   -1    0    0  501    0  0.00000000000E+00 -0.00000000000E+00 -0.41467783972E+04  0.41467783972E+04  0.00000000000E+00 0.  1.
         23    2    1    2    0    0  0.11691817004E+04 -0.12251787379E+04 -0.36140735278E+04  0.39922768250E+04  0.93263039728E+02 0.  0.
         13    1    3    3    0    0  0.86666070965E+03 -0.92654200086E+03 -0.26141757223E+04  0.29057693598E+04  0.00000000000E+00 0. -1.
        -13    1    3    3    0    0  0.30252099076E+03 -0.29863673702E+03 -0.99989780547E+03  0.10865074652E+04  0.00000000000E+00 0.  1.
         22    1    1    2    0    0 -0.11691817004E+04  0.12251787379E+04  0.17431414707E+04  0.24303479124E+04  0.00000000000E+00 0. -1.
<mgrwt>
<rscale>  0 0.61440802E+04</rscale>
<asrwt>0</asrwt>
<pdfrwt beam="1">  1        2 0.63796591E+00 0.61440802E+04</pdfrwt>
<pdfrwt beam="2">  1       -2 0.35013021E+00 0.61440802E+04</pdfrwt>
<totfact> 0.26525919E-03</totfact>
</mgrwt>
</event>
<event>
 6    1  0.5196787E-004  0.4156804E+04  0.7818608E-02  0.7973640E-01
          2   -1    0    0  501    0  0.00000000000E+00  0.00000000000E+00  0.39960622573E+04  0.39960622573E+04  0.00000000000E+00 0.  1.
         -2   -1    0    0    0  501 -0.00000000000E+00 -0.00000000000E+00 -0.10810028034E+04  0.10810028034E+04  0.00000000000E+00 0. -1.
         23    2    1    2    0    0  0.12275149423E+04 -0.41745327666E+03  0.34407526751E+04  0.36779891032E+04  0.88117533778E+02 0.  0.
         13    1    3    3    0    0  0.69815454804E+03 -0.25577119179E+03  0.20845957975E+04  0.22132280304E+04  0.00000000000E+00 0.  1.
        -13    1    3    3    0    0  0.52936039428E+03 -0.16168208487E+03  0.13561568776E+04  0.14647610728E+04  0.00000000000E+00 0. -1.
         22    1    1    2    0    0 -0.12275149423E+04  0.41745327666E+03 -0.52569322125E+03  0.13990759574E+04  0.00000000000E+00 0. -1.
<mgrwt>
<rscale>  0 0.41568038E+04</rscale>
<asrwt>0</asrwt>
<pdfrwt beam="1">  1        2 0.61477880E+00 0.41568038E+04</pdfrwt>
<pdfrwt beam="2">  1       -2 0.16630813E+00 0.41568038E+04</pdfrwt>
<totfact> 0.60581850E-02</totfact>
</mgrwt>
</event>
<event>
 6    1  0.5196787E-004  0.1189111E+04  0.7818608E-02  0.9122441E-01
         -2   -1    0    0    0  501 -0.00000000000E+00  0.00000000000E+00  0.26607659868E+03  0.26607659868E+03  0.00000000000E+00 0. -1.
          2   -1    0    0  501    0  0.00000000000E+00 -0.00000000000E+00 -0.13285509127E+04  0.13285509127E+04  0.00000000000E+00 0.  1.
         23    2    1    2    0    0 -0.14193200868E+03  0.56403477939E+03 -0.39534187848E+03  0.70955937049E+03  0.94336482472E+02 0.  0.
         13    1    3    3    0    0 -0.10160387878E+03  0.28691260571E+03 -0.25095039013E+03  0.39448484103E+03  0.00000000000E+00 0. -1.
        -13    1    3    3    0    0 -0.40328129902E+02  0.27712217368E+03 -0.14439148834E+03  0.31507452945E+03  0.00000000000E+00 0.  1.
         22    1    1    2    0    0  0.14193200868E+03 -0.56403477939E+03 -0.66713243550E+03  0.88506814085E+03  0.00000000000E+00 0. -1.
<mgrwt>
<rscale>  0 0.11891111E+04</rscale>
<asrwt>0</asrwt>
<pdfrwt beam="1">  1        2 0.20439245E+00 0.11891111E+04</pdfrwt>
<pdfrwt beam="2">  1       -2 0.40934861E-01 0.11891111E+04</pdfrwt>
<totfact> 0.88739610E+01</totfact>
</mgrwt>
</event>
<event>
 6    1  0.5196787E-004  0.1002214E+04  0.7818608E-02  0.9306120E-01
          2   -1    0    0  501    0  0.00000000000E+00  0.00000000000E+00  0.87775481451E+03  0.87775481451E+03  0.00000000000E+00 0. -1.
         -2   -1    0    0    0  501 -0.00000000000E+00 -0.00000000000E+00 -0.28608024205E+03  0.28608024205E+03  0.00000000000E+00 0.  1.
         23    2    1    2    0    0 -0.26555912713E+03 -0.20841387595E+03  0.72235383055E+03  0.80184740182E+03  0.84889372724E+02 0.  0.
         11    1    3    3    0    0 -0.10107576427E+03 -0.84598061658E+02  0.19156364567E+03  0.23252907883E+03  0.00000000000E+00 0. -1.
        -11    1    3    3    0    0 -0.16448336287E+03 -0.12381581429E+03  0.53079018487E+03  0.56931832299E+03  0.00000000000E+00 0.  1.
         22    1    1    2    0    0  0.26555912713E+03  0.20841387595E+03 -0.13067925809E+03  0.36198765474E+03  0.00000000000E+00 0.  1.
<mgrwt>
<rscale>  0 0.10022142E+04</rscale>
<asrwt>0</asrwt>
<pdfrwt beam="1">  1        2 0.13503920E+00 0.10022142E+04</pdfrwt>
<pdfrwt beam="2">  1       -2 0.44012345E-01 0.10022142E+04</pdfrwt>
<totfact> 0.14832249E+02</totfact>
</mgrwt>
</event>
<event>
 6    1  0.5196787E-004  0.3830443E+04  0.7818608E-02  0.8039653E-01
         -2   -1    0    0    0  501 -0.00000000000E+00  0.00000000000E+00  0.21174613131E+04  0.21174613131E+04  0.00000000000E+00 0.  1.
          2   -1    0    0  501    0  0.00000000000E+00 -0.00000000000E+00 -0.17322975455E+04  0.17322975455E+04  0.00000000000E+00 0. -1.
         23    2    1    2    0    0 -0.21781576728E+03  0.72523110701E+03  0.19593596017E+04  0.21029055759E+04  0.98579639912E+02 0.  0.
         13    1    3    3    0    0 -0.19085305493E+03  0.48115927419E+03  0.12952151937E+04  0.13948195344E+04  0.00000000000E+00 0.  1.
        -13    1    3    3    0    0 -0.26962712351E+02  0.24407183282E+03  0.66414440800E+03  0.70808604146E+03  0.00000000000E+00 0. -1.
         22    1    1    2    0    0  0.21781576728E+03 -0.72523110701E+03 -0.15741958341E+04  0.17468532827E+04  0.00000000000E+00 0. -1.
<mgrwt>
<rscale>  0 0.38304428E+04</rscale>
<asrwt>0</asrwt>
<pdfrwt beam="1">  1        2 0.26650732E+00 0.38304428E+04</pdfrwt>
<pdfrwt beam="2">  1       -2 0.32576328E+00 0.38304428E+04</pdfrwt>
<totfact> 0.16595740E-01</totfact>
</mgrwt>
</event>
<event>
 6    1  0.5196787E-004  0.2191598E+04  0.7818608E-02  0.8521933E-01
          2   -1    0    0  501    0  0.00000000000E+00  0.00000000000E+00  0.20900050866E+04  0.20900050866E+04  0.00000000000E+00 0.  1.
         -2   -1    0    0    0  501 -0.00000000000E+00 -0.00000000000E+00 -0.57453241295E+03  0.57453241295E+03  0.00000000000E+00 0. -1.
         23    2    1    2    0    0  0.62172971085E+03  0.13464991712E+03  0.18410181468E+04  0.19499339111E+04  0.90642193786E+02 0.  0.
         13    1    3    3    0    0  0.57753153363E+03  0.11696251015E+03  0.16198070546E+04  0.17236582594E+04  0.00000000000E+00 0. -1.
        -13    1    3    3    0    0  0.44198177221E+02  0.17687406968E+02  0.22121109223E+03  0.22627565172E+03  0.00000000000E+00 0.  1.
         22    1    1    2    0    0 -0.62172971085E+03 -0.13464991712E+03 -0.32554547314E+03  0.71460358845E+03  0.00000000000E+00 0. -1.
<mgrwt>
<rscale>  0 0.21915982E+04</rscale>
<asrwt>0</asrwt>
<pdfrwt beam="1">  1        2 0.32153924E+00 0.21915982E+04</pdfrwt>
<pdfrwt beam="2">  1       -2 0.88389603E-01 0.21915982E+04</pdfrwt>
<totfact> 0.59971598E+00</totfact>
</mgrwt>
</event>
<event>
 6    1  0.5196787E-004  0.3870545E+04  0.7818608E-02  0.8031183E-01
          2   -1    0    0  501    0  0.00000000000E+00  0.00000000000E+00  0.29789429241E+04  0.29789429241E+04  0.00000000000E+00 0.  1.
         -2   -1    0    0    0  501 -0.00000000000E+00 -0.00000000000E+00 -0.12572513156E+04  0.12572513156E+04  0.00000000000E+00 0. -1.
         23    2    1    2    0    0 -0.14356906068E+04 -0.12644574481E+04  0.11728604181E+04  0.22458988264E+04  0.91650538827E+02 0.  0.
         13    1    3    3    0    0 -0.12938706148E+04 -0.11435760668E+04  0.10258187078E+04  0.20085246849E+04  0.00000000000E+00 0. -1.
        -13    1    3    3    0    0 -0.14181999205E+03 -0.12088138128E+03  0.14704171028E+03  0.23737414148E+03  0.00000000000E+00 0.  1.
         22    1    1    2    0    0  0.14356906068E+04  0.12644574481E+04  0.54883119044E+03  0.19902954133E+04  0.00000000000E+00 0.  1.
<mgrwt>
<rscale>  0 0.38705451E+04</rscale>
<asrwt>0</asrwt>
<pdfrwt beam="1">  1        2 0.45829891E+00 0.38705451E+04</pdfrwt>
<pdfrwt beam="2">  1       -2 0.19342328E+00 0.38705451E+04</pdfrwt>
<totfact> 0.21025322E-01</totfact>
</mgrwt>
</event>
<event>
 6    1  0.5196787E-004  0.1655632E+04  0.7818608E-02  0.8787081E-01
         -2   -1    0    0    0  501 -0.00000000000E+00  0.00000000000E+00  0.16616990028E+04  0.16616990028E+04  0.00000000000E+00 0. -1.
          2   -1    0    0  501    0  0.00000000000E+00 -0.00000000000E+00 -0.41239701965E+03  0.41239701965E+03  0.00000000000E+00 0.  1.
         23    2    1    2    0    0  0.22009102275E+02  0.35707751814E+03 -0.30507721483E+03  0.47907770104E+03  0.91948801424E+02 0.  0.
         13    1    3    3    0    0  0.50586796691E+02  0.19858071253E+03 -0.20271770124E+03  0.28824952695E+03  0.00000000000E+00 0. -1.
        -13    1    3    3    0    0 -0.28577694415E+02  0.15849680561E+03 -0.10235951359E+03  0.19082817409E+03  0.00000000000E+00 0.  1.
         22    1    1    2    0    0 -0.22009102275E+02 -0.35707751814E+03  0.15543791980E+04  0.15950183214E+04  0.00000000000E+00 0. -1.
<mgrwt>
<rscale>  0 0.16556325E+04</rscale>
<asrwt>0</asrwt>
<pdfrwt beam="1">  1        2 0.63445696E-01 0.16556325E+04</pdfrwt>
<pdfrwt beam="2">  1       -2 0.25564600E+00 0.16556325E+04</pdfrwt>
<totfact> 0.43533144E+00</totfact>
</mgrwt>
</event>
<event>
 6    1  0.8117171E-004  0.3245218E+04  0.7818608E-02  0.8176976E-01
         -2   -1    0    0    0  501 -0.00000000000E+00  0.00000000000E+00  0.14692823218E+04  0.14692823218E+04  0.00000000000E+00 0. -1.
          2   -1    0    0  501    0  0.00000000000E+00 -0.00000000000E+00 -0.17919366012E+04  0.17919366012E+04  0.00000000000E+00 0.  1.
         23    2    1    2    0    0  0.94471354236E+02  0.12668583991E+04  0.84926673169E+03  0.15328515152E+04  0.12051865315E+03 0.  0.
         11    1    3    3    0    0  0.10613982096E+03  0.62922592576E+03  0.43916585648E+03  0.77463383398E+03  0.00000000000E+00 0. -1.
        -11    1    3    3    0    0 -0.11668466729E+02  0.63763247338E+03  0.41010087521E+03  0.75821768120E+03  0.00000000000E+00 0.  1.
         22    1    1    2    0    0 -0.94471354236E+02 -0.12668583991E+04 -0.11719210111E+04  0.17283674079E+04  0.00000000000E+00 0.  1.
<mgrwt>
<rscale>  0 0.32452185E+04</rscale>
<asrwt>0</asrwt>
<pdfrwt beam="1">  1        2 0.27568255E+00 0.32452185E+04</pdfrwt>
<pdfrwt beam="2">  1       -2 0.22604344E+00 0.32452185E+04</pdfrwt>
<totfact> 0.66216204E-01</totfact>
</mgrwt>
</event>
<event>
 6    1  0.5196787E-004  0.1254579E+04  0.7818608E-02  0.9066381E-01
         -2   -1    0    0    0  501 -0.00000000000E+00  0.00000000000E+00  0.21892196642E+03  0.21892196642E+03  0.00000000000E+00 0. -1.
          2   -1    0    0  501    0  0.00000000000E+00 -0.00000000000E+00 -0.17974087676E+04  0.17974087676E+04  0.00000000000E+00 0.  1.
         23    2    1    2    0    0  0.13734936212E+03  0.60564759726E+03 -0.69805310355E+03  0.93890911029E+03  0.92727140915E+02 0.  0.
         13    1    3    3    0    0  0.11441370266E+03  0.29740487770E+03 -0.36501582226E+03  0.48453762200E+03  0.00000000000E+00 0.  1.
        -13    1    3    3    0    0  0.22935659463E+02  0.30824271956E+03 -0.33303728129E+03  0.45437148829E+03  0.00000000000E+00 0. -1.
         22    1    1    2    0    0 -0.13734936212E+03 -0.60564759726E+03 -0.88043369763E+03  0.10774216237E+04  0.00000000000E+00 0.  1.
<mgrwt>
<rscale>  0 0.12545792E+04</rscale>
<asrwt>0</asrwt>
<pdfrwt beam="1">  1        2 0.27652442E+00 0.12545792E+04</pdfrwt>
<pdfrwt beam="2">  1       -2 0.33680303E-01 0.12545792E+04</pdfrwt>
<totfact> 0.70183072E+01</totfact>
</mgrwt>
</event>
<event>
 6    1  0.5196787E-004  0.1270104E+04  0.7818608E-02  0.9053615E-01
          2   -1    0    0  501    0  0.00000000000E+00  0.00000000000E+00  0.47267127416E+03  0.47267127416E+03  0.00000000000E+00 0.  1.
         -2   -1    0    0    0  501 -0.00000000000E+00 -0.00000000000E+00 -0.85321674088E+03  0.85321674088E+03  0.00000000000E+00 0. -1.
         23    2    1    2    0    0  0.26559166368E+02 -0.41750071067E+03  0.30442937005E+03  0.52326558841E+03  0.78213821880E+02 0.  0.
         13    1    3    3    0    0  0.50387218222E+02 -0.18697772397E+03  0.13072444028E+03  0.23364164934E+03  0.00000000000E+00 0. -1.
        -13    1    3    3    0    0 -0.23828051855E+02 -0.23052298670E+03  0.17370492977E+03  0.28962393906E+03  0.00000000000E+00 0.  1.
         22    1    1    2    0    0 -0.26559166368E+02  0.41750071067E+03 -0.68497483677E+03  0.80262242663E+03  0.00000000000E+00 0. -1.
<mgrwt>
<rscale>  0 0.12701040E+04</rscale>
<asrwt>0</asrwt>
<pdfrwt beam="1">  1        2 0.72718657E-01 0.12701040E+04</pdfrwt>
<pdfrwt beam="2">  1       -2 0.13126411E+00 0.12701040E+04</pdfrwt>
<totfact> 0.27339975E+01</totfact>
</mgrwt>
</event>
<event>
 6    1  0.5196787E-004  0.3457127E+04  0.7818608E-02  0.8124026E-01
          2   -1    0    0  501    0  0.00000000000E+00  0.00000000000E+00  0.29428955348E+04  0.29428955348E+04  0.00000000000E+00 0.  1.
         -2   -1    0    0    0  501 -0.00000000000E+00 -0.00000000000E+00 -0.10153031169E+04  0.10153031169E+04  0.00000000000E+00 0. -1.
         23    2    1    2    0    0  0.15851918348E+04 -0.90253872444E+02  0.18552169700E+03  0.16011264611E+04  0.90602041162E+02 0.  0.
         13    1    3    3    0    0  0.20260061005E+03 -0.40528910451E+02  0.14729149319E+02  0.20713895726E+03  0.00000000000E+00 0.  1.
        -13    1    3    3    0    0  0.13825912248E+04 -0.49724961993E+02  0.17079254768E+03  0.13939875039E+04  0.00000000000E+00 0. -1.
         22    1    1    2    0    0 -0.15851918348E+04  0.90253872444E+02  0.17420707209E+04  0.23570721905E+04  0.00000000000E+00 0. -1.
<mgrwt>
<rscale>  0 0.34571266E+04</rscale>
<asrwt>0</asrwt>
<pdfrwt beam="1">  1        2 0.45275315E+00 0.34571266E+04</pdfrwt>
<pdfrwt beam="2">  1       -2 0.15620048E+00 0.34571266E+04</pdfrwt>
<totfact> 0.41877044E-01</totfact>
</mgrwt>
</event>
<event>
 6    1  0.5522866E-004  0.4455525E+04  0.7818608E-02  0.7918470E-01
         -2   -1    0    0    0  501 -0.00000000000E+00  0.00000000000E+00  0.26225269429E+04  0.26225269429E+04  0.00000000000E+00 0. -1.
          2   -1    0    0  501    0  0.00000000000E+00 -0.00000000000E+00 -0.18924213894E+04  0.18924213894E+04  0.00000000000E+00 0.  1.
         23    2    1    2    0    0  0.45513062787E+03 -0.28908921771E+03 -0.18241914234E+04  0.19043642003E+04  0.90621157161E+02 0.  0.
         13    1    3    3    0    0  0.24652802165E+03 -0.17857724298E+03 -0.11674100249E+04  0.12064460466E+04  0.00000000000E+00 0.  1.
        -13    1    3    3    0    0  0.20860260622E+03 -0.11051197473E+03 -0.65678139846E+03  0.69791815369E+03  0.00000000000E+00 0. -1.
         22    1    1    2    0    0 -0.45513062787E+03  0.28908921771E+03  0.25542969768E+04  0.26105841320E+04  0.00000000000E+00 0. -1.
<mgrwt>
<rscale>  0 0.44555251E+04</rscale>
<asrwt>0</asrwt>
<pdfrwt beam="1">  1        2 0.29114175E+00 0.44555251E+04</pdfrwt>
<pdfrwt beam="2">  1       -2 0.40346569E+00 0.44555251E+04</pdfrwt>
<totfact> 0.41076958E-02</totfact>
</mgrwt>
</event>
<event>
 6    1  0.5546049E-004  0.4224345E+04  0.7818608E-02  0.7960757E-01
         -2   -1    0    0    0  501 -0.00000000000E+00  0.00000000000E+00  0.25604679685E+04  0.25604679685E+04  0.00000000000E+00 0. -1.
          2   -1    0    0  501    0  0.00000000000E+00 -0.00000000000E+00 -0.17423659347E+04  0.17423659347E+04  0.00000000000E+00 0.  1.
         23    2    1    2    0    0 -0.42585583214E+03  0.12468699682E+04 -0.12708695307E+04  0.18330484662E+04  0.94442618267E+02 0.  0.
         11    1    3    3    0    0 -0.48141604706E+02  0.21313014239E+03 -0.17529703812E+03  0.28012697705E+03  0.00000000000E+00 0. -1.
        -11    1    3    3    0    0 -0.37771422744E+03  0.10337398258E+04 -0.10955724926E+04  0.15529214892E+04  0.00000000000E+00 0.  1.
         22    1    1    2    0    0  0.42585583214E+03 -0.12468699682E+04  0.20889715645E+04  0.24697854369E+04  0.00000000000E+00 0. -1.
<mgrwt>
<rscale>  0 0.42243448E+04</rscale>
<asrwt>0</asrwt>
<pdfrwt beam="1">  1        2 0.26805630E+00 0.42243448E+04</pdfrwt>
<pdfrwt beam="2">  1       -2 0.39391815E+00 0.42243448E+04</pdfrwt>
<totfact> 0.58517056E-02</totfact>
</mgrwt>
</event>
<event>
 6    1  0.5196787E-004  0.2850689E+04  0.7818608E-02  0.8287702E-01
         -2   -1    0    0    0  501 -0.00000000000E+00  0.00000000000E+00  0.84075411694E+03  0.84075411694E+03  0.00000000000E+00 0. -1.
          2   -1    0    0  501    0  0.00000000000E+00 -0.00000000000E+00 -0.24164099114E+04  0.24164099114E+04  0.00000000000E+00 0.  1.
         23    2    1    2    0    0 -0.71129414118E+03  0.83486987012E+03 -0.18261356595E+04  0.21321363762E+04  0.91033097225E+02 0.  0.
         13    1    3    3    0    0 -0.56014618264E+03  0.64529807918E+03 -0.13475137385E+04  0.15956085461E+04  0.00000000000E+00 0.  1.
        -13    1    3    3    0    0 -0.15114795854E+03  0.18957179095E+03 -0.47862192095E+03  0.53652783013E+03  0.00000000000E+00 0. -1.
         22    1    1    2    0    0  0.71129414118E+03 -0.83486987012E+03  0.25047986498E+03  0.11250276521E+04  0.00000000000E+00 0. -1.
<mgrwt>
<rscale>  0 0.28506887E+04</rscale>
<asrwt>0</asrwt>
<pdfrwt beam="1">  1        2 0.37175536E+00 0.28506887E+04</pdfrwt>
<pdfrwt beam="2">  1       -2 0.12934679E+00 0.28506887E+04</pdfrwt>
<totfact> 0.14826027E+00</totfact>
</mgrwt>
</event>
<event>
 6    1  0.5196787E-004  0.1607209E+04  0.7818608E-02  0.8816131E-01
          2   -1    0    0  501    0  0.00000000000E+00  0.00000000000E+00  0.77912298117E+03  0.77912298117E+03  0.00000000000E+00 0.  1.
         -2   -1    0    0    0  501 -0.00000000000E+00 -0.00000000000E+00 -0.82885561656E+03  0.82885561656E+03  0.00000000000E+00 0. -1.
         23    2    1    2    0    0 -0.73893343405E+03 -0.52555991444E+02 -0.32988066167E+03  0.81597628155E+03  0.90616162592E+02 0.  0.
         13    1    3    3    0    0 -0.54197682680E+03 -0.63737328374E+02 -0.20752635733E+03  0.58383946149E+03  0.00000000000E+00 0. -1.
        -13    1    3    3    0    0 -0.19695660725E+03  0.11181336930E+02 -0.12235430435E+03  0.23213682006E+03  0.00000000000E+00 0.  1.
         22    1    1    2    0    0  0.73893343405E+03  0.52555991444E+02  0.28014802629E+03  0.79200231617E+03  0.00000000000E+00 0.  1.
<mgrwt>
<rscale>  0 0.16072093E+04</rscale>
<asrwt>0</asrwt>
<pdfrwt beam="1">  1        2 0.11986507E+00 0.16072093E+04</pdfrwt>
<pdfrwt beam="2">  1       -2 0.12751625E+00 0.16072093E+04</pdfrwt>
<totfact> 0.15589115E+01</totfact>
</mgrwt>
</event>
<event>
 6    1  0.5196787E-004  0.1052207E+04  0.7818608E-02  0.9253069E-01
          2   -1    0    0  501    0  0.00000000000E+00  0.00000000000E+00  0.25443224615E+04  0.25443224615E+04  0.00000000000E+00 0.  1.
         -2   -1    0    0    0  501 -0.00000000000E+00 -0.00000000000E+00 -0.10878526735E+03  0.10878526735E+03  0.00000000000E+00 0. -1.
         23    2    1    2    0    0 -0.47685902785E+03 -0.12292711824E+03  0.78972140573E+03  0.93519759783E+03  0.91809800533E+02 0.  0.
         13    1    3    3    0    0 -0.25057631925E+03 -0.10506650753E+03  0.38601096301E+03  0.47205076669E+03  0.00000000000E+00 0. -1.
        -13    1    3    3    0    0 -0.22628270860E+03 -0.17860610707E+02  0.40371044272E+03  0.46314683113E+03  0.00000000000E+00 0.  1.
         22    1    1    2    0    0  0.47685902785E+03  0.12292711824E+03  0.16458157884E+04  0.17179101310E+04  0.00000000000E+00 0.  1.
<mgrwt>
<rscale>  0 0.10522068E+04</rscale>
<asrwt>0</asrwt>
<pdfrwt beam="1">  1        2 0.39143418E+00 0.10522068E+04</pdfrwt>
<pdfrwt beam="2">  1       -2 0.16736197E-01 0.10522068E+04</pdfrwt>
<totfact> 0.96206560E+01</totfact>
</mgrwt>
</event>
<event>
 6    1  0.5196787E-004  0.4002746E+03  0.7818608E-02  0.1043685E+00
          2   -1    0    0  501    0  0.00000000000E+00  0.00000000000E+00  0.24165114677E+03  0.24165114677E+03  0.00000000000E+00 0.  1.
         -2   -1    0    0    0  501 -0.00000000000E+00 -0.00000000000E+00 -0.16575521207E+03  0.16575521207E+03  0.00000000000E+00 0. -1.
         23    2    1    2    0    0  0.84944813628E+02 -0.12468794714E+03  0.15689402649E+03  0.23616560319E+03  0.91628331086E+02 0.  0.
         11    1    3    3    0    0  0.95860017204E+02 -0.66242437014E+02  0.11246617934E+03  0.16194395591E+03  0.00000000000E+00 0. -1.
        -11    1    3    3    0    0 -0.10915203576E+02 -0.58445510122E+02  0.44427847150E+02  0.74221647279E+02  0.00000000000E+00 0.  1.
         22    1    1    2    0    0 -0.84944813628E+02  0.12468794714E+03 -0.80998091788E+02  0.17124075565E+03  0.00000000000E+00 0. -1.
<mgrwt>
<rscale>  0 0.40027459E+03</rscale>
<asrwt>0</asrwt>
<pdfrwt beam="1">  1        2 0.37177100E-01 0.40027459E+03</pdfrwt>
<pdfrwt beam="2">  1       -2 0.25500802E-01 0.40027459E+03</pdfrwt>
<totfact> 0.19122048E+03</totfact>
</mgrwt>
</event>
<event>
 6    1  0.5196787E-004  0.1520109E+04  0.7818608E-02  0.8871189E-01
         -2   -1    0    0    0  501 -0.00000000000E+00  0.00000000000E+00  0.16112816999E+03  0.16112816999E+03  0.00000000000E+00 0. -1.
          2   -1    0    0  501    0  0.00000000000E+00 -0.00000000000E+00 -0.35852402892E+04  0.35852402892E+04  0.00000000000E+00 0.  1.
         23    2    1    2    0    0 -0.37127087145E+03 -0.55963724013E+03 -0.25811575172E+04  0.26685890933E+04  0.89206051336E+02 0.  0.
         13    1    3    3    0    0 -0.34248489262E+03 -0.47601454658E+03 -0.21558067687E+04  0.22341415743E+04  0.00000000000E+00 0. -1.
        -13    1    3    3    0    0 -0.28785978834E+02 -0.83622693545E+02 -0.42535074851E+03  0.43444751894E+03  0.00000000000E+00 0.  1.
         22    1    1    2    0    0  0.37127087145E+03  0.55963724013E+03 -0.84295460198E+03  0.10777793659E+04  0.00000000000E+00 0. -1.
<mgrwt>
<rscale>  0 0.15201095E+04</rscale>
<asrwt>0</asrwt>
<pdfrwt beam="1">  1        2 0.55157545E+00 0.15201095E+04</pdfrwt>
<pdfrwt beam="2">  1       -2 0.24788948E-01 0.15201095E+04</pdfrwt>
<totfact> 0.10093853E+01</totfact>
</mgrwt>
</event>
<event>
 6    1  0.5196787E-004  0.1292048E+04  0.7818608E-02  0.9035895E-01
          2   -1    0    0  501    0  0.00000000000E+00  0.00000000000E+00  0.11250461283E+04  0.11250461283E+04  0.00000000000E+00 0.  1.
         -2   -1    0    0    0  501 -0.00000000000E+00 -0.00000000000E+00 -0.37096010417E+03  0.37096010417E+03  0.00000000000E+00 0. -1.
         23    2    1    2    0    0  0.24959784868E+03  0.33007820482E+03  0.94909577345E+03  0.10385354578E+04  0.80761392568E+02 0.  0.
         11    1    3    3    0    0  0.89984200985E+02  0.14379803399E+03  0.30008676063E+03  0.34471306171E+03  0.00000000000E+00 0. -1.
        -11    1    3    3    0    0  0.15961364770E+03  0.18628017083E+03  0.64900901282E+03  0.69382239608E+03  0.00000000000E+00 0.  1.
         22    1    1    2    0    0 -0.24959784868E+03 -0.33007820482E+03 -0.19500974931E+03  0.45747077469E+03  0.00000000000E+00 0. -1.
<mgrwt>
<rscale>  0 0.12920483E+04</rscale>
<asrwt>0</asrwt>
<pdfrwt beam="1">  1        2 0.17308402E+00 0.12920483E+04</pdfrwt>
<pdfrwt beam="2">  1       -2 0.57070786E-01 0.12920483E+04</pdfrwt>
<totfact> 0.59344313E+01</totfact>
</mgrwt>
</event>
<event>
 6    1  0.5196787E-004  0.3342926E+04  0.7818608E-02  0.8152058E-01
         -2   -1    0    0    0  501 -0.00000000000E+00  0.00000000000E+00  0.13958572555E+04  0.13958572555E+04  0.00000000000E+00 0. -1.
          2   -1    0    0  501    0  0.00000000000E+00 -0.00000000000E+00 -0.20014855583E+04  0.20014855583E+04  0.00000000000E+00 0.  1.
         23    2    1    2    0    0 -0.16104801214E+04 -0.40002190566E+03 -0.11327675638E+03  0.16664257760E+04  0.10236941397E+03 0.  0.
         11    1    3    3    0    0 -0.29217422239E+03 -0.65417125135E+02  0.18316173923E+02  0.29996776280E+03  0.00000000000E+00 0.  1.
        -11    1    3    3    0    0 -0.13183058991E+04 -0.33460478052E+03 -0.13159293030E+03  0.13664580132E+04  0.00000000000E+00 0. -1.
         22    1    1    2    0    0  0.16104801214E+04  0.40002190566E+03 -0.49235154640E+03  0.17309170378E+04  0.00000000000E+00 0. -1.
<mgrwt>
<rscale>  0 0.33429257E+04</rscale>
<asrwt>0</asrwt>
<pdfrwt beam="1">  1        2 0.30792085E+00 0.33429257E+04</pdfrwt>
<pdfrwt beam="2">  1       -2 0.21474727E+00 0.33429257E+04</pdfrwt>
<totfact> 0.59250763E-01</totfact>
</mgrwt>
</event>
<event>
 6    1  0.5196787E-004  0.3018926E+04  0.7818608E-02  0.8238347E-01
          2   -1    0    0  501    0  0.00000000000E+00  0.00000000000E+00  0.34216777753E+04  0.34216777753E+04  0.00000000000E+00 0.  1.
         -2   -1    0    0    0  501 -0.00000000000E+00 -0.00000000000E+00 -0.66589511594E+03  0.66589511594E+03  0.00000000000E+00 0. -1.
         23    2    1    2    0    0  0.74182337328E+03  0.40951193422E+03 -0.30999351350E+03  0.90685198499E+03  0.91008806400E+02 0.  0.
         11    1    3    3    0    0  0.62188339545E+03  0.30311237908E+03 -0.25619861467E+03  0.73773559088E+03  0.00000000000E+00 0. -1.
        -11    1    3    3    0    0  0.11993997783E+03  0.10639955513E+03 -0.53794898834E+02  0.16911639411E+03  0.00000000000E+00 0.  1.
         22    1    1    2    0    0 -0.74182337328E+03 -0.40951193422E+03  0.30657761729E+04  0.31807209063E+04  0.00000000000E+00 0.  1.
<mgrwt>
<rscale>  0 0.30189260E+04</rscale>
<asrwt>0</asrwt>
<pdfrwt beam="1">  1        2 0.52641196E+00 0.30189260E+04</pdfrwt>
<pdfrwt beam="2">  1       -2 0.10244540E+00 0.30189260E+04</pdfrwt>
<totfact> 0.61353462E-01</totfact>
</mgrwt>
</event>
<event>
 6    1  0.5196787E-004  0.1083654E+04  0.7818608E-02  0.9221272E-01
          1   -1    0    0  501    0  0.00000000000E+00  0.00000000000E+00  0.27950156397E+03  0.27950156397E+03  0.00000000000E+00 0. -1.
         -1   -1    0    0    0  501 -0.00000000000E+00 -0.00000000000E+00 -0.10503575718E+04  0.10503575718E+04  0.00000000000E+00 0.  1.
         23    2    1    2    0    0  0.52016037297E+03  0.12908392483E+03 -0.44447425240E+03  0.70236051143E+03  0.92322552580E+02 0.  0.
         11    1    3    3    0    0  0.74220541183E+02  0.46531473528E+02 -0.99377096095E+02  0.13247518255E+03  0.00000000000E+00 0. -1.
        -11    1    3    3    0    0  0.44593983179E+03  0.82552451300E+02 -0.34509715630E+03  0.56988532888E+03  0.00000000000E+00 0.  1.
         22    1    1    2    0    0 -0.52016037297E+03 -0.12908392483E+03 -0.32638175540E+03  0.62749862431E+03  0.00000000000E+00 0.  1.
<mgrwt>
<rscale>  0 0.10836542E+04</rscale>
<asrwt>0</asrwt>
<pdfrwt beam="1">  1        1 0.43000241E-01 0.10836542E+04</pdfrwt>
<pdfrwt beam="2">  1       -1 0.16159347E+00 0.10836542E+04</pdfrwt>
<totfact> 0.27269760E+01</totfact>
</mgrwt>
</event>
<event>
 6    1  0.5196787E-004  0.2578293E+04  0.7818608E-02  0.8375612E-01
          2   -1    0    0  501    0  0.00000000000E+00  0.00000000000E+00  0.21499636974E+04  0.21499636974E+04  0.00000000000E+00 0.  1.
         -2   -1    0    0    0  501 -0.00000000000E+00 -0.00000000000E+00 -0.77298916065E+03  0.77298916065E+03  0.00000000000E+00 0. -1.
         23    2    1    2    0    0 -0.65874200832E+03 -0.90291976918E+03  0.14135385292E+04  0.18046764751E+04  0.97779666595E+02 0.  0.
         11    1    3    3    0    0 -0.46813011000E+03 -0.56271409516E+03  0.92007233546E+03  0.11757236305E+04  0.00000000000E+00 0. -1.
        -11    1    3    3    0    0 -0.19061189832E+03 -0.34020567401E+03  0.49346619370E+03  0.62895284461E+03  0.00000000000E+00 0.  1.
         22    1    1    2    0    0  0.65874200832E+03  0.90291976918E+03 -0.36563992435E+02  0.11182763829E+04  0.00000000000E+00 0. -1.
<mgrwt>
<rscale>  0 0.25782929E+04</rscale>
<asrwt>0</asrwt>
<pdfrwt beam="1">  1        2 0.33076364E+00 0.25782929E+04</pdfrwt>
<pdfrwt beam="2">  1       -2 0.11892141E+00 0.25782929E+04</pdfrwt>
<totfact> 0.26509774E+00</totfact>
</mgrwt>
</event>
<event>
 6    1  0.5196787E-004  0.2768584E+04  0.7818608E-02  0.8313089E-01
          2   -1    0    0  501    0  0.00000000000E+00  0.00000000000E+00  0.19095071604E+04  0.19095071604E+04  0.00000000000E+00 0.  1.
         -2   -1    0    0    0  501 -0.00000000000E+00 -0.00000000000E+00 -0.10035385773E+04  0.10035385773E+04  0.00000000000E+00 0. -1.
         23    2    1    2    0    0 -0.90646499590E+03  0.88343828358E+03 -0.13221503466E+03  0.12759851970E+04  0.92279021681E+02 0.  0.
         11    1    3    3    0    0 -0.56623442336E+03  0.59754658241E+03 -0.56200230573E+02  0.82513138727E+03  0.00000000000E+00 0. -1.
        -11    1    3    3    0    0 -0.34023057254E+03  0.28589170117E+03 -0.76014804083E+02  0.45085380971E+03  0.00000000000E+00 0.  1.
         22    1    1    2    0    0  0.90646499590E+03 -0.88343828358E+03  0.10381836177E+04  0.16370605407E+04  0.00000000000E+00 0.  1.
<mgrwt>
<rscale>  0 0.27685838E+04</rscale>
<asrwt>0</asrwt>
<pdfrwt beam="1">  1        2 0.29377033E+00 0.27685838E+04</pdfrwt>
<pdfrwt beam="2">  1       -2 0.15439055E+00 0.27685838E+04</pdfrwt>
<totfact> 0.18158817E+00</totfact>
</mgrwt>
</event>
<event>
 6    1  0.5196787E-004  0.4808172E+04  0.7818608E-02  0.7858799E-01
         -2   -1    0    0    0  501 -0.00000000000E+00  0.00000000000E+00  0.27236159259E+04  0.27236159259E+04  0.00000000000E+00 0. -1.
          2   -1    0    0  501    0  0.00000000000E+00 -0.00000000000E+00 -0.21220430808E+04  0.21220430808E+04  0.00000000000E+00 0.  1.
         23    2    1    2    0    0  0.11266011488E+04 -0.21110001602E+04  0.75635339492E+02  0.23957279700E+04  0.90774318913E+02 0.  0.
         13    1    3    3    0    0  0.73453702788E+03 -0.13325765619E+04  0.95465039536E+01  0.15216425580E+04  0.00000000000E+00 0. -1.
        -13    1    3    3    0    0  0.39206412089E+03 -0.77842359825E+03  0.66088835538E+02  0.87408541195E+03  0.00000000000E+00 0.  1.
         22    1    1    2    0    0 -0.11266011488E+04  0.21110001602E+04  0.52593750566E+03  0.24499310367E+04  0.00000000000E+00 0. -1.
<mgrwt>
<rscale>  0 0.48081723E+04</rscale>
<asrwt>0</asrwt>
<pdfrwt beam="1">  1        2 0.32646816E+00 0.48081723E+04</pdfrwt>
<pdfrwt beam="2">  1       -2 0.41901784E+00 0.48081723E+04</pdfrwt>
<totfact> 0.23518250E-02</totfact>
</mgrwt>
</event>
<event>
 6    1  0.5196787E-004  0.1528169E+04  0.7818608E-02  0.8865934E-01
         -2   -1    0    0    0  501 -0.00000000000E+00  0.00000000000E+00  0.44236566926E+03  0.44236566926E+03  0.00000000000E+00 0. -1.
          2   -1    0    0  501    0  0.00000000000E+00 -0.00000000000E+00 -0.13197793080E+04  0.13197793080E+04  0.00000000000E+00 0.  1.
         23    2    1    2    0    0 -0.81170750285E+02  0.73942548410E+03 -0.62936487971E+03  0.97801047085E+03  0.84057076167E+02 0.  0.
         11    1    3    3    0    0 -0.50531977954E+02  0.67874397948E+03 -0.57275357734E+03  0.88954681205E+03  0.00000000000E+00 0. -1.
        -11    1    3    3    0    0 -0.30638772331E+02  0.60681504614E+02 -0.56611302370E+02  0.88463658800E+02  0.00000000000E+00 0.  1.
         22    1    1    2    0    0  0.81170750285E+02 -0.73942548410E+03 -0.24804875900E+03  0.78413450637E+03  0.00000000000E+00 0. -1.
<mgrwt>
<rscale>  0 0.15281689E+04</rscale>
<asrwt>0</asrwt>
<pdfrwt beam="1">  1        2 0.20304297E+00 0.15281689E+04</pdfrwt>
<pdfrwt beam="2">  1       -2 0.68056258E-01 0.15281689E+04</pdfrwt>
<totfact> 0.30679739E+01</totfact>
</mgrwt>
</event>
<event>
 6    1  0.5196787E-004  0.1186152E+04  0.7818608E-02  0.9125064E-01
          2   -1    0    0  501    0  0.00000000000E+00  0.00000000000E+00  0.60737962006E+03  0.60737962006E+03  0.00000000000E+00 0.  1.
         -2   -1    0    0    0  501 -0.00000000000E+00 -0.00000000000E+00 -0.57910968424E+03  0.57910968424E+03  0.00000000000E+00 0. -1.
         23    2    1    2    0    0 -0.51231695476E+03 -0.21409305665E+03  0.21242795504E+03  0.60149471023E+03  0.91464481147E+02 0.  0.
         13    1    3    3    0    0 -0.23316472118E+03 -0.10471470340E+03  0.49777209082E+02  0.26040108842E+03  0.00000000000E+00 0. -1.
        -13    1    3    3    0    0 -0.27915223359E+03 -0.10937835325E+03  0.16265074596E+03  0.34109362181E+03  0.00000000000E+00 0.  1.
         22    1    1    2    0    0  0.51231695476E+03  0.21409305665E+03 -0.18415801922E+03  0.58499459406E+03  0.00000000000E+00 0.  1.
<mgrwt>
<rscale>  0 0.11861525E+04</rscale>
<asrwt>0</asrwt>
<pdfrwt beam="1">  1        2 0.93443019E-01 0.11861525E+04</pdfrwt>
<pdfrwt beam="2">  1       -2 0.89093797E-01 0.11861525E+04</pdfrwt>
<totfact> 0.52230784E+01</totfact>
</mgrwt>
</event>
<event>
 6    1  0.5196787E-004  0.1830548E+04  0.7818608E-02  0.8690221E-01
         -2   -1    0    0    0  501 -0.00000000000E+00  0.00000000000E+00  0.33822352046E+03  0.33822352046E+03  0.00000000000E+00 0. -1.
          2   -1    0    0  501    0  0.00000000000E+00 -0.00000000000E+00 -0.24768437193E+04  0.24768437193E+04  0.00000000000E+00 0.  1.
         23    2    1    2    0    0  0.13948095084E+02 -0.21988195196E+03 -0.24344974139E+04  0.24461689495E+04  0.91772812684E+02 0.  0.
         13    1    3    3    0    0 -0.19547671790E+01 -0.16588874922E+03 -0.13408810901E+04  0.13511051017E+04  0.00000000000E+00 0.  1.
        -13    1    3    3    0    0  0.15902862263E+02 -0.53993202743E+02 -0.10936163239E+04  0.10950638478E+04  0.00000000000E+00 0. -1.
         22    1    1    2    0    0 -0.13948095084E+02  0.21988195196E+03  0.29587721506E+03  0.36889829025E+03  0.00000000000E+00 0. -1.
<mgrwt>
<rscale>  0 0.18305483E+04</rscale>
<asrwt>0</asrwt>
<pdfrwt beam="1">  1        2 0.38105288E+00 0.18305483E+04</pdfrwt>
<pdfrwt beam="2">  1       -2 0.52034388E-01 0.18305483E+04</pdfrwt>
<totfact> 0.11801947E+01</totfact>
</mgrwt>
</event>
<event>
 6    1  0.5196787E-004  0.2672318E+04  0.7818608E-02  0.8344043E-01
          2   -1    0    0  501    0  0.00000000000E+00  0.00000000000E+00  0.17599003725E+04  0.17599003725E+04  0.00000000000E+00 0.  1.
         -2   -1    0    0    0  501 -0.00000000000E+00 -0.00000000000E+00 -0.10144446057E+04  0.10144446057E+04  0.00000000000E+00 0. -1.
         23    2    1    2    0    0  0.85092463741E+03 -0.10476054830E+03  0.14350012013E+04  0.16741084503E+04  0.91450229200E+02 0.  0.
         13    1    3    3    0    0  0.14396137961E+03 -0.12416586192E+02  0.18108740616E+03  0.23167153279E+03  0.00000000000E+00 0. -1.
        -13    1    3    3    0    0  0.70696325779E+03 -0.92343962107E+02  0.12539137952E+04  0.14424369175E+04  0.00000000000E+00 0.  1.
         22    1    1    2    0    0 -0.85092463741E+03  0.10476054830E+03 -0.68954543451E+03  0.11002365279E+04  0.00000000000E+00 0. -1.
<mgrwt>
<rscale>  0 0.26723184E+04</rscale>
<asrwt>0</asrwt>
<pdfrwt beam="1">  1        2 0.27075390E+00 0.26723184E+04</pdfrwt>
<pdfrwt beam="2">  1       -2 0.15606840E+00 0.26723184E+04</pdfrwt>
<totfact> 0.21525662E+00</totfact>
</mgrwt>
</event>
<event>
 6    1  0.5196787E-004  0.3463214E+04  0.7818608E-02  0.8122563E-01
          2   -1    0    0  501    0  0.00000000000E+00  0.00000000000E+00  0.25579414345E+04  0.25579414345E+04  0.00000000000E+00 0.  1.
         -2   -1    0    0    0  501 -0.00000000000E+00 -0.00000000000E+00 -0.11722172418E+04  0.11722172418E+04  0.00000000000E+00 0. -1.
         23    2    1    2    0    0 -0.12484235195E+04 -0.74696772643E+03  0.17024514136E+04  0.22412536421E+04  0.91405711477E+02 0.  0.
         11    1    3    3    0    0 -0.69341198861E+03 -0.45730621700E+03  0.92927802760E+03  0.12463975347E+04  0.00000000000E+00 0. -1.
        -11    1    3    3    0    0 -0.55501153091E+03 -0.28966150943E+03  0.77317338600E+03  0.99485610734E+03  0.00000000000E+00 0.  1.
         22    1    1    2    0    0  0.12484235195E+04  0.74696772643E+03 -0.31672722088E+03  0.14889050342E+04  0.00000000000E+00 0. -1.
<mgrwt>
<rscale>  0 0.34632141E+04</rscale>
<asrwt>0</asrwt>
<pdfrwt beam="1">  1        2 0.39352945E+00 0.34632141E+04</pdfrwt>
<pdfrwt beam="2">  1       -2 0.18034112E+00 0.34632141E+04</pdfrwt>
<totfact> 0.47866941E-01</totfact>
</mgrwt>
</event>
<event>
 6    1  0.5196787E-004  0.3754343E+04  0.7818608E-02  0.8056024E-01
          2   -1    0    0  501    0  0.00000000000E+00  0.00000000000E+00  0.20710885193E+04  0.20710885193E+04  0.00000000000E+00 0.  1.
         -2   -1    0    0    0  501 -0.00000000000E+00 -0.00000000000E+00 -0.17014108366E+04  0.17014108366E+04  0.00000000000E+00 0. -1.
         23    2    1    2    0    0 -0.34159150164E+03  0.14167027172E+04 -0.10021275681E+04  0.17711045950E+04  0.93917414528E+02 0.  0.
         11    1    3    3    0    0 -0.10027438894E+03  0.61146945413E+03 -0.43402718153E+03  0.75652458039E+03  0.00000000000E+00 0. -1.
        -11    1    3    3    0    0 -0.24131711270E+03  0.80523326306E+03 -0.56810038652E+03  0.10145800146E+04  0.00000000000E+00 0.  1.
         22    1    1    2    0    0  0.34159150164E+03 -0.14167027172E+04  0.13718052508E+04  0.20013947609E+04  0.00000000000E+00 0.  1.
<mgrwt>
<rscale>  0 0.37543428E+04</rscale>
<asrwt>0</asrwt>
<pdfrwt beam="1">  1        2 0.31862900E+00 0.37543428E+04</pdfrwt>
<pdfrwt beam="2">  1       -2 0.26175551E+00 0.37543428E+04</pdfrwt>
<totfact> 0.26717185E-01</totfact>
</mgrwt>
</event>
<event>
 6    1  0.5196787E-004  0.3344965E+04  0.7818608E-02  0.8151547E-01
          2   -1    0    0  501    0  0.00000000000E+00  0.00000000000E+00  0.15078565546E+04  0.15078565546E+04  0.00000000000E+00 0.  1.
         -2   -1    0    0    0  501 -0.00000000000E+00 -0.00000000000E+00 -0.18550816740E+04  0.18550816740E+04  0.00000000000E+00 0. -1.
         23    2    1    2    0    0  0.60013652393E+03 -0.14013523423E+04 -0.86236224294E+03  0.17538022831E+04  0.90562550711E+02 0.  0.
         11    1    3    3    0    0  0.20286004411E+03 -0.39986424436E+03 -0.22011044666E+03  0.49949196204E+03  0.00000000000E+00 0. -1.
        -11    1    3    3    0    0  0.39727647982E+03 -0.10014880980E+04 -0.64225179628E+03  0.12543103211E+04  0.00000000000E+00 0.  1.
         22    1    1    2    0    0 -0.60013652393E+03  0.14013523423E+04  0.51513712354E+03  0.16091359454E+04  0.00000000000E+00 0. -1.
<mgrwt>
<rscale>  0 0.33449646E+04</rscale>
<asrwt>0</asrwt>
<pdfrwt beam="1">  1        2 0.23197793E+00 0.33449646E+04</pdfrwt>
<pdfrwt beam="2">  1       -2 0.28539718E+00 0.33449646E+04</pdfrwt>
<totfact> 0.40814244E-01</totfact>
</mgrwt>
</event>
<event>
 6    1  0.5196787E-004  0.3207236E+04  0.7818608E-02  0.8186909E-01
          2   -1    0    0  501    0  0.00000000000E+00  0.00000000000E+00  0.18720262145E+04  0.18720262145E+04  0.00000000000E+00 0.  1.
         -2   -1    0    0    0  501 -0.00000000000E+00 -0.00000000000E+00 -0.13736940621E+04  0.13736940621E+04  0.00000000000E+00 0. -1.
         23    2    1    2    0    0  0.16268696311E+03 -0.39524983657E+03  0.18120516444E+04  0.18642180562E+04  0.95332668910E+02 0.  0.
         13    1    3    3    0    0  0.14375103173E+03 -0.22906836411E+03  0.10900533012E+04  0.11230996724E+04  0.00000000000E+00 0. -1.
        -13    1    3    3    0    0  0.18935931377E+02 -0.16618147246E+03  0.72199834315E+03  0.74111838380E+03  0.00000000000E+00 0.  1.
         22    1    1    2    0    0 -0.16268696311E+03  0.39524983657E+03 -0.13137194920E+04  0.13815022204E+04  0.00000000000E+00 0. -1.
<mgrwt>
<rscale>  0 0.32072364E+04</rscale>
<asrwt>0</asrwt>
<pdfrwt beam="1">  1        2 0.28800403E+00 0.32072364E+04</pdfrwt>
<pdfrwt beam="2">  1       -2 0.21133755E+00 0.32072364E+04</pdfrwt>
<totfact> 0.74356939E-01</totfact>
</mgrwt>
</event>
<event>
 6    1  0.5196787E-004  0.2385006E+04  0.7818608E-02  0.8445139E-01
          2   -1    0    0  501    0  0.00000000000E+00  0.00000000000E+00  0.27728157279E+04  0.27728157279E+04  0.00000000000E+00 0.  1.
         -2   -1    0    0    0  501 -0.00000000000E+00 -0.00000000000E+00 -0.51285885296E+03  0.51285885296E+03  0.00000000000E+00 0. -1.
         23    2    1    2    0    0  0.95247667539E+03 -0.68322750381E+03  0.84270498338E+03  0.14464860198E+04  0.90324289207E+02 0.  0.
         13    1    3    3    0    0  0.85442654775E+03 -0.57777507420E+03  0.73009147256E+03  0.12636860054E+04  0.00000000000E+00 0. -1.
        -13    1    3    3    0    0  0.98050127637E+02 -0.10545242961E+03  0.11261351082E+03  0.18280001439E+03  0.00000000000E+00 0.  1.
         22    1    1    2    0    0 -0.95247667539E+03  0.68322750381E+03  0.14172518915E+04  0.18391885611E+04  0.00000000000E+00 0. -1.
<mgrwt>
<rscale>  0 0.23850057E+04</rscale>
<asrwt>0</asrwt>
<pdfrwt beam="1">  1        2 0.42658702E+00 0.23850057E+04</pdfrwt>
<pdfrwt beam="2">  1       -2 0.78901364E-01 0.23850057E+04</pdfrwt>
<totfact> 0.30835823E+00</totfact>
</mgrwt>
</event>
<event>
 6    1  0.5196787E-004  0.2053983E+04  0.7818608E-02  0.8581790E-01
          2   -1    0    0  501    0  0.00000000000E+00  0.00000000000E+00  0.78461784475E+03  0.78461784475E+03  0.00000000000E+00 0.  1.
         -2   -1    0    0    0  501 -0.00000000000E+00 -0.00000000000E+00 -0.13442356731E+04  0.13442356731E+04  0.00000000000E+00 0. -1.
         23    2    1    2    0    0 -0.66916855705E+03 -0.69687486828E+03 -0.63530308389E+03  0.11597563103E+04  0.89462568067E+02 0.  0.
         13    1    3    3    0    0 -0.25456900198E+03 -0.27664836657E+03 -0.29902077380E+03  0.48036769110E+03  0.00000000000E+00 0. -1.
        -13    1    3    3    0    0 -0.41459955508E+03 -0.42022650171E+03 -0.33628231009E+03  0.67938861919E+03  0.00000000000E+00 0.  1.
         22    1    1    2    0    0  0.66916855705E+03  0.69687486828E+03  0.75685255536E+02  0.96909720756E+03  0.00000000000E+00 0. -1.
<mgrwt>
<rscale>  0 0.20539828E+04</rscale>
<asrwt>0</asrwt>
<pdfrwt beam="1">  1        2 0.12071044E+00 0.20539828E+04</pdfrwt>
<pdfrwt beam="2">  1       -2 0.20680549E+00 0.20539828E+04</pdfrwt>
<totfact> 0.39239569E+00</totfact>
</mgrwt>
</event>
<event>
 6    1  0.5196787E-004  0.1217339E+04  0.7818608E-02  0.9097813E-01
          2   -1    0    0  501    0  0.00000000000E+00  0.00000000000E+00  0.24645832441E+04  0.24645832441E+04  0.00000000000E+00 0.  1.
         -2   -1    0    0    0  501 -0.00000000000E+00 -0.00000000000E+00 -0.15032105043E+03  0.15032105043E+03  0.00000000000E+00 0. -1.
         23    2    1    2    0    0 -0.18465786999E+03 -0.18813531337E+03  0.23336874307E+04  0.23505735076E+04  0.98006965757E+02 0.  0.
         11    1    3    3    0    0 -0.85364740052E+02 -0.15034791384E+03  0.15809858531E+04  0.15904112367E+04  0.00000000000E+00 0.  1.
        -11    1    3    3    0    0 -0.99293129935E+02 -0.37787399529E+02  0.75270157764E+03  0.76016227097E+03  0.00000000000E+00 0. -1.
         22    1    1    2    0    0  0.18465786999E+03  0.18813531337E+03 -0.19425237032E+02  0.26433078693E+03  0.00000000000E+00 0. -1.
<mgrwt>
<rscale>  0 0.12173393E+04</rscale>
<asrwt>0</asrwt>
<pdfrwt beam="1">  1        2 0.37916662E+00 0.12173393E+04</pdfrwt>
<pdfrwt beam="2">  1       -2 0.23126317E-01 0.12173393E+04</pdfrwt>
<totfact> 0.59731101E+01</totfact>
</mgrwt>
</event>
<event>
 6    1  0.5196787E-004  0.7896341E+03  0.7818608E-02  0.9575144E-01
         -2   -1    0    0    0  501 -0.00000000000E+00  0.00000000000E+00  0.21437685958E+03  0.21437685958E+03  0.00000000000E+00 0. -1.
          2   -1    0    0  501    0  0.00000000000E+00 -0.00000000000E+00 -0.72713305346E+03  0.72713305346E+03  0.00000000000E+00 0.  1.
         23    2    1    2    0    0  0.14064582863E+03  0.13816986295E+03 -0.66056022147E+03  0.69509929902E+03  0.89168767909E+02 0.  0.
         11    1    3    3    0    0  0.96276909332E+02  0.11798534690E+03 -0.36416455695E+03  0.39472219331E+03  0.00000000000E+00 0.  1.
        -11    1    3    3    0    0  0.44368919296E+02  0.20184516051E+02 -0.29639566452E+03  0.30037710571E+03  0.00000000000E+00 0. -1.
         22    1    1    2    0    0 -0.14064582863E+03 -0.13816986295E+03  0.14780402758E+03  0.24641061403E+03  0.00000000000E+00 0. -1.
<mgrwt>
<rscale>  0 0.78963409E+03</rscale>
<asrwt>0</asrwt>
<pdfrwt beam="1">  1        2 0.11186662E+00 0.78963409E+03</pdfrwt>
<pdfrwt beam="2">  1       -2 0.32981056E-01 0.78963409E+03</pdfrwt>
<totfact> 0.33656154E+02</totfact>
</mgrwt>
</event>
<event>
 6    1  0.5196787E-004  0.3011915E+04  0.7818608E-02  0.8240337E-01
         -2   -1    0    0    0  501 -0.00000000000E+00  0.00000000000E+00  0.63255770245E+03  0.63255770245E+03  0.00000000000E+00 0.  1.
          2   -1    0    0  501    0  0.00000000000E+00 -0.00000000000E+00 -0.35852972790E+04  0.35852972790E+04  0.00000000000E+00 0. -1.
         23    2    1    2    0    0 -0.16119650102E+03 -0.20821189657E+02 -0.35723850881E+04  0.35772471499E+04  0.91346156332E+02 0.  0.
         13    1    3    3    0    0 -0.24035368598E+01  0.54286558630E+01 -0.90011848210E+03  0.90013806114E+03  0.00000000000E+00 0. -1.
        -13    1    3    3    0    0 -0.15879296416E+03 -0.26249845520E+02 -0.26722666060E+04  0.26771090888E+04  0.00000000000E+00 0.  1.
         22    1    1    2    0    0  0.16119650102E+03  0.20821189657E+02  0.61964551152E+03  0.64060783153E+03  0.00000000000E+00 0.  1.
<mgrwt>
<rscale>  0 0.30119146E+04</rscale>
<asrwt>0</asrwt>
<pdfrwt beam="1">  1        2 0.55158420E+00 0.30119146E+04</pdfrwt>
<pdfrwt beam="2">  1       -2 0.97316568E-01 0.30119146E+04</pdfrwt>
<totfact> 0.53238272E-01</totfact>
</mgrwt>
</event>
<event>
 6    1  0.5196787E-004  0.1165804E+04  0.7818608E-02  0.9143327E-01
         -2   -1    0    0    0  501 -0.00000000000E+00  0.00000000000E+00  0.73491050213E+03  0.73491050213E+03  0.00000000000E+00 0. -1.
          2   -1    0    0  501    0  0.00000000000E+00 -0.00000000000E+00 -0.46233454599E+03  0.46233454599E+03  0.00000000000E+00 0.  1.
         23    2    1    2    0    0  0.46424711632E+03 -0.13880404333E+03  0.46326119484E+03  0.67652169765E+03  0.90987500727E+02 0.  0.
         11    1    3    3    0    0  0.38747105890E+03 -0.78958234632E+02  0.38006016178E+03  0.54846508629E+03  0.00000000000E+00 0. -1.
        -11    1    3    3    0    0  0.76776057419E+02 -0.59845808698E+02  0.83201033062E+02  0.12805661136E+03  0.00000000000E+00 0.  1.
         22    1    1    2    0    0 -0.46424711632E+03  0.13880404333E+03 -0.19068523871E+03  0.52072335046E+03  0.00000000000E+00 0.  1.
<mgrwt>
<rscale>  0 0.11658036E+04</rscale>
<asrwt>0</asrwt>
<pdfrwt beam="1">  1        2 0.71128392E-01 0.11658036E+04</pdfrwt>
<pdfrwt beam="2">  1       -2 0.11306315E+00 0.11658036E+04</pdfrwt>
<totfact> 0.40972272E+01</totfact>
</mgrwt>
</event>
<event>
 6    1  0.5196787E-004  0.1931222E+04  0.7818608E-02  0.8639470E-01
         -2   -1    0    0    0  501 -0.00000000000E+00  0.00000000000E+00  0.30401053930E+03  0.30401053930E+03  0.00000000000E+00 0. -1.
          2   -1    0    0  501    0  0.00000000000E+00 -0.00000000000E+00 -0.30670134132E+04  0.30670134132E+04  0.00000000000E+00 0.  1.
         23    2    1    2    0    0  0.43007903380E+03 -0.82595281157E+03 -0.95401918597E+03  0.13364262022E+04  0.93361472447E+02 0.  0.
         11    1    3    3    0    0  0.20399351532E+03 -0.29361412353E+03 -0.36255422295E+03  0.50918382968E+03  0.00000000000E+00 0. -1.
        -11    1    3    3    0    0  0.22608551847E+03 -0.53233868804E+03 -0.59146496302E+03  0.82724237254E+03  0.00000000000E+00 0.  1.
         22    1    1    2    0    0 -0.43007903380E+03  0.82595281157E+03 -0.18089836879E+04  0.20345977502E+04  0.00000000000E+00 0.  1.
<mgrwt>
<rscale>  0 0.19312218E+04</rscale>
<asrwt>0</asrwt>
<pdfrwt beam="1">  1        2 0.47184822E+00 0.19312218E+04</pdfrwt>
<pdfrwt beam="2">  1       -2 0.46770852E-01 0.19312218E+04</pdfrwt>
<totfact> 0.64154814E+00</totfact>
</mgrwt>
</event>
<event>
 6    1  0.5196787E-004  0.3136943E+04  0.7818608E-02  0.8205672E-01
         -2   -1    0    0    0  501 -0.00000000000E+00  0.00000000000E+00  0.87246577913E+03  0.87246577913E+03  0.00000000000E+00 0. -1.
          2   -1    0    0  501    0  0.00000000000E+00 -0.00000000000E+00 -0.28197133483E+04  0.28197133483E+04  0.00000000000E+00 0.  1.
         23    2    1    2    0    0 -0.59804749682E+03 -0.13996131926E+04 -0.53508581835E+03  0.16159376415E+04  0.91431563898E+02 0.  0.
         13    1    3    3    0    0 -0.72386842399E+02 -0.20986367036E+03 -0.10832074758E+03  0.24701416852E+03  0.00000000000E+00 0.  1.
        -13    1    3    3    0    0 -0.52566065442E+03 -0.11897495222E+04 -0.42676507076E+03  0.13689234730E+04  0.00000000000E+00 0. -1.
         22    1    1    2    0    0  0.59804749682E+03  0.13996131926E+04 -0.14121617509E+04  0.20762414859E+04  0.00000000000E+00 0.  1.
<mgrwt>
<rscale>  0 0.31369434E+04</rscale>
<asrwt>0</asrwt>
<pdfrwt beam="1">  1        2 0.43380205E+00 0.31369434E+04</pdfrwt>
<pdfrwt beam="2">  1       -2 0.13422551E+00 0.31369434E+04</pdfrwt>
<totfact> 0.76197048E-01</totfact>
</mgrwt>
</event>
<event>
 6    1  0.5196787E-004  0.3549441E+04  0.7818608E-02  0.8102172E-01
         -2   -1    0    0    0  501 -0.00000000000E+00  0.00000000000E+00  0.99593840929E+03  0.99593840929E+03  0.00000000000E+00 0. -1.
          2   -1    0    0  501    0  0.00000000000E+00 -0.00000000000E+00 -0.31624775249E+04  0.31624775249E+04  0.00000000000E+00 0.  1.
         23    2    1    2    0    0  0.15943267973E+04 -0.10618917382E+03 -0.19855668550E+04  0.25503409869E+04  0.92786510104E+02 0.  0.
         13    1    3    3    0    0  0.60970347048E+03 -0.85725559114E+02 -0.75854771211E+03  0.97697585690E+03  0.00000000000E+00 0.  1.
        -13    1    3    3    0    0  0.98462332679E+03 -0.20463614707E+02 -0.12270191429E+04  0.15733651300E+04  0.00000000000E+00 0. -1.
         22    1    1    2    0    0 -0.15943267973E+04  0.10618917382E+03 -0.18097226063E+03  0.16080749473E+04  0.00000000000E+00 0. -1.
<mgrwt>
<rscale>  0 0.35494410E+04</rscale>
<asrwt>0</asrwt>
<pdfrwt beam="1">  1        2 0.48653499E+00 0.35494410E+04</pdfrwt>
<pdfrwt beam="2">  1       -2 0.15322130E+00 0.35494410E+04</pdfrwt>
<totfact> 0.31754936E-01</totfact>
</mgrwt>
</event>
<event>
 6    1  0.5196787E-004  0.1213672E+04  0.7818608E-02  0.9100973E-01
         -1   -1    0    0    0  501 -0.00000000000E+00  0.00000000000E+00  0.43403741317E+03  0.43403741317E+03  0.00000000000E+00 0. -1.
          1   -1    0    0  501    0  0.00000000000E+00 -0.00000000000E+00 -0.84842854801E+03  0.84842854801E+03  0.00000000000E+00 0.  1.
         23    2    1    2    0    0 -0.18704208423E+03  0.56935636279E+03 -0.28254998556E+03  0.66884270725E+03  0.91458534729E+02 0.  0.
         13    1    3    3    0    0 -0.40596924725E+02  0.14400569973E+03 -0.11534624091E+03  0.18891931384E+03  0.00000000000E+00 0.  1.
        -13    1    3    3    0    0 -0.14644515950E+03  0.42535066307E+03 -0.16720374465E+03  0.47992339340E+03  0.00000000000E+00 0. -1.
         22    1    1    2    0    0  0.18704208423E+03 -0.56935636279E+03 -0.13184114928E+03  0.61362325393E+03  0.00000000000E+00 0. -1.
<mgrwt>
<rscale>  0 0.12136717E+04</rscale>
<asrwt>0</asrwt>
<pdfrwt beam="1">  1        1 0.13052747E+00 0.12136717E+04</pdfrwt>
<pdfrwt beam="2">  1       -1 0.66774987E-01 0.12136717E+04</pdfrwt>
<totfact> 0.45142970E+01</totfact>
</mgrwt>
</event>
<event>
 6    1  0.5196787E-004  0.1832349E+04  0.7818608E-02  0.8689283E-01
         -2   -1    0    0    0  501 -0.00000000000E+00  0.00000000000E+00  0.40288459931E+03  0.40288459931E+03  0.00000000000E+00 0. -1.
          2   -1    0    0  501    0  0.00000000000E+00 -0.00000000000E+00 -0.20834148585E+04  0.20834148585E+04  0.00000000000E+00 0.  1.
         23    2    1    2    0    0  0.29918815359E+02  0.67091027307E+03 -0.11910308424E+01  0.67765466851E+03  0.90546679525E+02 0.  0.
         11    1    3    3    0    0 -0.30537456864E+02  0.32707870248E+03 -0.45363192012E+01  0.32853248253E+03  0.00000000000E+00 0.  1.
        -11    1    3    3    0    0  0.60456272223E+02  0.34383157060E+03  0.33452883587E+01  0.34912218598E+03  0.00000000000E+00 0. -1.
         22    1    1    2    0    0 -0.29918815359E+02 -0.67091027307E+03 -0.16793392283E+04  0.18086447893E+04  0.00000000000E+00 0.  1.
<mgrwt>
<rscale>  0 0.18323491E+04</rscale>
<asrwt>0</asrwt>
<pdfrwt beam="1">  1        2 0.32052535E+00 0.18323491E+04</pdfrwt>
<pdfrwt beam="2">  1       -2 0.61982248E-01 0.18323491E+04</pdfrwt>
<totfact> 0.13663131E+01</totfact>
</mgrwt>
</event>
<event>
 6    1  0.5196787E-004  0.5224013E+04  0.7818608E-02  0.7794851E-01
         -2   -1    0    0    0  501 -0.00000000000E+00  0.00000000000E+00  0.26921141758E+04  0.26921141758E+04  0.00000000000E+00 0. -1.
          2   -1    0    0  501    0  0.00000000000E+00 -0.00000000000E+00 -0.25342822396E+04  0.25342822396E+04  0.00000000000E+00 0.  1.
         23    2    1    2    0    0  0.18396660948E+04  0.12739471383E+04 -0.12672787426E+04  0.25734257977E+04  0.95980586673E+02 0.  0.
         11    1    3    3    0    0  0.43801331633E+03  0.29555166464E+03 -0.34611472144E+03  0.63166593398E+03  0.00000000000E+00 0. -1.
        -11    1    3    3    0    0  0.14016527785E+04  0.97839547371E+03 -0.92116402116E+03  0.19417598637E+04  0.00000000000E+00 0.  1.
         22    1    1    2    0    0 -0.18396660948E+04 -0.12739471383E+04  0.14251106789E+04  0.26529706177E+04  0.00000000000E+00 0. -1.
<mgrwt>
<rscale>  0 0.52240127E+04</rscale>
<asrwt>0</asrwt>
<pdfrwt beam="1">  1        2 0.38988958E+00 0.52240127E+04</pdfrwt>
<pdfrwt beam="2">  1       -2 0.41417141E+00 0.52240127E+04</pdfrwt>
<totfact> 0.14265939E-02</totfact>
</mgrwt>
</event>
<event>
 6    1  0.5196787E-004  0.4412314E+04  0.7818608E-02  0.7926170E-01
          2   -1    0    0  501    0  0.00000000000E+00  0.00000000000E+00  0.20400813506E+04  0.20400813506E+04  0.00000000000E+00 0.  1.
         -2   -1    0    0    0  501 -0.00000000000E+00 -0.00000000000E+00 -0.23857527267E+04  0.23857527267E+04  0.00000000000E+00 0. -1.
         23    2    1    2    0    0 -0.10036368921E+04  0.13382204239E+04 -0.16143235817E+04  0.23264057426E+04  0.89454674348E+02 0.  0.
         13    1    3    3    0    0 -0.64939740327E+03  0.84775706705E+03 -0.10876576968E+04  0.15242730391E+04  0.00000000000E+00 0.  1.
        -13    1    3    3    0    0 -0.35423948881E+03  0.49046335681E+03 -0.52666588487E+03  0.80213270354E+03  0.00000000000E+00 0. -1.
         22    1    1    2    0    0  0.10036368921E+04 -0.13382204239E+04  0.12686522056E+04  0.20994283347E+04  0.00000000000E+00 0.  1.
<mgrwt>
<rscale>  0 0.44123144E+04</rscale>
<asrwt>0</asrwt>
<pdfrwt beam="1">  1        2 0.31385867E+00 0.44123144E+04</pdfrwt>
<pdfrwt beam="2">  1       -2 0.36703888E+00 0.44123144E+04</pdfrwt>
<totfact> 0.58727386E-02</totfact>
</mgrwt>
</event>
<event>
 6    1  0.5196787E-004  0.4558451E+04  0.7818608E-02  0.7900483E-01
          2   -1    0    0  501    0  0.00000000000E+00  0.00000000000E+00  0.27934733881E+04  0.27934733881E+04  0.00000000000E+00 0.  1.
         -2   -1    0    0    0  501 -0.00000000000E+00 -0.00000000000E+00 -0.18596446216E+04  0.18596446216E+04  0.00000000000E+00 0. -1.
         23    2    1    2    0    0 -0.93812418329E+03 -0.17422047202E+04  0.16199332727E+04  0.25588177295E+04  0.89499131085E+02 0.  0.
         11    1    3    3    0    0 -0.59751844501E+03 -0.11415208669E+04  0.11057898531E+04  0.16979014638E+04  0.00000000000E+00 0.  1.
        -11    1    3    3    0    0 -0.34060573828E+03 -0.60068385325E+03  0.51414341957E+03  0.86091626561E+03  0.00000000000E+00 0. -1.
         22    1    1    2    0    0  0.93812418329E+03  0.17422047202E+04 -0.68610450625E+03  0.20943002802E+04  0.00000000000E+00 0. -1.
<mgrwt>
<rscale>  0 0.45584505E+04</rscale>
<asrwt>0</asrwt>
<pdfrwt beam="1">  1        2 0.42976514E+00 0.45584505E+04</pdfrwt>
<pdfrwt beam="2">  1       -2 0.28609917E+00 0.45584505E+04</pdfrwt>
<totfact> 0.68009376E-02</totfact>
</mgrwt>
</event>
<event>
 6    1  0.5196787E-004  0.1600190E+04  0.7818608E-02  0.8820431E-01
          2   -1    0    0  501    0  0.00000000000E+00  0.00000000000E+00  0.15299138387E+04  0.15299138387E+04  0.00000000000E+00 0.  1.
         -2   -1    0    0    0  501 -0.00000000000E+00 -0.00000000000E+00 -0.41842378510E+03  0.41842378510E+03  0.00000000000E+00 0. -1.
         23    2    1    2    0    0  0.37619183668E+03  0.53502561018E+03  0.21068759869E+01  0.66050854496E+03  0.92165055816E+02 0.  0.
         13    1    3    3    0    0  0.10869063237E+03  0.89394334386E+02 -0.17094830511E+01  0.14074062284E+03  0.00000000000E+00 0. -1.
        -13    1    3    3    0    0  0.26750120430E+03  0.44563127579E+03  0.38163590379E+01  0.51976792212E+03  0.00000000000E+00 0.  1.
         22    1    1    2    0    0 -0.37619183668E+03 -0.53502561018E+03  0.11093831776E+04  0.12878290788E+04  0.00000000000E+00 0.  1.
<mgrwt>
<rscale>  0 0.16001904E+04</rscale>
<asrwt>0</asrwt>
<pdfrwt beam="1">  1        2 0.23537136E+00 0.16001904E+04</pdfrwt>
<pdfrwt beam="2">  1       -2 0.64372891E-01 0.16001904E+04</pdfrwt>
<totfact> 0.26096578E+01</totfact>
</mgrwt>
</event>
<event>
 6    1  0.5196787E-004  0.1674473E+04  0.7818608E-02  0.8776059E-01
          2   -1    0    0  501    0  0.00000000000E+00  0.00000000000E+00  0.14520587535E+04  0.14520587535E+04  0.00000000000E+00 0.  1.
         -2   -1    0    0    0  501 -0.00000000000E+00 -0.00000000000E+00 -0.48273845497E+03  0.48273845497E+03  0.00000000000E+00 0. -1.
         23    2    1    2    0    0 -0.46213124608E+03 -0.42501105133E+03 -0.14916191630E+03  0.65214287184E+03  0.94028536425E+02 0.  0.
         13    1    3    3    0    0 -0.19504724096E+03 -0.23915273594E+03 -0.55634441818E+02  0.31358036997E+03  0.00000000000E+00 0.  1.
        -13    1    3    3    0    0 -0.26708400512E+03 -0.18585831539E+03 -0.93527474478E+02  0.33856250187E+03  0.00000000000E+00 0. -1.
         22    1    1    2    0    0  0.46213124608E+03  0.42501105133E+03  0.11184822148E+04  0.12826543366E+04  0.00000000000E+00 0.  1.
<mgrwt>
<rscale>  0 0.16744726E+04</rscale>
<asrwt>0</asrwt>
<pdfrwt beam="1">  1        2 0.22339365E+00 0.16744726E+04</pdfrwt>
<pdfrwt beam="2">  1       -2 0.74267455E-01 0.16744726E+04</pdfrwt>
<totfact> 0.21026195E+01</totfact>
</mgrwt>
</event>
<event>
 6    1  0.5196787E-004  0.6993068E+03  0.7818608E-02  0.9718418E-01
         -1   -1    0    0    0  501 -0.00000000000E+00  0.00000000000E+00  0.47468213962E+02  0.47468213962E+02  0.00000000000E+00 0. -1.
          1   -1    0    0  501    0  0.00000000000E+00 -0.00000000000E+00 -0.25755657004E+04  0.25755657004E+04  0.00000000000E+00 0.  1.
         23    2    1    2    0    0 -0.15275312173E+03  0.12831256129E+02 -0.24397640752E+04  0.24461131726E+04  0.86733805976E+02 0.  0.
         11    1    3    3    0    0 -0.12111880849E+03 -0.26787847599E+02 -0.15848471557E+04  0.15896942666E+04  0.00000000000E+00 0.  1.
        -11    1    3    3    0    0 -0.31634313242E+02  0.39619103728E+02 -0.85491691953E+03  0.85641890594E+03  0.00000000000E+00 0. -1.
         22    1    1    2    0    0  0.15275312173E+03 -0.12831256129E+02 -0.88333411237E+02  0.17692074178E+03  0.00000000000E+00 0. -1.
<mgrwt>
<rscale>  0 0.69930681E+03</rscale>
<asrwt>0</asrwt>
<pdfrwt beam="1">  1        1 0.39624095E+00 0.69930681E+03</pdfrwt>
<pdfrwt beam="2">  1       -1 0.73028009E-02 0.69930681E+03</pdfrwt>
<totfact> 0.13032690E+02</totfact>
</mgrwt>
</event>
<event>
 6    1  0.5196787E-004  0.3353556E+04  0.7818608E-02  0.8149400E-01
          2   -1    0    0  501    0  0.00000000000E+00  0.00000000000E+00  0.79546344719E+03  0.79546344719E+03  0.00000000000E+00 0.  1.
         -2   -1    0    0    0  501 -0.00000000000E+00 -0.00000000000E+00 -0.35345248031E+04  0.35345248031E+04  0.00000000000E+00 0. -1.
         23    2    1    2    0    0  0.67629481096E+03  0.66401994816E+03 -0.31545341828E+04  0.32951381003E+04  0.92477170351E+02 0.  0.
         11    1    3    3    0    0  0.50492535359E+03  0.54736843059E+03 -0.25007959995E+04  0.26093183866E+04  0.00000000000E+00 0. -1.
        -11    1    3    3    0    0  0.17136945738E+03  0.11665151757E+03 -0.65373818331E+03  0.68581971377E+03  0.00000000000E+00 0.  1.
         22    1    1    2    0    0 -0.67629481096E+03 -0.66401994816E+03  0.41547282691E+03  0.10348501499E+04  0.00000000000E+00 0.  1.
<mgrwt>
<rscale>  0 0.33535565E+04</rscale>
<asrwt>0</asrwt>
<pdfrwt beam="1">  1        2 0.12237899E+00 0.33535565E+04</pdfrwt>
<pdfrwt beam="2">  1       -2 0.54377305E+00 0.33535565E+04</pdfrwt>
<totfact> 0.26441115E-02</totfact>
</mgrwt>
</event>
<event>
 6    1  0.5196787E-004  0.2299707E+04  0.7818608E-02  0.8478036E-01
         -2   -1    0    0    0  501 -0.00000000000E+00  0.00000000000E+00  0.58233435405E+03  0.58233435405E+03  0.00000000000E+00 0. -1.
          2   -1    0    0  501    0  0.00000000000E+00 -0.00000000000E+00 -0.22704543118E+04  0.22704543118E+04  0.00000000000E+00 0.  1.
         23    2    1    2    0    0  0.50788195235E+03 -0.57944829749E+03  0.21035525326E+03  0.80390786556E+03  0.91181778603E+02 0.  0.
         11    1    3    3    0    0  0.42021855868E+03 -0.42427783854E+03  0.14952681008E+03  0.61559206319E+03  0.00000000000E+00 0. -1.
        -11    1    3    3    0    0  0.87663393666E+02 -0.15517045896E+03  0.60828443182E+02  0.18831580237E+03  0.00000000000E+00 0.  1.
         22    1    1    2    0    0 -0.50788195235E+03  0.57944829749E+03 -0.18984752110E+04  0.20488808002E+04  0.00000000000E+00 0.  1.
<mgrwt>
<rscale>  0 0.22997074E+04</rscale>
<asrwt>0</asrwt>
<pdfrwt beam="1">  1        2 0.34930066E+00 0.22997074E+04</pdfrwt>
<pdfrwt beam="2">  1       -2 0.89589902E-01 0.22997074E+04</pdfrwt>
<totfact> 0.45619116E+00</totfact>
</mgrwt>
</event>
<event>
 6    1  0.5196787E-004  0.3796744E+04  0.7818608E-02  0.8046854E-01
         -2   -1    0    0    0  501 -0.00000000000E+00  0.00000000000E+00  0.95988162265E+03  0.95988162265E+03  0.00000000000E+00 0. -1.
          2   -1    0    0  501    0  0.00000000000E+00 -0.00000000000E+00 -0.37544387456E+04  0.37544387456E+04  0.00000000000E+00 0.  1.
         23    2    1    2    0    0 -0.16420176009E+03 -0.12092045192E+04  0.40583932836E+03  0.12891670530E+04  0.90046336732E+02 0.  0.
         13    1    3    3    0    0 -0.24983403512E+02 -0.51300150532E+03  0.17437258996E+03  0.54240253967E+03  0.00000000000E+00 0. -1.
        -13    1    3    3    0    0 -0.13921835658E+03 -0.69620301391E+03  0.23146673840E+03  0.74676451334E+03  0.00000000000E+00 0.  1.
         22    1    1    2    0    0  0.16420176009E+03  0.12092045192E+04 -0.32003964514E+04  0.34251533153E+04  0.00000000000E+00 0. -1.
<mgrwt>
<rscale>  0 0.37967443E+04</rscale>
<asrwt>0</asrwt>
<pdfrwt beam="1">  1        2 0.57760598E+00 0.37967443E+04</pdfrwt>
<pdfrwt beam="2">  1       -2 0.14767409E+00 0.37967443E+04</pdfrwt>
<totfact> 0.13282079E-01</totfact>
</mgrwt>
</event>
<event>
 6    1  0.5196787E-004  0.1919962E+04  0.7818608E-02  0.8644983E-01
         -1   -1    0    0    0  501 -0.00000000000E+00  0.00000000000E+00  0.56503733764E+03  0.56503733764E+03  0.00000000000E+00 0.  1.
          1   -1    0    0  501    0  0.00000000000E+00 -0.00000000000E+00 -0.16309775888E+04  0.16309775888E+04  0.00000000000E+00 0. -1.
         23    2    1    2    0    0 -0.13475765784E+03  0.69285465369E+03 -0.12746605932E+04  0.14599637199E+04  0.92343045940E+02 0.  0.
         13    1    3    3    0    0 -0.77301372781E+01  0.26882741785E+03 -0.50131690475E+03  0.56889944155E+03  0.00000000000E+00 0. -1.
        -13    1    3    3    0    0 -0.12702752056E+03  0.42402723584E+03 -0.77334368847E+03  0.89106427839E+03  0.00000000000E+00 0.  1.
         22    1    1    2    0    0  0.13475765784E+03 -0.69285465369E+03  0.20872034201E+03  0.73605120655E+03  0.00000000000E+00 0.  1.
<mgrwt>
<rscale>  0 0.19199617E+04</rscale>
<asrwt>0</asrwt>
<pdfrwt beam="1">  1        1 0.25091963E+00 0.19199617E+04</pdfrwt>
<pdfrwt beam="2">  1       -1 0.86928821E-01 0.19199617E+04</pdfrwt>
<totfact> 0.64698909E+00</totfact>
</mgrwt>
</event>
<event>
 6    1  0.5196787E-004  0.2099300E+04  0.7818608E-02  0.8561552E-01
          2   -1    0    0  501    0  0.00000000000E+00  0.00000000000E+00  0.12420529446E+04  0.12420529446E+04  0.00000000000E+00 0.  1.
         -2   -1    0    0    0  501 -0.00000000000E+00 -0.00000000000E+00 -0.88705191321E+03  0.88705191321E+03  0.00000000000E+00 0. -1.
         23    2    1    2    0    0 -0.61349688527E+03 -0.40850067155E+03 -0.57733472112E+03  0.94061792802E+03  0.90528887145E+02 0.  0.
         13    1    3    3    0    0 -0.15025061064E+03 -0.12573307511E+03 -0.19739059820E+03  0.27811346684E+03  0.00000000000E+00 0. -1.
        -13    1    3    3    0    0 -0.46324627462E+03 -0.28276759644E+03 -0.37994412292E+03  0.66250446118E+03  0.00000000000E+00 0.  1.
         22    1    1    2    0    0  0.61349688527E+03  0.40850067155E+03  0.93233575252E+03  0.11884869298E+04  0.00000000000E+00 0.  1.
<mgrwt>
<rscale>  0 0.20993003E+04</rscale>
<asrwt>0</asrwt>
<pdfrwt beam="1">  1        2 0.19108507E+00 0.20993003E+04</pdfrwt>
<pdfrwt beam="2">  1       -2 0.13646952E+00 0.20993003E+04</pdfrwt>
<totfact> 0.63240220E+00</totfact>
</mgrwt>
</event>
<event>
 6    1  0.5196787E-004  0.1319319E+04  0.7818608E-02  0.9014384E-01
          2   -1    0    0  501    0  0.00000000000E+00  0.00000000000E+00  0.13925025995E+04  0.13925025995E+04  0.00000000000E+00 0.  1.
         -2   -1    0    0    0  501 -0.00000000000E+00 -0.00000000000E+00 -0.31249553969E+03  0.31249553969E+03  0.00000000000E+00 0. -1.
         23    2    1    2    0    0  0.31508556674E+03 -0.21676705507E+03 -0.15074493529E+03  0.41619352097E+03  0.65008775212E+02 0.  0.
         11    1    3    3    0    0  0.29264905218E+02 -0.38014572387E+02 -0.36380966608E+02  0.60208945535E+02  0.00000000000E+00 0. -1.
        -11    1    3    3    0    0  0.28582066152E+03 -0.17875248268E+03 -0.11436396868E+03  0.35598457544E+03  0.00000000000E+00 0.  1.
         22    1    1    2    0    0 -0.31508556674E+03  0.21676705507E+03  0.12307519951E+04  0.12888046183E+04  0.00000000000E+00 0.  1.
<mgrwt>
<rscale>  0 0.13193193E+04</rscale>
<asrwt>0</asrwt>
<pdfrwt beam="1">  1        2 0.21423117E+00 0.13193193E+04</pdfrwt>
<pdfrwt beam="2">  1       -2 0.48076238E-01 0.13193193E+04</pdfrwt>
<totfact> 0.58619470E+01</totfact>
</mgrwt>
</event>
<event>
 6    1  0.5196787E-004  0.4912155E+04  0.7818608E-02  0.7842203E-01
          1   -1    0    0  501    0  0.00000000000E+00  0.00000000000E+00  0.34043893159E+04  0.34043893159E+04  0.00000000000E+00 0.  1.
         -1   -1    0    0    0  501 -0.00000000000E+00 -0.00000000000E+00 -0.17719230490E+04  0.17719230490E+04  0.00000000000E+00 0. -1.
         23    2    1    2    0    0 -0.20657012058E+04 -0.10607356108E+04  0.16567367653E+04  0.28540568741E+04  0.92641370462E+02 0.  0.
         11    1    3    3    0    0 -0.13234244913E+04 -0.67528802805E+03  0.10052300773E+04  0.17938656062E+04  0.00000000000E+00 0. -1.
        -11    1    3    3    0    0 -0.74227671450E+03 -0.38544758279E+03  0.65150668798E+03  0.10601912679E+04  0.00000000000E+00 0.  1.
         22    1    1    2    0    0  0.20657012058E+04  0.10607356108E+04 -0.24270498306E+02  0.23222554908E+04  0.00000000000E+00 0. -1.
<mgrwt>
<rscale>  0 0.49121547E+04</rscale>
<asrwt>0</asrwt>
<pdfrwt beam="1">  1        1 0.52375220E+00 0.49121547E+04</pdfrwt>
<pdfrwt beam="2">  1       -1 0.27260355E+00 0.49121547E+04</pdfrwt>
<totfact> 0.10716144E-02</totfact>
</mgrwt>
</event>
<event>
 6    1  0.5196787E-004  0.3286577E+04  0.7818608E-02  0.8166319E-01
          2   -1    0    0  501    0  0.00000000000E+00  0.00000000000E+00  0.11659067514E+04  0.11659067514E+04  0.00000000000E+00 0.  1.
         -2   -1    0    0    0  501 -0.00000000000E+00 -0.00000000000E+00 -0.23161340270E+04  0.23161340270E+04  0.00000000000E+00 0. -1.
         23    2    1    2    0    0 -0.13957116399E+04  0.63196457689E+03  0.50085846608E+02  0.15357258502E+04  0.92493713215E+02 0.  0.
         13    1    3    3    0    0 -0.16240045081E+03  0.44203533524E+02 -0.53711819089E+01  0.16839450227E+03  0.00000000000E+00 0.  1.
        -13    1    3    3    0    0 -0.12333111890E+04  0.58776104337E+03  0.55457028517E+02  0.13673313480E+04  0.00000000000E+00 0. -1.
         22    1    1    2    0    0  0.13957116399E+04 -0.63196457689E+03 -0.12003131222E+04  0.19463149281E+04  0.00000000000E+00 0. -1.
<mgrwt>
<rscale>  0 0.32865765E+04</rscale>
<asrwt>0</asrwt>
<pdfrwt beam="1">  1        2 0.17937027E+00 0.32865765E+04</pdfrwt>
<pdfrwt beam="2">  1       -2 0.35632831E+00 0.32865765E+04</pdfrwt>
<totfact> 0.23546152E-01</totfact>
</mgrwt>
</event>
<event>
 6    1  0.5196787E-004  0.1763392E+04  0.7818608E-02  0.8726013E-01
         -2   -1    0    0    0  501 -0.00000000000E+00  0.00000000000E+00  0.76402183673E+03  0.76402183673E+03  0.00000000000E+00 0. -1.
          2   -1    0    0  501    0  0.00000000000E+00 -0.00000000000E+00 -0.10174940973E+04  0.10174940973E+04  0.00000000000E+00 0.  1.
         23    2    1    2    0    0  0.52012446446E+03 -0.68645428010E+03 -0.30543851104E+03  0.91870110544E+03  0.94710611427E+02 0.  0.
         11    1    3    3    0    0  0.24196358890E+03 -0.39175800774E+03 -0.18143016256E+03  0.49491172836E+03  0.00000000000E+00 0.  1.
        -11    1    3    3    0    0  0.27816087555E+03 -0.29469627236E+03 -0.12400834847E+03  0.42378937708E+03  0.00000000000E+00 0. -1.
         22    1    1    2    0    0 -0.52012446446E+03  0.68645428010E+03  0.51966250501E+02  0.86281482856E+03  0.00000000000E+00 0.  1.
<mgrwt>
<rscale>  0 0.17633919E+04</rscale>
<asrwt>0</asrwt>
<pdfrwt beam="1">  1        2 0.15653755E+00 0.17633919E+04</pdfrwt>
<pdfrwt beam="2">  1       -2 0.11754182E+00 0.17633919E+04</pdfrwt>
<totfact> 0.12990633E+01</totfact>
</mgrwt>
</event>
<event>
 6    1  0.5196787E-004  0.5215212E+03  0.7818608E-02  0.1008309E+00
         -2   -1    0    0    0  501 -0.00000000000E+00  0.00000000000E+00  0.28911594028E+02  0.28911594028E+02  0.00000000000E+00 0. -1.
          2   -1    0    0  501    0  0.00000000000E+00 -0.00000000000E+00 -0.23518619435E+04  0.23518619435E+04  0.00000000000E+00 0.  1.
         23    2    1    2    0    0 -0.19215549606E+03  0.47236120236E+02 -0.19147454086E+04  0.19271368333E+04  0.91931542759E+02 0.  0.
         11    1    3    3    0    0 -0.92423241606E+01 -0.16572162748E+02 -0.81283599288E+02  0.83469040052E+02  0.00000000000E+00 0.  1.
        -11    1    3    3    0    0 -0.18291317190E+03  0.63808282984E+02 -0.18334618093E+04  0.18436677932E+04  0.00000000000E+00 0. -1.
         22    1    1    2    0    0  0.19215549606E+03 -0.47236120236E+02 -0.40820494083E+03  0.45363670425E+03  0.00000000000E+00 0. -1.
<mgrwt>
<rscale>  0 0.52152115E+03</rscale>
<asrwt>0</asrwt>
<pdfrwt beam="1">  1        2 0.36182502E+00 0.52152115E+03</pdfrwt>
<pdfrwt beam="2">  1       -2 0.44479362E-02 0.52152115E+03</pdfrwt>
<totfact> 0.11012113E+03</totfact>
</mgrwt>
</event>
<event>
 6    1  0.5196787E-004  0.1456760E+04  0.7818608E-02  0.8913728E-01
         -2   -1    0    0    0  501 -0.00000000000E+00  0.00000000000E+00  0.85918403479E+03  0.85918403479E+03  0.00000000000E+00 0. -1.
          2   -1    0    0  501    0  0.00000000000E+00 -0.00000000000E+00 -0.61748962359E+03  0.61748962359E+03  0.00000000000E+00 0.  1.
         23    2    1    2    0    0  0.35472324958E+03  0.15465094209E+03  0.74345200218E+03  0.84302850705E+03  0.90723130826E+02 0.  0.
         13    1    3    3    0    0  0.21288853336E+03  0.71207823288E+02  0.34126069035E+03  0.40847391656E+03  0.00000000000E+00 0.  1.
        -13    1    3    3    0    0  0.14183471623E+03  0.83443118802E+02  0.40219131184E+03  0.43455459049E+03  0.00000000000E+00 0. -1.
         22    1    1    2    0    0 -0.35472324958E+03 -0.15465094209E+03 -0.50175759099E+03  0.63364515132E+03  0.00000000000E+00 0.  1.
<mgrwt>
<rscale>  0 0.14567597E+04</rscale>
<asrwt>0</asrwt>
<pdfrwt beam="1">  1        2 0.94998404E-01 0.14567597E+04</pdfrwt>
<pdfrwt beam="2">  1       -2 0.13218216E+00 0.14567597E+04</pdfrwt>
<totfact> 0.19318242E+01</totfact>
</mgrwt>
</event>
<event>
 6    1  0.5196787E-004  0.1298549E+04  0.7818608E-02  0.9030716E-01
          2   -1    0    0  501    0  0.00000000000E+00  0.00000000000E+00  0.17083347530E+04  0.17083347530E+04  0.00000000000E+00 0.  1.
         -2   -1    0    0    0  501 -0.00000000000E+00 -0.00000000000E+00 -0.24676520399E+03  0.24676520399E+03  0.00000000000E+00 0. -1.
         23    2    1    2    0    0 -0.26561017998E+03 -0.29976586865E+03  0.14975383189E+04  0.15529779654E+04  0.93333814280E+02 0.  0.
         11    1    3    3    0    0 -0.25903007479E+03 -0.24919459843E+03  0.12770885082E+04  0.13267062921E+04  0.00000000000E+00 0.  1.
        -11    1    3    3    0    0 -0.65801051889E+01 -0.50571270226E+02  0.22044981064E+03  0.22627167337E+03  0.00000000000E+00 0. -1.
         22    1    1    2    0    0  0.26561017998E+03  0.29976586865E+03 -0.35968769844E+02  0.40212199159E+03  0.00000000000E+00 0. -1.
<mgrwt>
<rscale>  0 0.12985493E+04</rscale>
<asrwt>0</asrwt>
<pdfrwt beam="1">  1        2 0.26282072E+00 0.12985493E+04</pdfrwt>
<pdfrwt beam="2">  1       -2 0.37963879E-01 0.12985493E+04</pdfrwt>
<totfact> 0.62280974E+01</totfact>
</mgrwt>
</event>
<event>
 6    1  0.5196787E-004  0.1058698E+04  0.7818608E-02  0.9246410E-01
         -2   -1    0    0    0  501 -0.00000000000E+00  0.00000000000E+00  0.12408821631E+03  0.12408821631E+03  0.00000000000E+00 0. -1.
          2   -1    0    0  501    0  0.00000000000E+00 -0.00000000000E+00 -0.22581529140E+04  0.22581529140E+04  0.00000000000E+00 0.  1.
         23    2    1    2    0    0  0.28115632026E+03 -0.23737655867E+03 -0.19189231804E+04  0.19559989697E+04  0.90935637268E+02 0.  0.
         13    1    3    3    0    0  0.20341768358E+03 -0.11460783534E+03 -0.11487069828E+04  0.11721951383E+04  0.00000000000E+00 0.  1.
        -13    1    3    3    0    0  0.77738636681E+02 -0.12276872333E+03 -0.77021619757E+03  0.78380383136E+03  0.00000000000E+00 0. -1.
         22    1    1    2    0    0 -0.28115632026E+03  0.23737655867E+03 -0.21514151727E+03  0.42624216061E+03  0.00000000000E+00 0. -1.
<mgrwt>
<rscale>  0 0.10586976E+04</rscale>
<asrwt>0</asrwt>
<pdfrwt beam="1">  1        2 0.34740810E+00 0.10586976E+04</pdfrwt>
<pdfrwt beam="2">  1       -2 0.19090497E-01 0.10586976E+04</pdfrwt>
<totfact> 0.11118566E+02</totfact>
</mgrwt>
</event>
<event>
 6    1  0.5196787E-004  0.3295493E+04  0.7818608E-02  0.8164043E-01
         -2   -1    0    0    0  501 -0.00000000000E+00  0.00000000000E+00  0.12188168573E+04  0.12188168573E+04  0.00000000000E+00 0. -1.
          2   -1    0    0  501    0  0.00000000000E+00 -0.00000000000E+00 -0.22276259958E+04  0.22276259958E+04  0.00000000000E+00 0.  1.
         23    2    1    2    0    0  0.10026915054E+03  0.97026664600E+03  0.88315594031E+03  0.13178275459E+04  0.72344722425E+02 0.  0.
         13    1    3    3    0    0  0.55151333757E+02  0.27746419474E+03  0.22968766777E+03  0.36439603964E+03  0.00000000000E+00 0.  1.
        -13    1    3    3    0    0  0.45117816781E+02  0.69280245127E+03  0.65346827254E+03  0.95343150624E+03  0.00000000000E+00 0. -1.
         22    1    1    2    0    0 -0.10026915054E+03 -0.97026664600E+03 -0.18919650788E+04  0.21286153073E+04  0.00000000000E+00 0.  1.
<mgrwt>
<rscale>  0 0.32954927E+04</rscale>
<asrwt>0</asrwt>
<pdfrwt beam="1">  1        2 0.34271169E+00 0.32954927E+04</pdfrwt>
<pdfrwt beam="2">  1       -2 0.18751029E+00 0.32954927E+04</pdfrwt>
<totfact> 0.67060718E-01</totfact>
</mgrwt>
</event>
<event>
 6    1  0.5196787E-004  0.3435324E+04  0.7818608E-02  0.8129291E-01
          2   -1    0    0  501    0  0.00000000000E+00  0.00000000000E+00  0.14231174202E+04  0.14231174202E+04  0.00000000000E+00 0.  1.
         -2   -1    0    0    0  501 -0.00000000000E+00 -0.00000000000E+00 -0.20731685733E+04  0.20731685733E+04  0.00000000000E+00 0. -1.
         23    2    1    2    0    0 -0.41371716165E+03 -0.90572994106E+03  0.10976733382E+04  0.14848065595E+04  0.90857831782E+02 0.  0.
         11    1    3    3    0    0 -0.59539621399E+02 -0.68500906783E+02  0.10436271004E+03  0.13830732444E+03  0.00000000000E+00 0. -1.
        -11    1    3    3    0    0 -0.35417754025E+03 -0.83722903428E+03  0.99331062818E+03  0.13464992350E+04  0.00000000000E+00 0.  1.
         22    1    1    2    0    0  0.41371716165E+03  0.90572994106E+03 -0.17477244913E+04  0.20114794340E+04  0.00000000000E+00 0. -1.
<mgrwt>
<rscale>  0 0.34353237E+04</rscale>
<asrwt>0</asrwt>
<pdfrwt beam="1">  1        2 0.21894114E+00 0.34353237E+04</pdfrwt>
<pdfrwt beam="2">  1       -2 0.31894901E+00 0.34353237E+04</pdfrwt>
<totfact> 0.28175713E-01</totfact>
</mgrwt>
</event>
<event>
 6    1  0.5196787E-004  0.1802259E+04  0.7818608E-02  0.8705099E-01
          2   -1    0    0  501    0  0.00000000000E+00  0.00000000000E+00  0.52555291689E+03  0.52555291689E+03  0.00000000000E+00 0.  1.
         -2   -1    0    0    0  501 -0.00000000000E+00 -0.00000000000E+00 -0.15451054556E+04  0.15451054556E+04  0.00000000000E+00 0. -1.
         23    2    1    2    0    0 -0.86669377205E+03  0.21384316487E+03 -0.63306103007E+03  0.10978980321E+04  0.87902373806E+02 0.  0.
         11    1    3    3    0    0 -0.24011414529E+03  0.94207532314E+02 -0.20801681758E+03  0.33136212564E+03  0.00000000000E+00 0.  1.
        -11    1    3    3    0    0 -0.62657962677E+03  0.11963563256E+03 -0.42504421249E+03  0.76653590642E+03  0.00000000000E+00 0. -1.
         22    1    1    2    0    0  0.86669377205E+03 -0.21384316487E+03 -0.38649150865E+03  0.97276034044E+03  0.00000000000E+00 0. -1.
<mgrwt>
<rscale>  0 0.18022593E+04</rscale>
<asrwt>0</asrwt>
<pdfrwt beam="1">  1        2 0.80854295E-01 0.18022593E+04</pdfrwt>
<pdfrwt beam="2">  1       -2 0.23770853E+00 0.18022593E+04</pdfrwt>
<totfact> 0.41952047E+00</totfact>
</mgrwt>
</event>
<event>
 6    1  0.5196787E-004  0.2533781E+04  0.7818608E-02  0.8391049E-01
          1   -1    0    0  501    0  0.00000000000E+00  0.00000000000E+00  0.22251647803E+04  0.22251647803E+04  0.00000000000E+00 0.  1.
         -1   -1    0    0    0  501 -0.00000000000E+00 -0.00000000000E+00 -0.72129998658E+03  0.72129998658E+03  0.00000000000E+00 0. -1.
         23    2    1    2    0    0 -0.68320383422E+03 -0.60725165278E+03 -0.26457887317E+03  0.95575759308E+03  0.89154628016E+02 0.  0.
         11    1    3    3    0    0 -0.27979089329E+03 -0.20429679834E+03 -0.71287537670E+02  0.35369766582E+03  0.00000000000E+00 0.  1.
        -11    1    3    3    0    0 -0.40341294093E+03 -0.40295485444E+03 -0.19329133550E+03  0.60205992725E+03  0.00000000000E+00 0. -1.
         22    1    1    2    0    0  0.68320383422E+03  0.60725165278E+03  0.17684436669E+04  0.19907071738E+04  0.00000000000E+00 0.  1.
<mgrwt>
<rscale>  0 0.25337808E+04</rscale>
<asrwt>0</asrwt>
<pdfrwt beam="1">  1        1 0.34233304E+00 0.25337808E+04</pdfrwt>
<pdfrwt beam="2">  1       -1 0.11096923E+00 0.25337808E+04</pdfrwt>
<totfact> 0.13861001E+00</totfact>
</mgrwt>
</event>
<event>
 6    1  0.5196787E-004  0.1176511E+04  0.7818608E-02  0.9133668E-01
         -2   -1    0    0    0  501 -0.00000000000E+00  0.00000000000E+00  0.40705451741E+03  0.40705451741E+03  0.00000000000E+00 0. -1.
          2   -1    0    0  501    0  0.00000000000E+00 -0.00000000000E+00 -0.85011886590E+03  0.85011886590E+03  0.00000000000E+00 0.  1.
         23    2    1    2    0    0  0.25241500240E+02  0.99330361146E+02 -0.83782380598E+03  0.84932698666E+03  0.94360725001E+02 0.  0.
         13    1    3    3    0    0 -0.33012276076E+02  0.17547660014E+02 -0.28718783944E+03  0.28961109417E+03  0.00000000000E+00 0. -1.
        -13    1    3    3    0    0  0.58253776316E+02  0.81782701131E+02 -0.55063596654E+03  0.55971589249E+03  0.00000000000E+00 0.  1.
         22    1    1    2    0    0 -0.25241500240E+02 -0.99330361146E+02  0.39475945749E+03  0.40784639665E+03  0.00000000000E+00 0. -1.
<mgrwt>
<rscale>  0 0.11765113E+04</rscale>
<asrwt>0</asrwt>
<pdfrwt beam="1">  1        2 0.13078752E+00 0.11765113E+04</pdfrwt>
<pdfrwt beam="2">  1       -2 0.62623771E-01 0.11765113E+04</pdfrwt>
<totfact> 0.74176268E+01</totfact>
</mgrwt>
</event>
<event>
 6    1  0.5196787E-004  0.1055748E+04  0.7818608E-02  0.9249430E-01
          2   -1    0    0  501    0  0.00000000000E+00  0.00000000000E+00  0.17699798452E+04  0.17699798452E+04  0.00000000000E+00 0.  1.
         -2   -1    0    0    0  501 -0.00000000000E+00 -0.00000000000E+00 -0.15743164441E+03  0.15743164441E+03  0.00000000000E+00 0. -1.
         23    2    1    2    0    0 -0.33996181551E+03 -0.18915777921E+03  0.16090380782E+03  0.42453885859E+03  0.54667226387E+02 0.  0.
         11    1    3    3    0    0 -0.53105596707E+02 -0.38498408410E+02  0.74175406872E+01  0.66010239823E+02  0.00000000000E+00 0.  1.
        -11    1    3    3    0    0 -0.28685621880E+03 -0.15065937080E+03  0.15348626714E+03  0.35852861877E+03  0.00000000000E+00 0. -1.
         22    1    1    2    0    0  0.33996181551E+03  0.18915777921E+03  0.14516443930E+04  0.15028726310E+04  0.00000000000E+00 0.  1.
<mgrwt>
<rscale>  0 0.10557478E+04</rscale>
<asrwt>0</asrwt>
<pdfrwt beam="1">  1        2 0.27230458E+00 0.10557478E+04</pdfrwt>
<pdfrwt beam="2">  1       -2 0.24220254E-01 0.10557478E+04</pdfrwt>
<totfact> 0.13568538E+02</totfact>
</mgrwt>
</event>
<event>
 6    1  0.5196787E-004  0.2480589E+04  0.7818608E-02  0.8409934E-01
         -2   -1    0    0    0  501 -0.00000000000E+00  0.00000000000E+00  0.14488046760E+04  0.14488046760E+04  0.00000000000E+00 0. -1.
          2   -1    0    0  501    0  0.00000000000E+00 -0.00000000000E+00 -0.10617929524E+04  0.10617929524E+04  0.00000000000E+00 0.  1.
         23    2    1    2    0    0  0.65935233887E+03  0.67015913743E+03 -0.62244158321E+03  0.11311576135E+04  0.90693140552E+02 0.  0.
         11    1    3    3    0    0  0.19605116421E+03  0.25893990250E+03 -0.20200400124E+03  0.38248078202E+03  0.00000000000E+00 0.  1.
        -11    1    3    3    0    0  0.46330117467E+03  0.41121923492E+03 -0.42043758197E+03  0.74867683145E+03  0.00000000000E+00 0. -1.
         22    1    1    2    0    0 -0.65935233887E+03 -0.67015913743E+03  0.10094533068E+04  0.13794400149E+04  0.00000000000E+00 0. -1.
<mgrwt>
<rscale>  0 0.24805891E+04</rscale>
<asrwt>0</asrwt>
<pdfrwt beam="1">  1        2 0.16335276E+00 0.24805891E+04</pdfrwt>
<pdfrwt beam="2">  1       -2 0.22289303E+00 0.24805891E+04</pdfrwt>
<totfact> 0.19476521E+00</totfact>
</mgrwt>
</event>
<event>
 6    1  0.5196787E-004  0.4851688E+04  0.7818608E-02  0.7851802E-01
          2   -1    0    0  501    0  0.00000000000E+00  0.00000000000E+00  0.36423587883E+04  0.36423587883E+04  0.00000000000E+00 0.  1.
         -2   -1    0    0    0  501 -0.00000000000E+00 -0.00000000000E+00 -0.16156340241E+04  0.16156340241E+04  0.00000000000E+00 0. -1.
         23    2    1    2    0    0 -0.11756468687E+04  0.11064400772E+04  0.29747337709E+04  0.33858079173E+04  0.91099072814E+02 0.  0.
         11    1    3    3    0    0 -0.60660969172E+03  0.60532794242E+03  0.14986728911E+04  0.17263886209E+04  0.00000000000E+00 0. -1.
        -11    1    3    3    0    0 -0.56903717694E+03  0.50111213474E+03  0.14760608799E+04  0.16594192964E+04  0.00000000000E+00 0.  1.
         22    1    1    2    0    0  0.11756468687E+04 -0.11064400772E+04 -0.94800900672E+03  0.18721848950E+04  0.00000000000E+00 0. -1.
<mgrwt>
<rscale>  0 0.48516879E+04</rscale>
<asrwt>0</asrwt>
<pdfrwt beam="1">  1        2 0.56036289E+00 0.48516879E+04</pdfrwt>
<pdfrwt beam="2">  1       -2 0.24855908E+00 0.48516879E+04</pdfrwt>
<totfact> 0.31004468E-02</totfact>
</mgrwt>
</event>
<event>
 6    1  0.5196787E-004  0.8755952E+03  0.7818608E-02  0.9456613E-01
          2   -1    0    0  501    0  0.00000000000E+00  0.00000000000E+00  0.68395471314E+03  0.68395471314E+03  0.00000000000E+00 0.  1.
         -2   -1    0    0    0  501 -0.00000000000E+00 -0.00000000000E+00 -0.28023310406E+03  0.28023310406E+03  0.00000000000E+00 0. -1.
         23    2    1    2    0    0 -0.18200954199E+03 -0.20013280817E+03  0.57630078413E+03  0.64330748757E+03  0.92419237733E+02 0.  0.
         13    1    3    3    0    0 -0.97912289686E+02 -0.57005980683E+02  0.16886975834E+03  0.20335558410E+03  0.00000000000E+00 0. -1.
        -13    1    3    3    0    0 -0.84097252300E+02 -0.14312682749E+03  0.40743102579E+03  0.43995190347E+03  0.00000000000E+00 0.  1.
         22    1    1    2    0    0  0.18200954199E+03  0.20013280817E+03 -0.17257917505E+03  0.32088032963E+03  0.00000000000E+00 0. -1.
<mgrwt>
<rscale>  0 0.87559523E+03</rscale>
<asrwt>0</asrwt>
<pdfrwt beam="1">  1        2 0.10522380E+00 0.87559523E+03</pdfrwt>
<pdfrwt beam="2">  1       -2 0.43112785E-01 0.87559523E+03</pdfrwt>
<totfact> 0.21601363E+02</totfact>
</mgrwt>
</event>
<event>
 6    1  0.5196787E-004  0.2266238E+04  0.7818608E-02  0.8491353E-01
          2   -1    0    0  501    0  0.00000000000E+00  0.00000000000E+00  0.18932591393E+04  0.18932591393E+04  0.00000000000E+00 0.  1.
         -2   -1    0    0    0  501 -0.00000000000E+00 -0.00000000000E+00 -0.67817371554E+03  0.67817371554E+03  0.00000000000E+00 0. -1.
         23    2    1    2    0    0 -0.39789749029E+03  0.36661704850E+03 -0.51882174945E+03  0.75507260468E+03  0.90709192516E+02 0.  0.
         11    1    3    3    0    0 -0.36074979630E+03  0.31530222026E+03 -0.49052703000E+03  0.68569138305E+03  0.00000000000E+00 0.  1.
        -11    1    3    3    0    0 -0.37147693990E+02  0.51314828239E+02 -0.28294719453E+02  0.69381221630E+02  0.00000000000E+00 0. -1.
         22    1    1    2    0    0  0.39789749029E+03 -0.36661704850E+03  0.17339071732E+04  0.18163602502E+04  0.00000000000E+00 0.  1.
<mgrwt>
<rscale>  0 0.22662379E+04</rscale>
<asrwt>0</asrwt>
<pdfrwt beam="1">  1        2 0.29127064E+00 0.22662379E+04</pdfrwt>
<pdfrwt beam="2">  1       -2 0.10433442E+00 0.22662379E+04</pdfrwt>
<totfact> 0.51970974E+00</totfact>
</mgrwt>
</event>
<event>
 6    1  0.5196787E-004  0.1326289E+04  0.7818608E-02  0.9008974E-01
         -2   -1    0    0    0  501 -0.00000000000E+00  0.00000000000E+00  0.24789441755E+03  0.24789441755E+03  0.00000000000E+00 0. -1.
          2   -1    0    0  501    0  0.00000000000E+00 -0.00000000000E+00 -0.17739827642E+04  0.17739827642E+04  0.00000000000E+00 0.  1.
         23    2    1    2    0    0  0.61325843007E+03 -0.27894721235E+01 -0.11385435158E+04  0.12964223733E+04  0.91301420776E+02 0.  0.
         13    1    3    3    0    0  0.20650822995E+03  0.15431925145E+02 -0.47087975636E+03  0.51440406132E+03  0.00000000000E+00 0.  1.
        -13    1    3    3    0    0  0.40675020012E+03 -0.18221397268E+02 -0.66766375941E+03  0.78201831196E+03  0.00000000000E+00 0. -1.
         22    1    1    2    0    0 -0.61325843007E+03  0.27894721235E+01 -0.38754483089E+03  0.72545480849E+03  0.00000000000E+00 0. -1.
<mgrwt>
<rscale>  0 0.13262887E+04</rscale>
<asrwt>0</asrwt>
<pdfrwt beam="1">  1        2 0.27292043E+00 0.13262887E+04</pdfrwt>
<pdfrwt beam="2">  1       -2 0.38137602E-01 0.13262887E+04</pdfrwt>
<totfact> 0.56655384E+01</totfact>
</mgrwt>
</event>
<event>
 6    1  0.5196787E-004  0.9819675E+03  0.7818608E-02  0.9328547E-01
         -2   -1    0    0    0  501 -0.00000000000E+00  0.00000000000E+00  0.10964968272E+03  0.10964968272E+03  0.00000000000E+00 0. -1.
          2   -1    0    0  501    0  0.00000000000E+00 -0.00000000000E+00 -0.21985018389E+04  0.21985018389E+04  0.00000000000E+00 0.  1.
         23    2    1    2    0    0  0.69898553124E+02  0.19695136598E+03 -0.20866776573E+04  0.20991530127E+04  0.92434175888E+02 0.  0.
         13    1    3    3    0    0 -0.66946489203E+01 -0.33420979805E+01 -0.23185534469E+03  0.23197605223E+03  0.00000000000E+00 0.  1.
        -13    1    3    3    0    0  0.76593202044E+02  0.20029346396E+03 -0.18548223127E+04  0.18671769605E+04  0.00000000000E+00 0. -1.
         22    1    1    2    0    0 -0.69898553124E+02 -0.19695136598E+03 -0.21744988588E+01  0.20899850893E+03  0.00000000000E+00 0. -1.
<mgrwt>
<rscale>  0 0.98196747E+03</rscale>
<asrwt>0</asrwt>
<pdfrwt beam="1">  1        2 0.33823101E+00 0.98196747E+03</pdfrwt>
<pdfrwt beam="2">  1       -2 0.16869184E-01 0.98196747E+03</pdfrwt>
<totfact> 0.14965840E+02</totfact>
</mgrwt>
</event>
<event>
 6    1  0.5196787E-004  0.4265029E+04  0.7818608E-02  0.7953116E-01
          1   -1    0    0  501    0  0.00000000000E+00  0.00000000000E+00  0.17740978292E+04  0.17740978292E+04  0.00000000000E+00 0. -1.
         -1   -1    0    0    0  501 -0.00000000000E+00 -0.00000000000E+00 -0.25633410951E+04  0.25633410951E+04  0.00000000000E+00 0.  1.
         23    2    1    2    0    0 -0.10304941444E+04 -0.10394829099E+04 -0.19703707206E+04  0.24566133168E+04  0.10072392906E+03 0.  0.
         11    1    3    3    0    0 -0.18244990769E+03 -0.15050927267E+03 -0.27208717711E+03  0.36051690935E+03  0.00000000000E+00 0. -1.
        -11    1    3    3    0    0 -0.84804423673E+03 -0.88897363724E+03 -0.16982835435E+04  0.20960964074E+04  0.00000000000E+00 0.  1.
         22    1    1    2    0    0  0.10304941444E+04  0.10394829099E+04  0.11811274547E+04  0.18808256075E+04  0.00000000000E+00 0. -1.
<mgrwt>
<rscale>  0 0.42650289E+04</rscale>
<asrwt>0</asrwt>
<pdfrwt beam="1">  1        1 0.27293813E+00 0.42650289E+04</pdfrwt>
<pdfrwt beam="2">  1       -1 0.39436017E+00 0.42650289E+04</pdfrwt>
<totfact> 0.25391414E-02</totfact>
</mgrwt>
</event>
<event>
 6    1  0.5196787E-004  0.1055179E+04  0.7818608E-02  0.9250013E-01
          2   -1    0    0  501    0  0.00000000000E+00  0.00000000000E+00  0.51680593109E+03  0.51680593109E+03  0.00000000000E+00 0.  1.
         -2   -1    0    0    0  501 -0.00000000000E+00 -0.00000000000E+00 -0.53859818360E+03  0.53859818360E+03  0.00000000000E+00 0. -1.
         23    2    1    2    0    0  0.27649547199E+03  0.31963476795E+01 -0.45605680917E+03  0.54057825303E+03  0.88187707704E+02 0.  0.
         13    1    3    3    0    0  0.12484275078E+03  0.17375330887E+01 -0.12619038461E+03  0.17751829374E+03  0.00000000000E+00 0. -1.
        -13    1    3    3    0    0  0.15165272121E+03  0.14588145909E+01 -0.32986642456E+03  0.36305995929E+03  0.00000000000E+00 0.  1.
         22    1    1    2    0    0 -0.27649547199E+03 -0.31963476795E+01  0.43426455666E+03  0.51482586167E+03  0.00000000000E+00 0.  1.
<mgrwt>
<rscale>  0 0.10551791E+04</rscale>
<asrwt>0</asrwt>
<pdfrwt beam="1">  1        2 0.79508605E-01 0.10551791E+04</pdfrwt>
<pdfrwt beam="2">  1       -2 0.82861259E-01 0.10551791E+04</pdfrwt>
<totfact> 0.75346091E+01</totfact>
</mgrwt>
</event>
<event>
 6    1  0.5196787E-004  0.2706012E+04  0.7818608E-02  0.8333057E-01
         -1   -1    0    0    0  501 -0.00000000000E+00  0.00000000000E+00  0.15939179963E+04  0.15939179963E+04  0.00000000000E+00 0.  1.
          1   -1    0    0  501    0  0.00000000000E+00 -0.00000000000E+00 -0.11485064092E+04  0.11485064092E+04  0.00000000000E+00 0. -1.
         23    2    1    2    0    0 -0.91569455330E+03 -0.55615238903E+03 -0.61191832547E+03  0.12371840463E+04  0.91533232576E+02 0.  0.
         13    1    3    3    0    0 -0.13141430025E+03 -0.44131033628E+02 -0.80645552854E+02  0.16037759081E+03  0.00000000000E+00 0.  1.
        -13    1    3    3    0    0 -0.78428025305E+03 -0.51202135540E+03 -0.53127277262E+03  0.10768064555E+04  0.00000000000E+00 0. -1.
         22    1    1    2    0    0  0.91569455330E+03  0.55615238903E+03  0.10573299125E+04  0.15052403591E+04  0.00000000000E+00 0.  1.
<mgrwt>
<rscale>  0 0.27060119E+04</rscale>
<asrwt>0</asrwt>
<pdfrwt beam="1">  1        1 0.17669329E+00 0.27060119E+04</pdfrwt>
<pdfrwt beam="2">  1       -1 0.24521815E+00 0.27060119E+04</pdfrwt>
<totfact> 0.76255422E-01</totfact>
</mgrwt>
</event>
<event>
 6    1  0.5196787E-004  0.1319633E+04  0.7818608E-02  0.9014139E-01
         -2   -1    0    0    0  501 -0.00000000000E+00  0.00000000000E+00  0.25469786924E+03  0.25469786924E+03  0.00000000000E+00 0. -1.
          2   -1    0    0  501    0  0.00000000000E+00 -0.00000000000E+00 -0.17093106156E+04  0.17093106156E+04  0.00000000000E+00 0.  1.
         23    2    1    2    0    0 -0.36935633622E+03  0.53813424652E+03 -0.62792616701E+03  0.91071684865E+03  0.95400926688E+02 0.  0.
         11    1    3    3    0    0 -0.24794793333E+03  0.42462191548E+03 -0.49699498371E+03  0.69913229262E+03  0.00000000000E+00 0. -1.
        -11    1    3    3    0    0 -0.12140840289E+03  0.11351233104E+03 -0.13093118330E+03  0.21158455603E+03  0.00000000000E+00 0.  1.
         22    1    1    2    0    0  0.36935633622E+03 -0.53813424652E+03 -0.82668657936E+03  0.10532916362E+04  0.00000000000E+00 0.  1.
<mgrwt>
<rscale>  0 0.13196329E+04</rscale>
<asrwt>0</asrwt>
<pdfrwt beam="1">  1        2 0.26297087E+00 0.13196329E+04</pdfrwt>
<pdfrwt beam="2">  1       -2 0.39184287E-01 0.13196329E+04</pdfrwt>
<totfact> 0.58400901E+01</totfact>
</mgrwt>
</event>
<event>
 6    1  0.5196787E-004  0.1940332E+04  0.7818608E-02  0.8635037E-01
          2   -1    0    0  501    0  0.00000000000E+00  0.00000000000E+00  0.24117673567E+04  0.24117673567E+04  0.00000000000E+00 0.  1.
         -2   -1    0    0    0  501 -0.00000000000E+00 -0.00000000000E+00 -0.39026249288E+03  0.39026249288E+03  0.00000000000E+00 0. -1.
         23    2    1    2    0    0  0.70638465414E+02 -0.91559155748E+03  0.57063515958E+03  0.10849624101E+04  0.90671126149E+02 0.  0.
         11    1    3    3    0    0 -0.30157655923E+01 -0.17359275974E+03  0.14623422923E+03  0.22699777725E+03  0.00000000000E+00 0. -1.
        -11    1    3    3    0    0  0.73654231006E+02 -0.74199879774E+03  0.42440093034E+03  0.85796463288E+03  0.00000000000E+00 0.  1.
         22    1    1    2    0    0 -0.70638465414E+02  0.91559155748E+03  0.14508697042E+04  0.17170674395E+04  0.00000000000E+00 0. -1.
<mgrwt>
<rscale>  0 0.19403323E+04</rscale>
<asrwt>0</asrwt>
<pdfrwt beam="1">  1        2 0.37104112E+00 0.19403323E+04</pdfrwt>
<pdfrwt beam="2">  1       -2 0.60040385E-01 0.19403323E+04</pdfrwt>
<totfact> 0.94547993E+00</totfact>
</mgrwt>
</event>
<event>
 6    1  0.5196787E-004  0.2994213E+04  0.7818608E-02  0.8245385E-01
          2   -1    0    0  501    0  0.00000000000E+00  0.00000000000E+00  0.18356174238E+04  0.18356174238E+04  0.00000000000E+00 0.  1.
         -2   -1    0    0    0  501 -0.00000000000E+00 -0.00000000000E+00 -0.12210214450E+04  0.12210214450E+04  0.00000000000E+00 0. -1.
         23    2    1    2    0    0 -0.87644130530E+03 -0.48558009989E+03  0.14420111485E+04  0.17571954272E+04  0.66349241028E+02 0.  0.
         11    1    3    3    0    0 -0.11761354496E+03 -0.61827086914E+02  0.15435372246E+03  0.20366788228E+03  0.00000000000E+00 0.  1.
        -11    1    3    3    0    0 -0.75882776034E+03 -0.42375301297E+03  0.12876574260E+04  0.15535275449E+04  0.00000000000E+00 0. -1.
         22    1    1    2    0    0  0.87644130530E+03  0.48558009989E+03 -0.82741516964E+03  0.12994434416E+04  0.00000000000E+00 0. -1.
<mgrwt>
<rscale>  0 0.29942132E+04</rscale>
<asrwt>0</asrwt>
<pdfrwt beam="1">  1        2 0.28240268E+00 0.29942132E+04</pdfrwt>
<pdfrwt beam="2">  1       -2 0.18784945E+00 0.29942132E+04</pdfrwt>
<totfact> 0.11317172E+00</totfact>
</mgrwt>
</event>
<event>
 6    1  0.5196787E-004  0.1584863E+04  0.7818608E-02  0.8829902E-01
          4   -1    0    0  501    0  0.00000000000E+00  0.00000000000E+00  0.12691953559E+04  0.12691953559E+04  0.00000000000E+00 0.  1.
         -4   -1    0    0    0  501 -0.00000000000E+00 -0.00000000000E+00 -0.49476035482E+03  0.49476035482E+03  0.00000000000E+00 0. -1.
         23    2    1    2    0    0 -0.65278838239E+03 -0.95192498514E+02  0.87186142891E+03  0.10971077574E+04  0.91152598386E+02 0.  0.
         11    1    3    3    0    0 -0.38483527732E+03 -0.77694428316E+02  0.58139622236E+03  0.70153843960E+03  0.00000000000E+00 0. -1.
        -11    1    3    3    0    0 -0.26795310507E+03 -0.17498070198E+02  0.29046520655E+03  0.39556931781E+03  0.00000000000E+00 0.  1.
         22    1    1    2    0    0  0.65278838239E+03  0.95192498514E+02 -0.97426427861E+02  0.66684795328E+03  0.00000000000E+00 0. -1.
<mgrwt>
<rscale>  0 0.15848628E+04</rscale>
<asrwt>0</asrwt>
<pdfrwt beam="1">  1        4 0.19526082E+00 0.15848628E+04</pdfrwt>
<pdfrwt beam="2">  1       -4 0.76116978E-01 0.15848628E+04</pdfrwt>
<totfact> 0.42195543E-01</totfact>
</mgrwt>
</event>
<event>
 6    1  0.5196787E-004  0.1457967E+04  0.7818608E-02  0.8912895E-01
         -2   -1    0    0    0  501 -0.00000000000E+00  0.00000000000E+00  0.49568492941E+03  0.49568492941E+03  0.00000000000E+00 0. -1.
          2   -1    0    0  501    0  0.00000000000E+00 -0.00000000000E+00 -0.10720866975E+04  0.10720866975E+04  0.00000000000E+00 0.  1.
         23    2    1    2    0    0  0.53951158141E+03 -0.56367721976E+02  0.23005052068E+03  0.59585837944E+03  0.88734997183E+02 0.  0.
         11    1    3    3    0    0  0.82937991933E+02  0.17089748004E+02  0.57086796480E+02  0.10212576719E+03  0.00000000000E+00 0. -1.
        -11    1    3    3    0    0  0.45657358947E+03 -0.73457469980E+02  0.17296372420E+03  0.49373261224E+03  0.00000000000E+00 0.  1.
         22    1    1    2    0    0 -0.53951158141E+03  0.56367721976E+02 -0.80645228882E+03  0.97191324751E+03  0.00000000000E+00 0.  1.
<mgrwt>
<rscale>  0 0.14579674E+04</rscale>
<asrwt>0</asrwt>
<pdfrwt beam="1">  1        2 0.16493641E+00 0.14579674E+04</pdfrwt>
<pdfrwt beam="2">  1       -2 0.76259220E-01 0.14579674E+04</pdfrwt>
<totfact> 0.33822030E+01</totfact>
</mgrwt>
</event>
<event>
 6    1  0.5196787E-004  0.8074826E+03  0.7818608E-02  0.9549249E-01
          2   -1    0    0  501    0  0.00000000000E+00  0.00000000000E+00  0.24112647365E+04  0.24112647365E+04  0.00000000000E+00 0.  1.
         -2   -1    0    0    0  501 -0.00000000000E+00 -0.00000000000E+00 -0.67602304654E+02  0.67602304654E+02  0.00000000000E+00 0. -1.
         23    2    1    2    0    0 -0.21018884660E+02 -0.22083306501E+02  0.24068071054E+04  0.24087477448E+04  0.91737612875E+02 0.  0.
         13    1    3    3    0    0  0.25000592422E+02 -0.37254045854E+02  0.84616762136E+03  0.84735620432E+03  0.00000000000E+00 0. -1.
        -13    1    3    3    0    0 -0.46019477082E+02  0.15170739352E+02  0.15606394840E+04  0.15613915405E+04  0.00000000000E+00 0.  1.
         22    1    1    2    0    0  0.21018884660E+02  0.22083306501E+02 -0.63144673487E+02  0.70119296404E+02  0.00000000000E+00 0. -1.
<mgrwt>
<rscale>  0 0.80748264E+03</rscale>
<asrwt>0</asrwt>
<pdfrwt beam="1">  1        2 0.37096374E+00 0.80748264E+03</pdfrwt>
<pdfrwt beam="2">  1       -2 0.10400356E-01 0.80748264E+03</pdfrwt>
<totfact> 0.25968446E+02</totfact>
</mgrwt>
</event>
<event>
 6    1  0.5196787E-004  0.2183500E+04  0.7818608E-02  0.8525327E-01
         -2   -1    0    0    0  501 -0.00000000000E+00  0.00000000000E+00  0.11448514827E+04  0.11448514827E+04  0.00000000000E+00 0. -1.
          2   -1    0    0  501    0  0.00000000000E+00 -0.00000000000E+00 -0.10411119243E+04  0.10411119243E+04  0.00000000000E+00 0.  1.
         23    2    1    2    0    0  0.10435117665E+03  0.98731795871E+03 -0.39779040208E+03  0.10736602914E+04  0.93932410436E+02 0.  0.
         11    1    3    3    0    0  0.33232044890E+02  0.71549829009E+03 -0.28337220372E+03  0.77028694509E+03  0.00000000000E+00 0. -1.
        -11    1    3    3    0    0  0.71119131762E+02  0.27181966862E+03 -0.11441819836E+03  0.30337334634E+03  0.00000000000E+00 0.  1.
         22    1    1    2    0    0 -0.10435117665E+03 -0.98731795871E+03  0.50152996054E+03  0.11123031156E+04  0.00000000000E+00 0. -1.
<mgrwt>
<rscale>  0 0.21835004E+04</rscale>
<asrwt>0</asrwt>
<pdfrwt beam="1">  1        2 0.16017106E+00 0.21835004E+04</pdfrwt>
<pdfrwt beam="2">  1       -2 0.17613100E+00 0.21835004E+04</pdfrwt>
<totfact> 0.41865228E+00</totfact>
</mgrwt>
</event>
<event>
 6    1  0.5196787E-004  0.6674899E+03  0.7818608E-02  0.9774503E-01
          4   -1    0    0  501    0  0.00000000000E+00  0.00000000000E+00  0.31572124999E+03  0.31572124999E+03  0.00000000000E+00 0.  1.
         -4   -1    0    0    0  501 -0.00000000000E+00 -0.00000000000E+00 -0.35279754644E+03  0.35279754644E+03  0.00000000000E+00 0. -1.
         23    2    1    2    0    0 -0.13012371585E+03  0.26142258707E+02  0.28082819680E+03  0.32402080522E+03  0.92246446956E+02 0.  0.
         13    1    3    3    0    0 -0.35063135894E+02 -0.26476691464E+02  0.13630202007E+03  0.14320851708E+03  0.00000000000E+00 0.  1.
        -13    1    3    3    0    0 -0.95060579961E+02  0.52618950171E+02  0.14452617673E+03  0.18081228813E+03  0.00000000000E+00 0. -1.
         22    1    1    2    0    0  0.13012371585E+03 -0.26142258707E+02 -0.31790449326E+03  0.34449799121E+03  0.00000000000E+00 0. -1.
<mgrwt>
<rscale>  0 0.66748987E+03</rscale>
<asrwt>0</asrwt>
<pdfrwt beam="1">  1        4 0.48572500E-01 0.66748987E+03</pdfrwt>
<pdfrwt beam="2">  1       -4 0.54276545E-01 0.66748987E+03</pdfrwt>
<totfact> 0.26355630E+01</totfact>
</mgrwt>
</event>
<event>
 6    1  0.5196787E-004  0.2659374E+04  0.7818608E-02  0.8348308E-01
          2   -1    0    0  501    0  0.00000000000E+00  0.00000000000E+00  0.19600541935E+04  0.19600541935E+04  0.00000000000E+00 0.  1.
         -2   -1    0    0    0  501 -0.00000000000E+00 -0.00000000000E+00 -0.90205057517E+03  0.90205057517E+03  0.00000000000E+00 0. -1.
         23    2    1    2    0    0  0.18426995150E+03 -0.61640842403E+03 -0.72087353167E+03  0.97046033193E+03  0.90663371510E+02 0.  0.
         13    1    3    3    0    0  0.14974689423E+03 -0.34577025873E+03 -0.41041894648E+03  0.55715789126E+03  0.00000000000E+00 0. -1.
        -13    1    3    3    0    0  0.34523057272E+02 -0.27063816530E+03 -0.31045458519E+03  0.41330244067E+03  0.00000000000E+00 0.  1.
         22    1    1    2    0    0 -0.18426995150E+03  0.61640842403E+03  0.17788771500E+04  0.18916444368E+04  0.00000000000E+00 0.  1.
<mgrwt>
<rscale>  0 0.26593744E+04</rscale>
<asrwt>0</asrwt>
<pdfrwt beam="1">  1        2 0.30154680E+00 0.26593744E+04</pdfrwt>
<pdfrwt beam="2">  1       -2 0.13877701E+00 0.26593744E+04</pdfrwt>
<totfact> 0.22745301E+00</totfact>
</mgrwt>
</event>
<event>
 6    1  0.5196787E-004  0.2700710E+04  0.7818608E-02  0.8334775E-01
          1   -1    0    0  501    0  0.00000000000E+00  0.00000000000E+00  0.18439438503E+04  0.18439438503E+04  0.00000000000E+00 0.  1.
         -1   -1    0    0    0  501 -0.00000000000E+00 -0.00000000000E+00 -0.98889064285E+03  0.98889064285E+03  0.00000000000E+00 0. -1.
         23    2    1    2    0    0  0.11885121630E+04  0.46982248547E+03 -0.24456446694E+02  0.12814378446E+04  0.90501395181E+02 0.  0.
         13    1    3    3    0    0  0.13240160732E+03  0.28018205079E+02  0.13547336244E+02  0.13601005755E+03  0.00000000000E+00 0.  1.
        -13    1    3    3    0    0  0.10561105556E+04  0.44180428039E+03 -0.38003782937E+02  0.11454277871E+04  0.00000000000E+00 0. -1.
         22    1    1    2    0    0 -0.11885121630E+04 -0.46982248547E+03  0.87950965416E+03  0.15513966485E+04  0.00000000000E+00 0. -1.
<mgrwt>
<rscale>  0 0.27007101E+04</rscale>
<asrwt>0</asrwt>
<pdfrwt beam="1">  1        1 0.28368367E+00 0.27007101E+04</pdfrwt>
<pdfrwt beam="2">  1       -1 0.15213702E+00 0.27007101E+04</pdfrwt>
<totfact> 0.11149699E+00</totfact>
</mgrwt>
</event>
<event>
 6    1  0.5196787E-004  0.5103638E+04  0.7818608E-02  0.7812716E-01
         -2   -1    0    0    0  501 -0.00000000000E+00  0.00000000000E+00  0.16869013418E+04  0.16869013418E+04  0.00000000000E+00 0. -1.
          2   -1    0    0  501    0  0.00000000000E+00 -0.00000000000E+00 -0.38602028432E+04  0.38602028432E+04  0.00000000000E+00 0.  1.
         23    2    1    2    0    0  0.21633706675E+04 -0.23810619728E+03  0.35932150658E+03  0.22077859153E+04  0.91320844758E+02 0.  0.
         11    1    3    3    0    0  0.83570220085E+03 -0.48415827771E+02  0.12805885248E+03  0.84684197498E+03  0.00000000000E+00 0. -1.
        -11    1    3    3    0    0  0.13276684666E+04 -0.18969036951E+03  0.23126265410E+03  0.13609439403E+04  0.00000000000E+00 0.  1.
         22    1    1    2    0    0 -0.21633706675E+04  0.23810619728E+03 -0.25326230079E+04  0.33393182697E+04  0.00000000000E+00 0.  1.
<mgrwt>
<rscale>  0 0.51036384E+04</rscale>
<asrwt>0</asrwt>
<pdfrwt beam="1">  1        2 0.59387736E+00 0.51036384E+04</pdfrwt>
<pdfrwt beam="2">  1       -2 0.25952328E+00 0.51036384E+04</pdfrwt>
<totfact> 0.17839068E-02</totfact>
</mgrwt>
</event>
<event>
 6    1  0.5196787E-004  0.8160084E+03  0.7818608E-02  0.9537130E-01
         -2   -1    0    0    0  501 -0.00000000000E+00  0.00000000000E+00  0.21727694269E+03  0.21727694269E+03  0.00000000000E+00 0. -1.
          2   -1    0    0  501    0  0.00000000000E+00 -0.00000000000E+00 -0.76615314333E+03  0.76615314333E+03  0.00000000000E+00 0.  1.
         23    2    1    2    0    0 -0.17937773448E+03  0.77355476810E+02  0.14617276959E+03  0.26145133811E+03  0.93968517130E+02 0.  0.
         13    1    3    3    0    0 -0.95676752739E+02  0.35517730707E+02  0.13193353819E+03  0.16679930668E+03  0.00000000000E+00 0. -1.
        -13    1    3    3    0    0 -0.83700981741E+02  0.41837746103E+02  0.14239231396E+02  0.94652031431E+02  0.00000000000E+00 0.  1.
         22    1    1    2    0    0  0.17937773448E+03 -0.77355476810E+02 -0.69504897022E+03  0.72197874791E+03  0.00000000000E+00 0.  1.
<mgrwt>
<rscale>  0 0.81600836E+03</rscale>
<asrwt>0</asrwt>
<pdfrwt beam="1">  1        2 0.11786971E+00 0.81600836E+03</pdfrwt>
<pdfrwt beam="2">  1       -2 0.33427222E-01 0.81600836E+03</pdfrwt>
<totfact> 0.30636725E+02</totfact>
</mgrwt>
</event>
<event>
 6    1  0.5196787E-004  0.2099647E+04  0.7818608E-02  0.8561399E-01
          4   -1    0    0  501    0  0.00000000000E+00  0.00000000000E+00  0.89495159584E+03  0.89495159584E+03  0.00000000000E+00 0.  1.
         -4   -1    0    0    0  501 -0.00000000000E+00 -0.00000000000E+00 -0.12314956646E+04  0.12314956646E+04  0.00000000000E+00 0. -1.
         23    2    1    2    0    0 -0.30971240827E+03  0.88606903045E+03 -0.64040473025E+03  0.11398513937E+04  0.90015991606E+02 0.  0.
         11    1    3    3    0    0 -0.20197095636E+03  0.51471723355E+03 -0.32919179399E+03  0.64350084301E+03  0.00000000000E+00 0.  1.
        -11    1    3    3    0    0 -0.10774145191E+03  0.37135179689E+03 -0.31121293627E+03  0.49635055074E+03  0.00000000000E+00 0. -1.
         22    1    1    2    0    0  0.30971240827E+03 -0.88606903045E+03  0.30386066150E+03  0.98659586669E+03  0.00000000000E+00 0.  1.
<mgrwt>
<rscale>  0 0.20996466E+04</rscale>
<asrwt>0</asrwt>
<pdfrwt beam="1">  1        4 0.13768486E+00 0.20996466E+04</pdfrwt>
<pdfrwt beam="2">  1       -4 0.18946087E+00 0.20996466E+04</pdfrwt>
<totfact> 0.10648087E-01</totfact>
</mgrwt>
</event>
<event>
 6    1  0.5518917E-004  0.4274611E+04  0.7818608E-02  0.7951329E-01
          2   -1    0    0  501    0  0.00000000000E+00  0.00000000000E+00  0.27274352286E+04  0.27274352286E+04  0.00000000000E+00 0.  1.
         -2   -1    0    0    0  501 -0.00000000000E+00 -0.00000000000E+00 -0.16748611745E+04  0.16748611745E+04  0.00000000000E+00 0. -1.
         23    2    1    2    0    0 -0.20321238340E+04 -0.27703064681E+03 -0.89662564829E+02  0.20547492258E+04  0.87645590651E+02 0.  0.
         11    1    3    3    0    0 -0.15323146394E+04 -0.23358192454E+03 -0.96391131234E+02  0.15530099548E+04  0.00000000000E+00 0. -1.
        -11    1    3    3    0    0 -0.49980919460E+03 -0.43448722271E+02  0.67285664049E+01  0.50173927101E+03  0.00000000000E+00 0.  1.
         22    1    1    2    0    0  0.20321238340E+04  0.27703064681E+03  0.11422366189E+04  0.23475471773E+04  0.00000000000E+00 0. -1.
<mgrwt>
<rscale>  0 0.42746113E+04</rscale>
<asrwt>0</asrwt>
<pdfrwt beam="1">  1        2 0.41960542E+00 0.42746113E+04</pdfrwt>
<pdfrwt beam="2">  1       -2 0.25767095E+00 0.42746113E+04</pdfrwt>
<totfact> 0.11374440E-01</totfact>
</mgrwt>
</event>
<event>
 6    1  0.5196787E-004  0.9816502E+03  0.7818608E-02  0.9328903E-01
         -2   -1    0    0    0  501 -0.00000000000E+00  0.00000000000E+00  0.33022552032E+03  0.33022552032E+03  0.00000000000E+00 0. -1.
          2   -1    0    0  501    0  0.00000000000E+00 -0.00000000000E+00 -0.72952957063E+03  0.72952957063E+03  0.00000000000E+00 0.  1.
         23    2    1    2    0    0  0.10847336434E+03 -0.81187362501E+02 -0.70592435543E+03  0.72453297039E+03  0.90889883906E+02 0.  0.
         13    1    3    3    0    0  0.10829665522E+03 -0.30726870408E+02 -0.47435182236E+03  0.48752636592E+03  0.00000000000E+00 0. -1.
        -13    1    3    3    0    0  0.17670911784E+00 -0.50460492092E+02 -0.23157253307E+03  0.23700660447E+03  0.00000000000E+00 0.  1.
         22    1    1    2    0    0 -0.10847336434E+03  0.81187362501E+02  0.30662030512E+03  0.33522212056E+03  0.00000000000E+00 0. -1.
<mgrwt>
<rscale>  0 0.98165021E+03</rscale>
<asrwt>0</asrwt>
<pdfrwt beam="1">  1        2 0.11223532E+00 0.98165021E+03</pdfrwt>
<pdfrwt beam="2">  1       -2 0.50803926E-01 0.98165021E+03</pdfrwt>
<totfact> 0.14227655E+02</totfact>
</mgrwt>
</event>
<event>
 6    1  0.5196787E-004  0.1808533E+04  0.7818608E-02  0.8701775E-01
          2   -1    0    0  501    0  0.00000000000E+00  0.00000000000E+00  0.16789980025E+04  0.16789980025E+04  0.00000000000E+00 0.  1.
         -2   -1    0    0    0  501 -0.00000000000E+00 -0.00000000000E+00 -0.48701558986E+03  0.48701558986E+03  0.00000000000E+00 0. -1.
         23    2    1    2    0    0  0.34141116699E+03 -0.20079093527E+03  0.15679977806E+04  0.16198761173E+04  0.92211772855E+02 0.  0.
         11    1    3    3    0    0  0.19615609380E+03 -0.62127039384E+02  0.77586681332E+03  0.80268692164E+03  0.00000000000E+00 0.  1.
        -11    1    3    3    0    0  0.14525507318E+03 -0.13866389589E+03  0.79213096725E+03  0.81718919571E+03  0.00000000000E+00 0. -1.
         22    1    1    2    0    0 -0.34141116699E+03  0.20079093527E+03 -0.37601536797E+03  0.54613747498E+03  0.00000000000E+00 0. -1.
<mgrwt>
<rscale>  0 0.18085333E+04</rscale>
<asrwt>0</asrwt>
<pdfrwt beam="1">  1        2 0.25830738E+00 0.18085333E+04</pdfrwt>
<pdfrwt beam="2">  1       -2 0.74925476E-01 0.18085333E+04</pdfrwt>
<totfact> 0.15209350E+01</totfact>
</mgrwt>
</event>
<event>
 6    1  0.5196787E-004  0.2178241E+04  0.7818608E-02  0.8527540E-01
          2   -1    0    0  501    0  0.00000000000E+00  0.00000000000E+00  0.46131332070E+03  0.46131332070E+03  0.00000000000E+00 0.  1.
         -2   -1    0    0    0  501 -0.00000000000E+00 -0.00000000000E+00 -0.25713183262E+04  0.25713183262E+04  0.00000000000E+00 0. -1.
         23    2    1    2    0    0 -0.86795343515E+03  0.28036146205E+03 -0.23287748958E+03  0.94563537809E+03  0.89714146917E+02 0.  0.
         13    1    3    3    0    0 -0.45993643182E+03  0.10145487910E+03 -0.12060790197E+03  0.48619016838E+03  0.00000000000E+00 0. -1.
        -13    1    3    3    0    0 -0.40801700332E+03  0.17890658295E+03 -0.11226958762E+03  0.45944520971E+03  0.00000000000E+00 0.  1.
         22    1    1    2    0    0  0.86795343515E+03 -0.28036146205E+03 -0.18771275160E+04  0.20869962688E+04  0.00000000000E+00 0. -1.
<mgrwt>
<rscale>  0 0.21782409E+04</rscale>
<asrwt>0</asrwt>
<pdfrwt beam="1">  1        2 0.70971282E-01 0.21782409E+04</pdfrwt>
<pdfrwt beam="2">  1       -2 0.39558743E+00 0.21782409E+04</pdfrwt>
<totfact> 0.49179374E-01</totfact>
</mgrwt>
</event>
<event>
 6    1  0.5196787E-004  0.3590489E+04  0.7818608E-02  0.8092674E-01
         -2   -1    0    0    0  501 -0.00000000000E+00  0.00000000000E+00  0.15377058894E+04  0.15377058894E+04  0.00000000000E+00 0. -1.
          2   -1    0    0  501    0  0.00000000000E+00 -0.00000000000E+00 -0.20959167029E+04  0.20959167029E+04  0.00000000000E+00 0.  1.
         23    2    1    2    0    0  0.55652302604E+03  0.40277622494E+02  0.14462248941E+04  0.15529730131E+04  0.93907240106E+02 0.  0.
         11    1    3    3    0    0  0.22877031441E+03  0.62618833800E+02  0.62265313019E+03  0.66629865348E+03  0.00000000000E+00 0.  1.
        -11    1    3    3    0    0  0.32775271163E+03 -0.22341211306E+02  0.82357176388E+03  0.88667435959E+03  0.00000000000E+00 0. -1.
         22    1    1    2    0    0 -0.55652302604E+03 -0.40277622494E+02 -0.20044357077E+04  0.20806495792E+04  0.00000000000E+00 0.  1.
<mgrwt>
<rscale>  0 0.35904894E+04</rscale>
<asrwt>0</asrwt>
<pdfrwt beam="1">  1        2 0.32244872E+00 0.35904894E+04</pdfrwt>
<pdfrwt beam="2">  1       -2 0.23657014E+00 0.35904894E+04</pdfrwt>
<totfact> 0.37484895E-01</totfact>
</mgrwt>
</event>
<event>
 6    1  0.5196787E-004  0.2063713E+04  0.7818608E-02  0.8577399E-01
          2   -1    0    0  501    0  0.00000000000E+00  0.00000000000E+00  0.39902224102E+04  0.39902224102E+04  0.00000000000E+00 0.  1.
         -2   -1    0    0    0  501 -0.00000000000E+00 -0.00000000000E+00 -0.26683416486E+03  0.26683416486E+03  0.00000000000E+00 0. -1.
         23    2    1    2    0    0 -0.10089688294E+03 -0.73997398194E+01  0.39794250271E+04  0.39817571550E+04  0.91277370458E+02 0.  0.
         13    1    3    3    0    0 -0.10893900998E+03 -0.22420080812E+01  0.25804345011E+04  0.25827340066E+04  0.00000000000E+00 0. -1.
        -13    1    3    3    0    0  0.80421270337E+01 -0.51577317382E+01  0.13989905260E+04  0.13990231484E+04  0.00000000000E+00 0.  1.
         22    1    1    2    0    0  0.10089688294E+03  0.73997398194E+01 -0.25603678167E+03  0.27529942009E+03  0.00000000000E+00 0. -1.
<mgrwt>
<rscale>  0 0.20637128E+04</rscale>
<asrwt>0</asrwt>
<pdfrwt beam="1">  1        2 0.61388033E+00 0.20637128E+04</pdfrwt>
<pdfrwt beam="2">  1       -2 0.41051413E-01 0.20637128E+04</pdfrwt>
<totfact> 0.18268344E+00</totfact>
</mgrwt>
</event>
<event>
 6    1  0.5196787E-004  0.6519053E+03  0.7818608E-02  0.9803211E-01
          2   -1    0    0  501    0  0.00000000000E+00  0.00000000000E+00  0.10480830730E+04  0.10480830730E+04  0.00000000000E+00 0.  1.
         -2   -1    0    0    0  501 -0.00000000000E+00 -0.00000000000E+00 -0.10137091818E+03  0.10137091818E+03  0.00000000000E+00 0. -1.
         23    2    1    2    0    0  0.25654631271E+03 -0.14903886534E+02  0.81772175910E+03  0.86191850014E+03  0.90534464099E+02 0.  0.
         13    1    3    3    0    0  0.22099777338E+02  0.25713006451E+02  0.84175896881E+02  0.90747674763E+02  0.00000000000E+00 0.  1.
        -13    1    3    3    0    0  0.23444653537E+03 -0.40616892986E+02  0.73354586221E+03  0.77117082538E+03  0.00000000000E+00 0. -1.
         22    1    1    2    0    0 -0.25654631271E+03  0.14903886534E+02  0.12899039568E+03  0.28753549099E+03  0.00000000000E+00 0. -1.
<mgrwt>
<rscale>  0 0.65190534E+03</rscale>
<asrwt>0</asrwt>
<pdfrwt beam="1">  1        2 0.16124354E+00 0.65190534E+03</pdfrwt>
<pdfrwt beam="2">  1       -2 0.15595527E-01 0.65190534E+03</pdfrwt>
<totfact> 0.77622309E+02</totfact>
</mgrwt>
</event>
<event>
 6    1  0.5196787E-004  0.2531217E+04  0.7818608E-02  0.8391948E-01
          2   -1    0    0  501    0  0.00000000000E+00  0.00000000000E+00  0.71068263489E+03  0.71068263489E+03  0.00000000000E+00 0.  1.
         -2   -1    0    0    0  501 -0.00000000000E+00 -0.00000000000E+00 -0.22538394531E+04  0.22538394531E+04  0.00000000000E+00 0. -1.
         23    2    1    2    0    0 -0.50861544413E+03  0.82874487256E+03 -0.17179094630E+04  0.19765715727E+04  0.10057099403E+03 0.  0.
         11    1    3    3    0    0 -0.37041133010E+03  0.67174353974E+03 -0.13902873565E+04  0.15878736947E+04  0.00000000000E+00 0.  1.
        -11    1    3    3    0    0 -0.13820411403E+03  0.15700133282E+03 -0.32762210651E+03  0.38869787794E+03  0.00000000000E+00 0. -1.
         22    1    1    2    0    0  0.50861544413E+03 -0.82874487256E+03  0.17475264485E+03  0.98795051530E+03  0.00000000000E+00 0.  1.
<mgrwt>
<rscale>  0 0.25312168E+04</rscale>
<asrwt>0</asrwt>
<pdfrwt beam="1">  1        2 0.10933579E+00 0.25312168E+04</pdfrwt>
<pdfrwt beam="2">  1       -2 0.34674453E+00 0.25312168E+04</pdfrwt>
<totfact> 0.58340721E-01</totfact>
</mgrwt>
</event>
<event>
 6    1  0.5196787E-004  0.2285298E+04  0.7818608E-02  0.8483741E-01
         -2   -1    0    0    0  501 -0.00000000000E+00  0.00000000000E+00  0.44958790500E+03  0.44958790500E+03  0.00000000000E+00 0. -1.
          2   -1    0    0  501    0  0.00000000000E+00 -0.00000000000E+00 -0.29040960561E+04  0.29040960561E+04  0.00000000000E+00 0.  1.
         23    2    1    2    0    0 -0.63862748036E+03  0.50374137335E+03 -0.24030519518E+04  0.25386697463E+04  0.92655102118E+02 0.  0.
         13    1    3    3    0    0 -0.50349406393E+03  0.44157143102E+03 -0.19878247744E+04  0.20976031404E+04  0.00000000000E+00 0.  1.
        -13    1    3    3    0    0 -0.13513341642E+03  0.62169942337E+02 -0.41522717736E+03  0.44106660584E+03  0.00000000000E+00 0. -1.
         22    1    1    2    0    0  0.63862748036E+03 -0.50374137335E+03 -0.51456199338E+02  0.81501421481E+03  0.00000000000E+00 0. -1.
<mgrwt>
<rscale>  0 0.22852978E+04</rscale>
<asrwt>0</asrwt>
<pdfrwt beam="1">  1        2 0.44678400E+00 0.22852978E+04</pdfrwt>
<pdfrwt beam="2">  1       -2 0.69167371E-01 0.22852978E+04</pdfrwt>
<totfact> 0.34617264E+00</totfact>
</mgrwt>
</event>
<event>
 6    1  0.5196787E-004  0.3230347E+04  0.7818608E-02  0.8180848E-01
          2   -1    0    0  501    0  0.00000000000E+00  0.00000000000E+00  0.32372197703E+04  0.32372197703E+04  0.00000000000E+00 0.  1.
         -2   -1    0    0    0  501 -0.00000000000E+00 -0.00000000000E+00 -0.80587234004E+03  0.80587234004E+03  0.00000000000E+00 0. -1.
         23    2    1    2    0    0  0.49320859864E+03  0.11677228321E+04 -0.33888374624E+02  0.12710497391E+04  0.87107306097E+02 0.  0.
         11    1    3    3    0    0  0.27312839039E+03  0.53489163208E+03 -0.15752743119E+02  0.60079640863E+03  0.00000000000E+00 0.  1.
        -11    1    3    3    0    0  0.22008020825E+03  0.63283120007E+03 -0.18135631505E+02  0.67025333044E+03  0.00000000000E+00 0. -1.
         22    1    1    2    0    0 -0.49320859864E+03 -0.11677228321E+04  0.24652358049E+04  0.27720423713E+04  0.00000000000E+00 0.  1.
<mgrwt>
<rscale>  0 0.32303473E+04</rscale>
<asrwt>0</asrwt>
<pdfrwt beam="1">  1        2 0.49803380E+00 0.32303473E+04</pdfrwt>
<pdfrwt beam="2">  1       -2 0.12398036E+00 0.32303473E+04</pdfrwt>
<totfact> 0.50346398E-01</totfact>
</mgrwt>
</event>
<event>
 6    1  0.5196787E-004  0.2661950E+04  0.7818608E-02  0.8347457E-01
          2   -1    0    0  501    0  0.00000000000E+00  0.00000000000E+00  0.20437853051E+04  0.20437853051E+04  0.00000000000E+00 0.  1.
         -2   -1    0    0    0  501 -0.00000000000E+00 -0.00000000000E+00 -0.86677132391E+03  0.86677132391E+03  0.00000000000E+00 0. -1.
         23    2    1    2    0    0 -0.78907719229E+03 -0.36472219923E+03 -0.51063052865E+03  0.10121865150E+04  0.90071673880E+02 0.  0.
         13    1    3    3    0    0 -0.48366441370E+03 -0.26621569943E+03 -0.34552327916E+03  0.65129747438E+03  0.00000000000E+00 0. -1.
        -13    1    3    3    0    0 -0.30541277859E+03 -0.98506499802E+02 -0.16510724949E+03  0.36088904065E+03  0.00000000000E+00 0.  1.
         22    1    1    2    0    0  0.78907719229E+03  0.36472219923E+03  0.16876445098E+04  0.18983701140E+04  0.00000000000E+00 0.  1.
<mgrwt>
<rscale>  0 0.26619500E+04</rscale>
<asrwt>0</asrwt>
<pdfrwt beam="1">  1        2 0.31442851E+00 0.26619500E+04</pdfrwt>
<pdfrwt beam="2">  1       -2 0.13334943E+00 0.26619500E+04</pdfrwt>
<totfact> 0.22629901E+00</totfact>
</mgrwt>
</event>
<event>
 6    1  0.5196787E-004  0.4125529E+04  0.7818608E-02  0.7979691E-01
         -2   -1    0    0    0  501 -0.00000000000E+00  0.00000000000E+00  0.14806425051E+04  0.14806425051E+04  0.00000000000E+00 0. -1.
          2   -1    0    0  501    0  0.00000000000E+00 -0.00000000000E+00 -0.28737509184E+04  0.28737509184E+04  0.00000000000E+00 0.  1.
         23    2    1    2    0    0  0.10412437364E+04  0.16434181415E+04  0.23408820053E+02  0.19478330610E+04  0.92162651678E+02 0.  0.
         13    1    3    3    0    0  0.76605655500E+03  0.12574867216E+04 -0.12198400827E+02  0.14725027339E+04  0.00000000000E+00 0.  1.
        -13    1    3    3    0    0  0.27518718139E+03  0.38593141983E+03  0.35607220880E+02  0.47533032703E+03  0.00000000000E+00 0. -1.
         22    1    1    2    0    0 -0.10412437364E+04 -0.16434181415E+04 -0.14165172334E+04  0.24065603626E+04  0.00000000000E+00 0.  1.
<mgrwt>
<rscale>  0 0.41255292E+04</rscale>
<asrwt>0</asrwt>
<pdfrwt beam="1">  1        2 0.44211552E+00 0.41255292E+04</pdfrwt>
<pdfrwt beam="2">  1       -2 0.22779116E+00 0.41255292E+04</pdfrwt>
<totfact> 0.14367789E-01</totfact>
</mgrwt>
</event>
<event>
 6    1  0.5196787E-004  0.3545149E+04  0.7818608E-02  0.8103173E-01
         -2   -1    0    0    0  501 -0.00000000000E+00  0.00000000000E+00  0.10167835993E+04  0.10167835993E+04  0.00000000000E+00 0. -1.
          2   -1    0    0  501    0  0.00000000000E+00 -0.00000000000E+00 -0.30901556066E+04  0.30901556066E+04  0.00000000000E+00 0.  1.
         23    2    1    2    0    0 -0.34922119640E+03 -0.12914754257E+04 -0.23828425489E+04  0.27337545004E+04  0.74905518795E+02 0.  0.
         13    1    3    3    0    0 -0.81316457113E+02 -0.43116389265E+03 -0.79818314557E+03  0.91082984272E+03  0.00000000000E+00 0. -1.
        -13    1    3    3    0    0 -0.26790473928E+03 -0.86031153301E+03 -0.15846594033E+04  0.18229246577E+04  0.00000000000E+00 0.  1.
         22    1    1    2    0    0  0.34922119640E+03  0.12914754257E+04  0.30947054158E+03  0.13731847054E+04  0.00000000000E+00 0. -1.
<mgrwt>
<rscale>  0 0.35451485E+04</rscale>
<asrwt>0</asrwt>
<pdfrwt beam="1">  1        2 0.47540855E+00 0.35451485E+04</pdfrwt>
<pdfrwt beam="2">  1       -2 0.15642825E+00 0.35451485E+04</pdfrwt>
<totfact> 0.33447772E-01</totfact>
</mgrwt>
</event>
<event>
 6    1  0.5196787E-004  0.4839278E+04  0.7818608E-02  0.7853790E-01
          2   -1    0    0  501    0  0.00000000000E+00  0.00000000000E+00  0.30401475091E+04  0.30401475091E+04  0.00000000000E+00 0.  1.
         -2   -1    0    0    0  501 -0.00000000000E+00 -0.00000000000E+00 -0.19257793100E+04  0.19257793100E+04  0.00000000000E+00 0. -1.
         23    2    1    2    0    0 -0.18986114005E+03 -0.74621697512E+03 -0.17955984428E+04  0.19558117243E+04  0.90214780921E+02 0.  0.
         13    1    3    3    0    0 -0.10309667175E+03 -0.26765222557E+03 -0.59831498811E+03  0.66351146379E+03  0.00000000000E+00 0. -1.
        -13    1    3    3    0    0 -0.86764468302E+02 -0.47856474956E+03 -0.11972834547E+04  0.12923002605E+04  0.00000000000E+00 0.  1.
         22    1    1    2    0    0  0.18986114005E+03  0.74621697512E+03  0.29099666420E+04  0.30101150948E+04  0.00000000000E+00 0.  1.
<mgrwt>
<rscale>  0 0.48392781E+04</rscale>
<asrwt>0</asrwt>
<pdfrwt beam="1">  1        2 0.46771500E+00 0.48392781E+04</pdfrwt>
<pdfrwt beam="2">  1       -2 0.29627374E+00 0.48392781E+04</pdfrwt>
<totfact> 0.40549697E-02</totfact>
</mgrwt>
</event>
<event>
 6    1  0.5196787E-004  0.1528290E+04  0.7818608E-02  0.8865856E-01
          2   -1    0    0  501    0  0.00000000000E+00  0.00000000000E+00  0.12392394736E+04  0.12392394736E+04  0.00000000000E+00 0.  1.
         -2   -1    0    0    0  501 -0.00000000000E+00 -0.00000000000E+00 -0.47119009964E+03  0.47119009964E+03  0.00000000000E+00 0. -1.
         23    2    1    2    0    0 -0.62541812544E+03 -0.17213599512E+03  0.83178088724E+03  0.10586317992E+04  0.89795375691E+02 0.  0.
         11    1    3    3    0    0 -0.34434595915E+03 -0.14004377437E+03  0.48611160022E+03  0.61195660483E+03  0.00000000000E+00 0.  1.
        -11    1    3    3    0    0 -0.28107216630E+03 -0.32092220746E+02  0.34566928701E+03  0.44667519439E+03  0.00000000000E+00 0. -1.
         22    1    1    2    0    0  0.62541812544E+03  0.17213599512E+03 -0.63731513276E+02  0.65179777403E+03  0.00000000000E+00 0. -1.
<mgrwt>
<rscale>  0 0.15282897E+04</rscale>
<asrwt>0</asrwt>
<pdfrwt beam="1">  1        2 0.19065223E+00 0.15282897E+04</pdfrwt>
<pdfrwt beam="2">  1       -2 0.72490785E-01 0.15282897E+04</pdfrwt>
<totfact> 0.29794988E+01</totfact>
</mgrwt>
</event>
<event>
 6    1  0.5196787E-004  0.3031231E+04  0.7818608E-02  0.8234869E-01
         -1   -1    0    0    0  501 -0.00000000000E+00  0.00000000000E+00  0.11335473576E+04  0.11335473576E+04  0.00000000000E+00 0. -1.
          1   -1    0    0  501    0  0.00000000000E+00 -0.00000000000E+00 -0.20264614048E+04  0.20264614048E+04  0.00000000000E+00 0.  1.
         23    2    1    2    0    0  0.27522405099E+03 -0.36892900118E+03 -0.19507082165E+04  0.20064120432E+04  0.92573512796E+02 0.  0.
         13    1    3    3    0    0  0.17355810806E+03 -0.27244382962E+03 -0.11992337202E+04  0.12419780887E+04  0.00000000000E+00 0. -1.
        -13    1    3    3    0    0  0.10166594293E+03 -0.96485171558E+02 -0.75147449627E+03  0.76443395452E+03  0.00000000000E+00 0.  1.
         22    1    1    2    0    0 -0.27522405099E+03  0.36892900118E+03  0.10577941693E+04  0.11535967193E+04  0.00000000000E+00 0. -1.
<mgrwt>
<rscale>  0 0.30312308E+04</rscale>
<asrwt>0</asrwt>
<pdfrwt beam="1">  1        1 0.31176329E+00 0.30312308E+04</pdfrwt>
<pdfrwt beam="2">  1       -1 0.17439190E+00 0.30312308E+04</pdfrwt>
<totfact> 0.55455020E-01</totfact>
</mgrwt>
</event>
<event>
 6    1  0.5196787E-004  0.4563409E+03  0.7818608E-02  0.1025848E+00
          2   -1    0    0  501    0  0.00000000000E+00  0.00000000000E+00  0.48768529533E+02  0.48768529533E+02  0.00000000000E+00 0. -1.
         -2   -1    0    0    0  501 -0.00000000000E+00 -0.00000000000E+00 -0.10675276568E+04  0.10675276568E+04  0.00000000000E+00 0.  1.
         23    2    1    2    0    0 -0.15831717930E+03  0.20152924970E+02 -0.16300023180E+03  0.24578268454E+03  0.91485423992E+02 0.  0.
         11    1    3    3    0    0 -0.16004560177E+03 -0.73352637333E+00 -0.15648298228E+03  0.22383488658E+03  0.00000000000E+00 0. -1.
        -11    1    3    3    0    0  0.17284224635E+01  0.20886451344E+02 -0.65172495230E+01  0.21947797960E+02  0.00000000000E+00 0.  1.
         22    1    1    2    0    0  0.15831717930E+03 -0.20152924970E+02 -0.85575889547E+03  0.87051350180E+03  0.00000000000E+00 0.  1.
<mgrwt>
<rscale>  0 0.45634090E+03</rscale>
<asrwt>0</asrwt>
<pdfrwt beam="1">  1        2 0.75028509E-02 0.45634090E+03</pdfrwt>
<pdfrwt beam="2">  1       -2 0.16423502E+00 0.45634090E+03</pdfrwt>
<totfact> 0.23042110E+02</totfact>
</mgrwt>
</event>
<event>
 6    1  0.5196787E-004  0.3017601E+04  0.7818608E-02  0.8238723E-01
          2   -1    0    0  501    0  0.00000000000E+00  0.00000000000E+00  0.37078454873E+04  0.37078454873E+04  0.00000000000E+00 0.  1.
         -2   -1    0    0    0  501 -0.00000000000E+00 -0.00000000000E+00 -0.61396276025E+03  0.61396276025E+03  0.00000000000E+00 0. -1.
         23    2    1    2    0    0 -0.86729075677E+03  0.54969267997E+03  0.31290073110E+04  0.32943896204E+04  0.89223982238E+02 0.  0.
         11    1    3    3    0    0 -0.56661211626E+03  0.31042044590E+03  0.20033109947E+04  0.21049145078E+04  0.00000000000E+00 0. -1.
        -11    1    3    3    0    0 -0.30067864051E+03  0.23927223407E+03  0.11256963163E+04  0.11894751126E+04  0.00000000000E+00 0.  1.
         22    1    1    2    0    0  0.86729075677E+03 -0.54969267997E+03 -0.35124583939E+02  0.10274186272E+04  0.00000000000E+00 0. -1.
<mgrwt>
<rscale>  0 0.30176011E+04</rscale>
<asrwt>0</asrwt>
<pdfrwt beam="1">  1        2 0.57043775E+00 0.30176011E+04</pdfrwt>
<pdfrwt beam="2">  1       -2 0.94455811E-01 0.30176011E+04</pdfrwt>
<totfact> 0.46465494E-01</totfact>
</mgrwt>
</event>
<event>
 6    1  0.5196787E-004  0.2369635E+04  0.7818608E-02  0.8450960E-01
          2   -1    0    0  501    0  0.00000000000E+00  0.00000000000E+00  0.85865262900E+03  0.85865262900E+03  0.00000000000E+00 0.  1.
         -2   -1    0    0    0  501 -0.00000000000E+00 -0.00000000000E+00 -0.16348781236E+04  0.16348781236E+04  0.00000000000E+00 0. -1.
         23    2    1    2    0    0  0.10625673381E+04  0.17376265589E+02  0.15849346438E+03  0.10782389753E+04  0.90154462673E+02 0.  0.
         13    1    3    3    0    0  0.35377279705E+03  0.45642349126E+02  0.68057909852E+02  0.36313949807E+03  0.00000000000E+00 0. -1.
        -13    1    3    3    0    0  0.70879454102E+03 -0.28266083538E+02  0.90435554526E+02  0.71509947727E+03  0.00000000000E+00 0.  1.
         22    1    1    2    0    0 -0.10625673381E+04 -0.17376265589E+02 -0.93471895901E+03  0.14152917773E+04  0.00000000000E+00 0. -1.
<mgrwt>
<rscale>  0 0.23696349E+04</rscale>
<asrwt>0</asrwt>
<pdfrwt beam="1">  1        2 0.13210041E+00 0.23696349E+04</pdfrwt>
<pdfrwt beam="2">  1       -2 0.25151971E+00 0.23696349E+04</pdfrwt>
<totfact> 0.17743747E+00</totfact>
</mgrwt>
</event>
<event>
 6    1  0.5196787E-004  0.2602720E+04  0.7818608E-02  0.8367278E-01
          2   -1    0    0  501    0  0.00000000000E+00  0.00000000000E+00  0.85399152745E+03  0.85399152745E+03  0.00000000000E+00 0.  1.
         -2   -1    0    0    0  501 -0.00000000000E+00 -0.00000000000E+00 -0.19830854237E+04  0.19830854237E+04  0.00000000000E+00 0. -1.
         23    2    1    2    0    0  0.96870131525E+03 -0.54608557664E+03  0.16763849020E+03  0.11288303129E+04  0.97793234309E+02 0.  0.
         13    1    3    3    0    0  0.40743722676E+03 -0.17674516525E+03  0.79668851474E+02  0.45121067484E+03  0.00000000000E+00 0. -1.
        -13    1    3    3    0    0  0.56126408848E+03 -0.36934041139E+03  0.87969638730E+02  0.67761963803E+03  0.00000000000E+00 0.  1.
         22    1    1    2    0    0 -0.96870131525E+03  0.54608557664E+03 -0.12967323865E+04  0.17082466383E+04  0.00000000000E+00 0. -1.
<mgrwt>
<rscale>  0 0.26027202E+04</rscale>
<asrwt>0</asrwt>
<pdfrwt beam="1">  1        2 0.13138331E+00 0.26027202E+04</pdfrwt>
<pdfrwt beam="2">  1       -2 0.30509007E+00 0.26027202E+04</pdfrwt>
<totfact> 0.82505615E-01</totfact>
</mgrwt>
</event>
<event>
 6    1  0.5196787E-004  0.1261558E+04  0.7818608E-02  0.9060618E-01
          2   -1    0    0  501    0  0.00000000000E+00  0.00000000000E+00  0.14797166132E+04  0.14797166132E+04  0.00000000000E+00 0.  1.
         -2   -1    0    0    0  501 -0.00000000000E+00 -0.00000000000E+00 -0.26889069661E+03  0.26889069661E+03  0.00000000000E+00 0. -1.
         23    2    1    2    0    0 -0.53790252989E+03  0.13778814232E+03  0.20358455501E+03  0.59845085771E+03  0.91498930162E+02 0.  0.
         11    1    3    3    0    0 -0.19137456432E+03  0.36826235100E+02  0.11687747030E+03  0.22724598682E+03  0.00000000000E+00 0.  1.
        -11    1    3    3    0    0 -0.34652796557E+03  0.10096190722E+03  0.86707084715E+02  0.37120487089E+03  0.00000000000E+00 0. -1.
         22    1    1    2    0    0  0.53790252989E+03 -0.13778814232E+03  0.10072413616E+04  0.11501564521E+04  0.00000000000E+00 0.  1.
<mgrwt>
<rscale>  0 0.12615578E+04</rscale>
<asrwt>0</asrwt>
<pdfrwt beam="1">  1        2 0.22764871E+00 0.12615578E+04</pdfrwt>
<pdfrwt beam="2">  1       -2 0.41367800E-01 0.12615578E+04</pdfrwt>
<totfact> 0.70875360E+01</totfact>
</mgrwt>
</event>
<event>
 6    1  0.5196787E-004  0.2447218E+04  0.7818608E-02  0.8422034E-01
         -2   -1    0    0    0  501 -0.00000000000E+00  0.00000000000E+00  0.58144261969E+03  0.58144261969E+03  0.00000000000E+00 0. -1.
          2   -1    0    0  501    0  0.00000000000E+00 -0.00000000000E+00 -0.25750070666E+04  0.25750070666E+04  0.00000000000E+00 0.  1.
         23    2    1    2    0    0 -0.11889970222E+04  0.26319701579E+03 -0.11277410925E+04  0.16622486727E+04  0.91016978953E+02 0.  0.
         13    1    3    3    0    0 -0.46350500452E+03  0.13373034745E+03 -0.49076756770E+03  0.68816676798E+03  0.00000000000E+00 0. -1.
        -13    1    3    3    0    0 -0.72549201764E+03  0.12946666835E+03 -0.63697352478E+03  0.97408190474E+03  0.00000000000E+00 0.  1.
         22    1    1    2    0    0  0.11889970222E+04 -0.26319701579E+03 -0.86582335440E+03  0.14942010135E+04  0.00000000000E+00 0. -1.
<mgrwt>
<rscale>  0 0.24472179E+04</rscale>
<asrwt>0</asrwt>
<pdfrwt beam="1">  1        2 0.39615493E+00 0.24472179E+04</pdfrwt>
<pdfrwt beam="2">  1       -2 0.89452713E-01 0.24472179E+04</pdfrwt>
<totfact> 0.30216724E+00</totfact>
</mgrwt>
</event>
<event>
 6    1  0.5196787E-004  0.2370578E+04  0.7818608E-02  0.8450601E-01
         -2   -1    0    0    0  501 -0.00000000000E+00  0.00000000000E+00  0.11315466181E+04  0.11315466181E+04  0.00000000000E+00 0. -1.
          2   -1    0    0  501    0  0.00000000000E+00 -0.00000000000E+00 -0.12415842158E+04  0.12415842158E+04  0.00000000000E+00 0.  1.
         23    2    1    2    0    0 -0.10068323407E+04 -0.45120242894E+03  0.37384876785E+03  0.11683731782E+04  0.89654828018E+02 0.  0.
         13    1    3    3    0    0 -0.31132303626E+03 -0.94955552450E+02  0.10616476918E+03  0.34235880018E+03  0.00000000000E+00 0.  1.
        -13    1    3    3    0    0 -0.69550930444E+03 -0.35624687649E+03  0.26768399868E+03  0.82601437803E+03  0.00000000000E+00 0. -1.
         22    1    1    2    0    0  0.10068323407E+04  0.45120242894E+03 -0.48388636550E+03  0.12047576557E+04  0.00000000000E+00 0.  1.
<mgrwt>
<rscale>  0 0.23705783E+04</rscale>
<asrwt>0</asrwt>
<pdfrwt beam="1">  1        2 0.19101296E+00 0.23705783E+04</pdfrwt>
<pdfrwt beam="2">  1       -2 0.17408409E+00 0.23705783E+04</pdfrwt>
<totfact> 0.32162127E+00</totfact>
</mgrwt>
</event>
<event>
 6    1  0.5196787E-004  0.3701578E+04  0.7818608E-02  0.8067612E-01
          2   -1    0    0  501    0  0.00000000000E+00  0.00000000000E+00  0.26740738082E+04  0.26740738082E+04  0.00000000000E+00 0.  1.
         -2   -1    0    0    0  501 -0.00000000000E+00 -0.00000000000E+00 -0.12809742108E+04  0.12809742108E+04  0.00000000000E+00 0. -1.
         23    2    1    2    0    0  0.91989345183E+03 -0.65352044127E+03 -0.86904542692E+03  0.14270857881E+04  0.89671414184E+02 0.  0.
         11    1    3    3    0    0  0.69292875458E+03 -0.47163369527E+03 -0.68878279459E+03  0.10849010736E+04  0.00000000000E+00 0.  1.
        -11    1    3    3    0    0  0.22696469725E+03 -0.18188674600E+03 -0.18026263233E+03  0.34218471442E+03  0.00000000000E+00 0. -1.
         22    1    1    2    0    0 -0.91989345183E+03  0.65352044127E+03  0.22621450243E+04  0.25279622309E+04  0.00000000000E+00 0.  1.
<mgrwt>
<rscale>  0 0.37015778E+04</rscale>
<asrwt>0</asrwt>
<pdfrwt beam="1">  1        2 0.41139597E+00 0.37015778E+04</pdfrwt>
<pdfrwt beam="2">  1       -2 0.19707296E+00 0.37015778E+04</pdfrwt>
<totfact> 0.30917667E-01</totfact>
</mgrwt>
</event>
<event>
 6    1  0.5196787E-004  0.1216402E+04  0.7818608E-02  0.9098620E-01
          2   -1    0    0  501    0  0.00000000000E+00  0.00000000000E+00  0.31673543367E+04  0.31673543367E+04  0.00000000000E+00 0. -1.
         -2   -1    0    0    0  501 -0.00000000000E+00 -0.00000000000E+00 -0.11678776485E+03  0.11678776485E+03  0.00000000000E+00 0.  1.
         23    2    1    2    0    0 -0.50088651409E+03 -0.28699471308E+03  0.20206644420E+04  0.21034848006E+04  0.91160592439E+02 0.  0.
         13    1    3    3    0    0 -0.10394284106E+03 -0.79065520730E+02  0.59019020459E+03  0.60446666439E+03  0.00000000000E+00 0.  1.
        -13    1    3    3    0    0 -0.39694367304E+03 -0.20792919235E+03  0.14304742375E+04  0.14990181362E+04  0.00000000000E+00 0. -1.
         22    1    1    2    0    0  0.50088651409E+03  0.28699471308E+03  0.10299021298E+04  0.11806573010E+04  0.00000000000E+00 0.  1.
<mgrwt>
<rscale>  0 0.12164016E+04</rscale>
<asrwt>0</asrwt>
<pdfrwt beam="1">  1        2 0.48728522E+00 0.12164016E+04</pdfrwt>
<pdfrwt beam="2">  1       -2 0.17967351E-01 0.12164016E+04</pdfrwt>
<totfact> 0.35198533E+01</totfact>
</mgrwt>
</event>
<event>
 6    1  0.5196787E-004  0.1458202E+04  0.7818608E-02  0.8912734E-01
          1   -1    0    0  501    0  0.00000000000E+00  0.00000000000E+00  0.13502987587E+04  0.13502987587E+04  0.00000000000E+00 0.  1.
         -1   -1    0    0    0  501 -0.00000000000E+00 -0.00000000000E+00 -0.39368210978E+03  0.39368210978E+03  0.00000000000E+00 0. -1.
         23    2    1    2    0    0 -0.22454728884E+03  0.38115437154E+03 -0.20841652412E+03  0.49778568547E+03  0.93021509722E+02 0.  0.
         13    1    3    3    0    0 -0.18660787280E+03  0.32974633742E+03 -0.13935307898E+03  0.40370091139E+03  0.00000000000E+00 0. -1.
        -13    1    3    3    0    0 -0.37939416036E+02  0.51408034114E+02 -0.69063445131E+02  0.94084774081E+02  0.00000000000E+00 0.  1.
         22    1    1    2    0    0  0.22454728884E+03 -0.38115437154E+03  0.11650331730E+04  0.12461951830E+04  0.00000000000E+00 0.  1.
<mgrwt>
<rscale>  0 0.14582023E+04</rscale>
<asrwt>0</asrwt>
<pdfrwt beam="1">  1        1 0.20773827E+00 0.14582023E+04</pdfrwt>
<pdfrwt beam="2">  1       -1 0.60566479E-01 0.14582023E+04</pdfrwt>
<totfact> 0.22348199E+01</totfact>
</mgrwt>
</event>
<event>
 6    1  0.5196787E-004  0.1929007E+04  0.7818608E-02  0.8640551E-01
         -2   -1    0    0    0  501 -0.00000000000E+00  0.00000000000E+00  0.50908257724E+03  0.50908257724E+03  0.00000000000E+00 0. -1.
          2   -1    0    0  501    0  0.00000000000E+00 -0.00000000000E+00 -0.18273398635E+04  0.18273398635E+04  0.00000000000E+00 0.  1.
         23    2    1    2    0    0 -0.13529810767E+03  0.73712825287E+03  0.70765977654E+02  0.75811661905E+03  0.89829535013E+02 0.  0.
         13    1    3    3    0    0 -0.37200292075E+02  0.11494476319E+03  0.40862164797E+02  0.12753774668E+03  0.00000000000E+00 0. -1.
        -13    1    3    3    0    0 -0.98097815599E+02  0.62218348968E+03  0.29903812857E+02  0.63057887237E+03  0.00000000000E+00 0.  1.
         22    1    1    2    0    0  0.13529810767E+03 -0.73712825287E+03 -0.13890232640E+04  0.15783058217E+04  0.00000000000E+00 0.  1.
<mgrwt>
<rscale>  0 0.19290069E+04</rscale>
<asrwt>0</asrwt>
<pdfrwt beam="1">  1        2 0.28112921E+00 0.19290069E+04</pdfrwt>
<pdfrwt beam="2">  1       -2 0.78320398E-01 0.19290069E+04</pdfrwt>
<totfact> 0.11286524E+01</totfact>
</mgrwt>
</event>
<event>
 6    1  0.5196787E-004  0.4997344E+04  0.7818608E-02  0.7828917E-01
          2   -1    0    0  501    0  0.00000000000E+00  0.00000000000E+00  0.26963744001E+04  0.26963744001E+04  0.00000000000E+00 0.  1.
         -2   -1    0    0    0  501 -0.00000000000E+00 -0.00000000000E+00 -0.23154651553E+04  0.23154651553E+04  0.00000000000E+00 0. -1.
         23    2    1    2    0    0  0.55729214998E+03 -0.21709159531E+04  0.12963453097E+04  0.25907914756E+04  0.90767242690E+02 0.  0.
         13    1    3    3    0    0  0.34059702713E+03 -0.13174373896E+04  0.83794680566E+03  0.15980620950E+04  0.00000000000E+00 0.  1.
        -13    1    3    3    0    0  0.21669512285E+03 -0.85347856353E+03  0.45839850400E+03  0.99272938062E+03  0.00000000000E+00 0. -1.
         22    1    1    2    0    0 -0.55729214998E+03  0.21709159531E+04 -0.91543606487E+03  0.24210480798E+04  0.00000000000E+00 0. -1.
<mgrwt>
<rscale>  0 0.49973437E+04</rscale>
<asrwt>0</asrwt>
<pdfrwt beam="1">  1        2 0.41482683E+00 0.49973437E+04</pdfrwt>
<pdfrwt beam="2">  1       -2 0.35622541E+00 0.49973437E+04</pdfrwt>
<totfact> 0.27616308E-02</totfact>
</mgrwt>
</event>
<event>
 6    1  0.5196787E-004  0.1159621E+04  0.7818608E-02  0.9148953E-01
         -2   -1    0    0    0  501 -0.00000000000E+00  0.00000000000E+00  0.27021658310E+03  0.27021658310E+03  0.00000000000E+00 0. -1.
          2   -1    0    0  501    0  0.00000000000E+00 -0.00000000000E+00 -0.12441146030E+04  0.12441146030E+04  0.00000000000E+00 0.  1.
         23    2    1    2    0    0 -0.48951553192E+03 -0.81086175728E+02 -0.87186443057E+03  0.10077630493E+04  0.96116358487E+02 0.  0.
         11    1    3    3    0    0 -0.76025457039E+02  0.13610635282E+02 -0.18491518059E+03  0.20039646585E+03  0.00000000000E+00 0. -1.
        -11    1    3    3    0    0 -0.41349007488E+03 -0.94696811010E+02 -0.68694924998E+03  0.80736658346E+03  0.00000000000E+00 0.  1.
         22    1    1    2    0    0  0.48951553192E+03  0.81086175728E+02 -0.10203358935E+03  0.50656813682E+03  0.00000000000E+00 0. -1.
<mgrwt>
<rscale>  0 0.11596213E+04</rscale>
<asrwt>0</asrwt>
<pdfrwt beam="1">  1        2 0.19140225E+00 0.11596213E+04</pdfrwt>
<pdfrwt beam="2">  1       -2 0.41571782E-01 0.11596213E+04</pdfrwt>
<totfact> 0.96640634E+01</totfact>
</mgrwt>
</event>
<event>
 6    1  0.5196787E-004  0.4436563E+04  0.7818608E-02  0.7921838E-01
          2   -1    0    0  501    0  0.00000000000E+00  0.00000000000E+00  0.21423831973E+04  0.21423831973E+04  0.00000000000E+00 0.  1.
         -2   -1    0    0    0  501 -0.00000000000E+00 -0.00000000000E+00 -0.22968686451E+04  0.22968686451E+04  0.00000000000E+00 0. -1.
         23    2    1    2    0    0 -0.21365494361E+04  0.37600125987E+03 -0.53619537740E+03  0.22365437568E+04  0.91662713061E+02 0.  0.
         11    1    3    3    0    0 -0.15736357183E+04  0.24009420984E+03 -0.37451705717E+03  0.16353096434E+04  0.00000000000E+00 0. -1.
        -11    1    3    3    0    0 -0.56291371777E+03  0.13590705003E+03 -0.16167832023E+03  0.60123411341E+03  0.00000000000E+00 0.  1.
         22    1    1    2    0    0  0.21365494361E+04 -0.37600125987E+03  0.38170992960E+03  0.22027080857E+04  0.00000000000E+00 0.  1.
<mgrwt>
<rscale>  0 0.44365630E+04</rscale>
<asrwt>0</asrwt>
<pdfrwt beam="1">  1        2 0.32959742E+00 0.44365630E+04</pdfrwt>
<pdfrwt beam="2">  1       -2 0.35336441E+00 0.44365630E+04</pdfrwt>
<totfact> 0.62770445E-02</totfact>
</mgrwt>
</event>
<event>
 6    1  0.5196787E-004  0.2811622E+04  0.7818608E-02  0.8299669E-01
          2   -1    0    0  501    0  0.00000000000E+00  0.00000000000E+00  0.27914178913E+04  0.27914178913E+04  0.00000000000E+00 0.  1.
         -2   -1    0    0    0  501 -0.00000000000E+00 -0.00000000000E+00 -0.70799295780E+03  0.70799295780E+03  0.00000000000E+00 0. -1.
         23    2    1    2    0    0  0.68621389673E+03 -0.40125631110E+03  0.24837135898E+04  0.26093955978E+04  0.90642432427E+02 0.  0.
         11    1    3    3    0    0  0.37165844818E+03 -0.18955554758E+03  0.14258872875E+04  0.14856701735E+04  0.00000000000E+00 0. -1.
        -11    1    3    3    0    0  0.31455544855E+03 -0.21170076352E+03  0.10578263023E+04  0.11237254243E+04  0.00000000000E+00 0.  1.
         22    1    1    2    0    0 -0.68621389673E+03  0.40125631110E+03 -0.40028865625E+03  0.89001525132E+03  0.00000000000E+00 0. -1.
<mgrwt>
<rscale>  0 0.28116217E+04</rscale>
<asrwt>0</asrwt>
<pdfrwt beam="1">  1        2 0.42944890E+00 0.28116217E+04</pdfrwt>
<pdfrwt beam="2">  1       -2 0.10892199E+00 0.28116217E+04</pdfrwt>
<totfact> 0.13683985E+00</totfact>
</mgrwt>
</event>
<event>
 6    1  0.5196787E-004  0.2994556E+04  0.7818608E-02  0.8245287E-01
         -2   -1    0    0    0  501 -0.00000000000E+00  0.00000000000E+00  0.85302359559E+03  0.85302359559E+03  0.00000000000E+00 0. -1.
          2   -1    0    0  501    0  0.00000000000E+00 -0.00000000000E+00 -0.26281114812E+04  0.26281114812E+04  0.00000000000E+00 0.  1.
         23    2    1    2    0    0  0.71467545719E+03 -0.13103899544E+04 -0.99236442298E+03  0.17957452522E+04  0.10968601164E+03 0.  0.
         13    1    3    3    0    0  0.25352598335E+03 -0.56675693260E+03 -0.38409122173E+03  0.73007870226E+03  0.00000000000E+00 0.  1.
        -13    1    3    3    0    0  0.46114947384E+03 -0.74363302183E+03 -0.60827320125E+03  0.10656665500E+04  0.00000000000E+00 0. -1.
         22    1    1    2    0    0 -0.71467545719E+03  0.13103899544E+04 -0.78272346262E+03  0.16853898246E+04  0.00000000000E+00 0. -1.
<mgrwt>
<rscale>  0 0.29945558E+04</rscale>
<asrwt>0</asrwt>
<pdfrwt beam="1">  1        2 0.40432484E+00 0.29945558E+04</pdfrwt>
<pdfrwt beam="2">  1       -2 0.13123440E+00 0.29945558E+04</pdfrwt>
<totfact> 0.10634072E+00</totfact>
</mgrwt>
</event>
<event>
 6    1  0.5196787E-004  0.4898572E+04  0.7818608E-02  0.7844347E-01
         -2   -1    0    0    0  501 -0.00000000000E+00  0.00000000000E+00  0.26473045875E+04  0.26473045875E+04  0.00000000000E+00 0. -1.
          2   -1    0    0  501    0  0.00000000000E+00 -0.00000000000E+00 -0.22660791150E+04  0.22660791150E+04  0.00000000000E+00 0.  1.
         23    2    1    2    0    0 -0.20875267514E+04  0.99797135512E+02 -0.10887809618E+04  0.23582621158E+04  0.90712833392E+02 0.  0.
         11    1    3    3    0    0 -0.10056000277E+04  0.53337802395E+02 -0.47390036807E+03  0.11129500868E+04  0.00000000000E+00 0.  1.
        -11    1    3    3    0    0 -0.10819267237E+04  0.46459333117E+02 -0.61488059374E+03  0.12453120290E+04  0.00000000000E+00 0. -1.
         22    1    1    2    0    0  0.20875267514E+04 -0.99797135512E+02  0.14700064343E+04  0.25551215867E+04  0.00000000000E+00 0. -1.
<mgrwt>
<rscale>  0 0.48985719E+04</rscale>
<asrwt>0</asrwt>
<pdfrwt beam="1">  1        2 0.34862756E+00 0.48985719E+04</pdfrwt>
<pdfrwt beam="2">  1       -2 0.40727763E+00 0.48985719E+04</pdfrwt>
<totfact> 0.23146237E-02</totfact>
</mgrwt>
</event>
<event>
 6    1  0.5196787E-004  0.3454246E+04  0.7818608E-02  0.8124719E-01
         -2   -1    0    0    0  501 -0.00000000000E+00  0.00000000000E+00  0.22290340934E+04  0.22290340934E+04  0.00000000000E+00 0. -1.
          2   -1    0    0  501    0  0.00000000000E+00 -0.00000000000E+00 -0.13382273247E+04  0.13382273247E+04  0.00000000000E+00 0.  1.
         23    2    1    2    0    0 -0.11981916288E+04 -0.64871517543E+03  0.15397709901E+04  0.20580731864E+04  0.90972415242E+02 0.  0.
         11    1    3    3    0    0 -0.51562502305E+03 -0.32664314963E+03  0.71474474245E+03  0.93990688818E+03  0.00000000000E+00 0. -1.
        -11    1    3    3    0    0 -0.68256660570E+03 -0.32207202580E+03  0.82502624768E+03  0.11181662982E+04  0.00000000000E+00 0.  1.
         22    1    1    2    0    0  0.11981916288E+04  0.64871517543E+03 -0.64896422144E+03  0.15091882317E+04  0.00000000000E+00 0.  1.
<mgrwt>
<rscale>  0 0.34542463E+04</rscale>
<asrwt>0</asrwt>
<pdfrwt beam="1">  1        2 0.20588113E+00 0.34542463E+04</pdfrwt>
<pdfrwt beam="2">  1       -2 0.34292832E+00 0.34542463E+04</pdfrwt>
<totfact> 0.22320553E-01</totfact>
</mgrwt>
</event>
<event>
 6    1  0.5196787E-004  0.1403265E+04  0.7818608E-02  0.8951459E-01
          2   -1    0    0  501    0  0.00000000000E+00  0.00000000000E+00  0.19804882237E+04  0.19804882237E+04  0.00000000000E+00 0.  1.
         -2   -1    0    0    0  501 -0.00000000000E+00 -0.00000000000E+00 -0.24856907403E+03  0.24856907403E+03  0.00000000000E+00 0. -1.
         23    2    1    2    0    0  0.46507827394E+03  0.13509152458E+03  0.69693905658E+02  0.49771669498E+03  0.91198394035E+02 0.  0.
         13    1    3    3    0    0  0.43330796172E+03  0.10336013231E+03  0.48606238071E+02  0.44810899681E+03  0.00000000000E+00 0. -1.
        -13    1    3    3    0    0  0.31770312222E+02  0.31731392272E+02  0.21087667587E+02  0.49607698177E+02  0.00000000000E+00 0.  1.
         22    1    1    2    0    0 -0.46507827394E+03 -0.13509152458E+03  0.16622252440E+04  0.17313406027E+04  0.00000000000E+00 0.  1.
<mgrwt>
<rscale>  0 0.14032649E+04</rscale>
<asrwt>0</asrwt>
<pdfrwt beam="1">  1        2 0.30469049E+00 0.14032649E+04</pdfrwt>
<pdfrwt beam="2">  1       -2 0.38241397E-01 0.14032649E+04</pdfrwt>
<totfact> 0.43064564E+01</totfact>
</mgrwt>
</event>
<event>
 6    1  0.5196787E-004  0.1188985E+04  0.7818608E-02  0.9122553E-01
          2   -1    0    0  501    0  0.00000000000E+00  0.00000000000E+00  0.38739879332E+03  0.38739879332E+03  0.00000000000E+00 0.  1.
         -2   -1    0    0    0  501 -0.00000000000E+00 -0.00000000000E+00 -0.91229280157E+03  0.91229280157E+03  0.00000000000E+00 0. -1.
         23    2    1    2    0    0 -0.57145284856E+03  0.93553551554E+02 -0.13380070375E+03  0.60093226726E+03  0.88917581883E+02 0.  0.
         11    1    3    3    0    0 -0.14884866211E+03  0.45428834748E+02 -0.70731036399E+02  0.17094613990E+03  0.00000000000E+00 0.  1.
        -11    1    3    3    0    0 -0.42260418645E+03  0.48124716807E+02 -0.63069667351E+02  0.42998612735E+03  0.00000000000E+00 0. -1.
         22    1    1    2    0    0  0.57145284856E+03 -0.93553551554E+02 -0.39109330449E+03  0.69875932763E+03  0.00000000000E+00 0. -1.
<mgrwt>
<rscale>  0 0.11889847E+04</rscale>
<asrwt>0</asrwt>
<pdfrwt beam="1">  1        2 0.59599814E-01 0.11889847E+04</pdfrwt>
<pdfrwt beam="2">  1       -2 0.14035274E+00 0.11889847E+04</pdfrwt>
<totfact> 0.29021932E+01</totfact>
</mgrwt>
</event>
<event>
 6    1  0.5196787E-004  0.3039670E+04  0.7818608E-02  0.8232493E-01
          2   -1    0    0  501    0  0.00000000000E+00  0.00000000000E+00  0.25558383450E+04  0.25558383450E+04  0.00000000000E+00 0.  1.
         -2   -1    0    0    0  501 -0.00000000000E+00 -0.00000000000E+00 -0.90377353900E+03  0.90377353900E+03  0.00000000000E+00 0. -1.
         23    2    1    2    0    0  0.88735695059E+03  0.10999848434E+04  0.14587807008E+04  0.20331730459E+04  0.91555928438E+02 0.  0.
         11    1    3    3    0    0  0.23332920512E+03  0.23749318338E+03  0.31313038430E+03  0.45705160287E+03  0.00000000000E+00 0.  1.
        -11    1    3    3    0    0  0.65402774548E+03  0.86249166006E+03  0.11456503165E+04  0.15761214430E+04  0.00000000000E+00 0. -1.
         22    1    1    2    0    0 -0.88735695059E+03 -0.10999848434E+04  0.19328410524E+03  0.14264388381E+04  0.00000000000E+00 0.  1.
<mgrwt>
<rscale>  0 0.30396704E+04</rscale>
<asrwt>0</asrwt>
<pdfrwt beam="1">  1        2 0.39320589E+00 0.30396704E+04</pdfrwt>
<pdfrwt beam="2">  1       -2 0.13904208E+00 0.30396704E+04</pdfrwt>
<totfact> 0.10074134E+00</totfact>
</mgrwt>
</event>
<event>
 6    1  0.5196787E-004  0.2641785E+04  0.7818608E-02  0.8354145E-01
          2   -1    0    0  501    0  0.00000000000E+00  0.00000000000E+00  0.13489270062E+04  0.13489270062E+04  0.00000000000E+00 0.  1.
         -2   -1    0    0    0  501 -0.00000000000E+00 -0.00000000000E+00 -0.12934407479E+04  0.12934407479E+04  0.00000000000E+00 0. -1.
         23    2    1    2    0    0  0.10501126193E+04  0.61722560640E+03 -0.47914020063E+03  0.13121311538E+04  0.91699893510E+02 0.  0.
         11    1    3    3    0    0  0.49358393678E+03  0.32103224495E+03 -0.27145709612E+03  0.64836391014E+03  0.00000000000E+00 0. -1.
        -11    1    3    3    0    0  0.55652868251E+03  0.29619336145E+03 -0.20768310452E+03  0.66376724364E+03  0.00000000000E+00 0.  1.
         22    1    1    2    0    0 -0.10501126193E+04 -0.61722560640E+03  0.53462645895E+03  0.13302366004E+04  0.00000000000E+00 0.  1.
<mgrwt>
<rscale>  0 0.26417851E+04</rscale>
<asrwt>0</asrwt>
<pdfrwt beam="1">  1        2 0.20752723E+00 0.26417851E+04</pdfrwt>
<pdfrwt beam="2">  1       -2 0.19899088E+00 0.26417851E+04</pdfrwt>
<totfact> 0.18434542E+00</totfact>
</mgrwt>
</event>
<event>
 6    1  0.5196787E-004  0.2042422E+04  0.7818608E-02  0.8587040E-01
          2   -1    0    0  501    0  0.00000000000E+00  0.00000000000E+00  0.76374168405E+03  0.76374168405E+03  0.00000000000E+00 0.  1.
         -2   -1    0    0    0  501 -0.00000000000E+00 -0.00000000000E+00 -0.13654766648E+04  0.13654766648E+04  0.00000000000E+00 0. -1.
         23    2    1    2    0    0  0.25504493866E+03  0.89938391750E+03 -0.72475703575E+03  0.11863112603E+04  0.90123767946E+02 0.  0.
         13    1    3    3    0    0  0.20055050315E+03  0.62790062734E+03 -0.46516538022E+03  0.80675803875E+03  0.00000000000E+00 0.  1.
        -13    1    3    3    0    0  0.54494435516E+02  0.27148329015E+03 -0.25959165553E+03  0.37955322150E+03  0.00000000000E+00 0. -1.
         22    1    1    2    0    0 -0.25504493866E+03 -0.89938391750E+03  0.12302205496E+03  0.94290708863E+03  0.00000000000E+00 0.  1.
<mgrwt>
<rscale>  0 0.20424216E+04</rscale>
<asrwt>0</asrwt>
<pdfrwt beam="1">  1        2 0.11749872E+00 0.20424216E+04</pdfrwt>
<pdfrwt beam="2">  1       -2 0.21007333E+00 0.20424216E+04</pdfrwt>
<totfact> 0.38765306E+00</totfact>
</mgrwt>
</event>
<event>
 6    1  0.5196787E-004  0.1098814E+04  0.7818608E-02  0.9206349E-01
          2   -1    0    0  501    0  0.00000000000E+00  0.00000000000E+00  0.90641403382E+03  0.90641403382E+03  0.00000000000E+00 0.  1.
         -2   -1    0    0    0  501 -0.00000000000E+00 -0.00000000000E+00 -0.33301342850E+03  0.33301342850E+03  0.00000000000E+00 0. -1.
         23    2    1    2    0    0 -0.44581408750E+03 -0.14315681204E+03 -0.27427425106E+02  0.47769365344E+03  0.90525628656E+02 0.  0.
         13    1    3    3    0    0 -0.39678754470E+03 -0.13724994344E+03  0.26703891428E+01  0.41986311291E+03  0.00000000000E+00 0. -1.
        -13    1    3    3    0    0 -0.49026542800E+02 -0.59068685917E+01 -0.30097814248E+02  0.57830540530E+02  0.00000000000E+00 0.  1.
         22    1    1    2    0    0  0.44581408750E+03  0.14315681204E+03  0.60082803043E+03  0.76173380888E+03  0.00000000000E+00 0.  1.
<mgrwt>
<rscale>  0 0.10988140E+04</rscale>
<asrwt>0</asrwt>
<pdfrwt beam="1">  1        2 0.13944831E+00 0.10988140E+04</pdfrwt>
<pdfrwt beam="2">  1       -2 0.51232836E-01 0.10988140E+04</pdfrwt>
<totfact> 0.10376621E+02</totfact>
</mgrwt>
</event>
<event>
 6    1  0.5196787E-004  0.1975404E+04  0.7818608E-02  0.8618207E-01
         -2   -1    0    0    0  501 -0.00000000000E+00  0.00000000000E+00  0.17156082667E+04  0.17156082667E+04  0.00000000000E+00 0. -1.
          2   -1    0    0  501    0  0.00000000000E+00 -0.00000000000E+00 -0.56863497137E+03  0.56863497137E+03  0.00000000000E+00 0.  1.
         23    2    1    2    0    0 -0.34995777664E+03  0.56616328037E+02 -0.48877048059E+03  0.61052475682E+03  0.90377220300E+02 0.  0.
         11    1    3    3    0    0 -0.96766560424E+02  0.55988642091E+02 -0.16942732827E+03  0.20298796719E+03  0.00000000000E+00 0. -1.
        -11    1    3    3    0    0 -0.25319121622E+03  0.62768594515E+00 -0.31934315233E+03  0.40753678963E+03  0.00000000000E+00 0.  1.
         22    1    1    2    0    0  0.34995777664E+03 -0.56616328037E+02  0.16357437759E+04  0.16737184812E+04  0.00000000000E+00 0. -1.
<mgrwt>
<rscale>  0 0.19754036E+04</rscale>
<asrwt>0</asrwt>
<pdfrwt beam="1">  1        2 0.87482304E-01 0.19754036E+04</pdfrwt>
<pdfrwt beam="2">  1       -2 0.26393973E+00 0.19754036E+04</pdfrwt>
<totfact> 0.25999536E+00</totfact>
</mgrwt>
</event>
<event>
 6    1  0.5196787E-004  0.1354739E+04  0.7818608E-02  0.8987248E-01
         -2   -1    0    0    0  501 -0.00000000000E+00  0.00000000000E+00  0.99080096758E+03  0.99080096758E+03  0.00000000000E+00 0. -1.
          2   -1    0    0  501    0  0.00000000000E+00 -0.00000000000E+00 -0.46308959729E+03  0.46308959729E+03  0.00000000000E+00 0.  1.
         23    2    1    2    0    0  0.61766944032E+03  0.12857369699E+03  0.97338290145E+01  0.63758947683E+03  0.91536115727E+02 0.  0.
         11    1    3    3    0    0  0.42515122701E+03  0.12015686346E+03 -0.21715743678E+02  0.44233789256E+03  0.00000000000E+00 0. -1.
        -11    1    3    3    0    0  0.19251821330E+03  0.84168335307E+01  0.31449572693E+02  0.19525158428E+03  0.00000000000E+00 0.  1.
         22    1    1    2    0    0 -0.61766944032E+03 -0.12857369699E+03  0.51797754128E+03  0.81630108803E+03  0.00000000000E+00 0. -1.
<mgrwt>
<rscale>  0 0.13547393E+04</rscale>
<asrwt>0</asrwt>
<pdfrwt beam="1">  1        2 0.71244554E-01 0.13547393E+04</pdfrwt>
<pdfrwt beam="2">  1       -2 0.15243092E+00 0.13547393E+04</pdfrwt>
<totfact> 0.18845385E+01</totfact>
</mgrwt>
</event>
<event>
 6    1  0.5196787E-004  0.2605563E+04  0.7818608E-02  0.8366314E-01
          2   -1    0    0  501    0  0.00000000000E+00  0.00000000000E+00  0.13960417387E+04  0.13960417387E+04  0.00000000000E+00 0.  1.
         -2   -1    0    0    0  501 -0.00000000000E+00 -0.00000000000E+00 -0.12157510103E+04  0.12157510103E+04  0.00000000000E+00 0. -1.
         23    2    1    2    0    0 -0.87616806104E+03  0.90529289465E+03  0.41662654508E+03  0.13299658049E+04  0.89474398390E+02 0.  0.
         11    1    3    3    0    0 -0.48321466792E+03  0.52207940921E+03  0.27868710845E+03  0.76402213922E+03  0.00000000000E+00 0. -1.
        -11    1    3    3    0    0 -0.39295339312E+03  0.38321348544E+03  0.13793943663E+03  0.56594366572E+03  0.00000000000E+00 0.  1.
         22    1    1    2    0    0  0.87616806104E+03 -0.90529289465E+03 -0.23633581664E+03  0.12818269441E+04  0.00000000000E+00 0. -1.
<mgrwt>
<rscale>  0 0.26055626E+04</rscale>
<asrwt>0</asrwt>
<pdfrwt beam="1">  1        2 0.21477565E+00 0.26055626E+04</pdfrwt>
<pdfrwt beam="2">  1       -2 0.18703862E+00 0.26055626E+04</pdfrwt>
<totfact> 0.20875327E+00</totfact>
</mgrwt>
</event>
<event>
 6    1  0.5196787E-004  0.1003847E+04  0.7818608E-02  0.9304336E-01
         -1   -1    0    0    0  501 -0.00000000000E+00  0.00000000000E+00  0.16159669778E+03  0.16159669778E+03  0.00000000000E+00 0.  1.
          1   -1    0    0  501    0  0.00000000000E+00 -0.00000000000E+00 -0.15589857506E+04  0.15589857506E+04  0.00000000000E+00 0. -1.
         23    2    1    2    0    0 -0.36389311600E+03 -0.83606131874E+02 -0.14032794618E+03  0.40924312883E+03  0.91541361436E+02 0.  0.
         11    1    3    3    0    0 -0.19710774586E+03 -0.81217724268E+02 -0.47732530448E+02  0.21846321584E+03  0.00000000000E+00 0. -1.
        -11    1    3    3    0    0 -0.16678537015E+03 -0.23884076059E+01 -0.92595415733E+02  0.19077991299E+03  0.00000000000E+00 0.  1.
         22    1    1    2    0    0  0.36389311600E+03  0.83606131874E+02 -0.12570611067E+04  0.13113393196E+04  0.00000000000E+00 0. -1.
<mgrwt>
<rscale>  0 0.10038465E+04</rscale>
<asrwt>0</asrwt>
<pdfrwt beam="1">  1        1 0.23984396E+00 0.10038465E+04</pdfrwt>
<pdfrwt beam="2">  1       -1 0.24861031E-01 0.10038465E+04</pdfrwt>
<totfact> 0.84446053E+01</totfact>
</mgrwt>
</event>
<event>
 6    1  0.5196787E-004  0.2534943E+04  0.7818608E-02  0.8390642E-01
          2   -1    0    0  501    0  0.00000000000E+00  0.00000000000E+00  0.11484422447E+04  0.11484422447E+04  0.00000000000E+00 0.  1.
         -2   -1    0    0    0  501 -0.00000000000E+00 -0.00000000000E+00 -0.13988370835E+04  0.13988370835E+04  0.00000000000E+00 0. -1.
         23    2    1    2    0    0  0.32155499245E+03  0.12243168193E+04 -0.13644511422E+03  0.12763214898E+04  0.89610206427E+02 0.  0.
         13    1    3    3    0    0  0.21992591414E+03  0.69085944384E+03 -0.10224157276E+03  0.73219363426E+03  0.00000000000E+00 0.  1.
        -13    1    3    3    0    0  0.10162907831E+03  0.53345737543E+03 -0.34203541456E+02  0.54412785557E+03  0.00000000000E+00 0. -1.
         22    1    1    2    0    0 -0.32155499245E+03 -0.12243168193E+04 -0.11394972454E+03  0.12709578383E+04  0.00000000000E+00 0.  1.
<mgrwt>
<rscale>  0 0.25349427E+04</rscale>
<asrwt>0</asrwt>
<pdfrwt beam="1">  1        2 0.17668342E+00 0.25349427E+04</pdfrwt>
<pdfrwt beam="2">  1       -2 0.21520570E+00 0.25349427E+04</pdfrwt>
<totfact> 0.19184290E+00</totfact>
</mgrwt>
</event>
<event>
 6    1  0.5196787E-004  0.2483914E+04  0.7818608E-02  0.8408739E-01
         -2   -1    0    0    0  501 -0.00000000000E+00  0.00000000000E+00  0.51497209019E+03  0.51497209019E+03  0.00000000000E+00 0. -1.
          2   -1    0    0  501    0  0.00000000000E+00 -0.00000000000E+00 -0.29952256587E+04  0.29952256587E+04  0.00000000000E+00 0.  1.
         23    2    1    2    0    0 -0.21944569110E+03  0.10767038725E+04 -0.20546854486E+04  0.23318277455E+04  0.90778309631E+02 0.  0.
         13    1    3    3    0    0 -0.11614378953E+03  0.56348276391E+03 -0.97960815697E+03  0.11360608902E+04  0.00000000000E+00 0.  1.
        -13    1    3    3    0    0 -0.10330190157E+03  0.51322110855E+03 -0.10750772916E+04  0.11957668553E+04  0.00000000000E+00 0. -1.
         22    1    1    2    0    0  0.21944569110E+03 -0.10767038725E+04 -0.42556811991E+03  0.11783700034E+04  0.00000000000E+00 0. -1.
<mgrwt>
<rscale>  0 0.24839143E+04</rscale>
<asrwt>0</asrwt>
<pdfrwt beam="1">  1        2 0.46080395E+00 0.24839143E+04</pdfrwt>
<pdfrwt beam="2">  1       -2 0.79226474E-01 0.24839143E+04</pdfrwt>
<totfact> 0.22125361E+00</totfact>
</mgrwt>
</event>
<event>
 6    1  0.5196787E-004  0.1647663E+04  0.7818608E-02  0.8791790E-01
         -2   -1    0    0    0  501 -0.00000000000E+00  0.00000000000E+00  0.58420593489E+03  0.58420593489E+03  0.00000000000E+00 0. -1.
          2   -1    0    0  501    0  0.00000000000E+00 -0.00000000000E+00 -0.11617445451E+04  0.11617445451E+04  0.00000000000E+00 0.  1.
         23    2    1    2    0    0 -0.43038298984E+03  0.14442046112E+02  0.45148499208E+03  0.63045612109E+03  0.90543535986E+02 0.  0.
         13    1    3    3    0    0 -0.23188767879E+03 -0.85968925948E+00  0.30571132905E+03  0.38370828939E+03  0.00000000000E+00 0. -1.
        -13    1    3    3    0    0 -0.19849531106E+03  0.15301735372E+02  0.14577366304E+03  0.24674783170E+03  0.00000000000E+00 0.  1.
         22    1    1    2    0    0  0.43038298984E+03 -0.14442046112E+02 -0.10290236023E+04  0.11154943589E+04  0.00000000000E+00 0.  1.
<mgrwt>
<rscale>  0 0.16476627E+04</rscale>
<asrwt>0</asrwt>
<pdfrwt beam="1">  1        2 0.17872993E+00 0.16476627E+04</pdfrwt>
<pdfrwt beam="2">  1       -2 0.89877838E-01 0.16476627E+04</pdfrwt>
<totfact> 0.20232850E+01</totfact>
</mgrwt>
</event>
<event>
 6    1  0.5196787E-004  0.1892884E+04  0.7818608E-02  0.8658406E-01
         -2   -1    0    0    0  501 -0.00000000000E+00  0.00000000000E+00  0.46909907967E+03  0.46909907967E+03  0.00000000000E+00 0. -1.
          2   -1    0    0  501    0  0.00000000000E+00 -0.00000000000E+00 -0.19095171511E+04  0.19095171511E+04  0.00000000000E+00 0.  1.
         23    2    1    2    0    0  0.35023164208E+03  0.36833726810E+03 -0.17218586726E+04  0.17976314133E+04  0.91361170782E+02 0.  0.
         13    1    3    3    0    0  0.78813995256E+02  0.12756250281E+03 -0.41143384106E+03  0.43790597568E+03  0.00000000000E+00 0.  1.
        -13    1    3    3    0    0  0.27141764683E+03  0.24077476529E+03 -0.13104248316E+04  0.13597254376E+04  0.00000000000E+00 0. -1.
         22    1    1    2    0    0 -0.35023164208E+03 -0.36833726810E+03  0.28144060114E+03  0.58098481749E+03  0.00000000000E+00 0. -1.
<mgrwt>
<rscale>  0 0.18928843E+04</rscale>
<asrwt>0</asrwt>
<pdfrwt beam="1">  1        2 0.29377187E+00 0.18928843E+04</pdfrwt>
<pdfrwt beam="2">  1       -2 0.72169088E-01 0.18928843E+04</pdfrwt>
<totfact> 0.12220374E+01</totfact>
</mgrwt>
</event>
<event>
 6    1  0.5196787E-004  0.7822768E+03  0.7818608E-02  0.9586031E-01
         -2   -1    0    0    0  501 -0.00000000000E+00  0.00000000000E+00  0.10292344852E+03  0.10292344852E+03  0.00000000000E+00 0. -1.
          2   -1    0    0  501    0  0.00000000000E+00 -0.00000000000E+00 -0.14864372340E+04  0.14864372340E+04  0.00000000000E+00 0.  1.
         23    2    1    2    0    0 -0.69522947883E+02  0.51214938270E+02 -0.14651371025E+04  0.14705382264E+04  0.91648983056E+02 0.  0.
         13    1    3    3    0    0 -0.81418304035E+01  0.34845925256E+02 -0.10462212487E+04  0.10468330474E+04  0.00000000000E+00 0. -1.
        -13    1    3    3    0    0 -0.61381117480E+02  0.16369013014E+02 -0.41891585383E+03  0.42370517906E+03  0.00000000000E+00 0.  1.
         22    1    1    2    0    0  0.69522947883E+02 -0.51214938270E+02  0.81623317037E+02  0.11882245608E+03  0.00000000000E+00 0. -1.
<mgrwt>
<rscale>  0 0.78227680E+03</rscale>
<asrwt>0</asrwt>
<pdfrwt beam="1">  1        2 0.22868263E+00 0.78227680E+03</pdfrwt>
<pdfrwt beam="2">  1       -2 0.15834378E-01 0.78227680E+03</pdfrwt>
<totfact> 0.41721805E+02</totfact>
</mgrwt>
</event>
<event>
 6    1  0.5196787E-004  0.2416153E+04  0.7818608E-02  0.8433481E-01
         -2   -1    0    0    0  501 -0.00000000000E+00  0.00000000000E+00  0.88671664279E+03  0.88671664279E+03  0.00000000000E+00 0. -1.
          2   -1    0    0  501    0  0.00000000000E+00 -0.00000000000E+00 -0.16459019185E+04  0.16459019185E+04  0.00000000000E+00 0.  1.
         23    2    1    2    0    0 -0.28792336064E+03  0.52382531170E+03  0.71827751633E+03  0.93882148493E+03  0.90390106260E+02 0.  0.
         13    1    3    3    0    0 -0.14309367228E+03  0.26212877471E+03  0.28869667689E+03  0.41537099661E+03  0.00000000000E+00 0. -1.
        -13    1    3    3    0    0 -0.14482968836E+03  0.26169653699E+03  0.42958083944E+03  0.52345048831E+03  0.00000000000E+00 0.  1.
         22    1    1    2    0    0  0.28792336064E+03 -0.52382531170E+03 -0.14774627921E+04  0.15937970764E+04  0.00000000000E+00 0.  1.
<mgrwt>
<rscale>  0 0.24161528E+04</rscale>
<asrwt>0</asrwt>
<pdfrwt beam="1">  1        2 0.25321568E+00 0.24161528E+04</pdfrwt>
<pdfrwt beam="2">  1       -2 0.13641795E+00 0.24161528E+04</pdfrwt>
<totfact> 0.36265454E+00</totfact>
</mgrwt>
</event>
<event>
 6    1  0.5784700E-004  0.3357399E+04  0.7818608E-02  0.8148442E-01
          2   -1    0    0  501    0  0.00000000000E+00  0.00000000000E+00  0.21954056764E+04  0.21954056764E+04  0.00000000000E+00 0.  1.
         -2   -1    0    0    0  501 -0.00000000000E+00 -0.00000000000E+00 -0.12836040708E+04  0.12836040708E+04  0.00000000000E+00 0. -1.
         23    2    1    2    0    0 -0.13228964669E+04  0.34425100665E+03 -0.55135921798E+03  0.14766602738E+04  0.89245499448E+02 0.  0.
         13    1    3    3    0    0 -0.95314210940E+03  0.28286931807E+03 -0.37749158927E+03  0.10634824078E+04  0.00000000000E+00 0.  1.
        -13    1    3    3    0    0 -0.36975435754E+03  0.61381688580E+02 -0.17386762871E+03  0.41317786597E+03  0.00000000000E+00 0. -1.
         22    1    1    2    0    0  0.13228964669E+04 -0.34425100665E+03  0.14631608237E+04  0.20023494734E+04  0.00000000000E+00 0.  1.
<mgrwt>
<rscale>  0 0.33573988E+04</rscale>
<asrwt>0</asrwt>
<pdfrwt beam="1">  1        2 0.33775472E+00 0.33573988E+04</pdfrwt>
<pdfrwt beam="2">  1       -2 0.19747755E+00 0.33573988E+04</pdfrwt>
<totfact> 0.59677347E-01</totfact>
</mgrwt>
</event>
<event>
 6    1  0.5196787E-004  0.1788769E+04  0.7818608E-02  0.8712295E-01
         -2   -1    0    0    0  501 -0.00000000000E+00  0.00000000000E+00  0.62232273271E+03  0.62232273271E+03  0.00000000000E+00 0. -1.
          2   -1    0    0  501    0  0.00000000000E+00 -0.00000000000E+00 -0.12853838008E+04  0.12853838008E+04  0.00000000000E+00 0.  1.
         23    2    1    2    0    0  0.31216546293E+03 -0.17570020104E+03  0.53726547592E+03  0.65506865720E+03  0.11019490518E+03 0.  0.
         11    1    3    3    0    0  0.16429494290E+03 -0.11331421468E+03  0.20519380859E+03  0.28624716347E+03  0.00000000000E+00 0.  1.
        -11    1    3    3    0    0  0.14787052003E+03 -0.62385986365E+02  0.33207166733E+03  0.36882149372E+03  0.00000000000E+00 0. -1.
         22    1    1    2    0    0 -0.31216546293E+03  0.17570020104E+03 -0.12003265440E+04  0.12526378763E+04  0.00000000000E+00 0.  1.
<mgrwt>
<rscale>  0 0.17887689E+04</rscale>
<asrwt>0</asrwt>
<pdfrwt beam="1">  1        2 0.19775135E+00 0.17887689E+04</pdfrwt>
<pdfrwt beam="2">  1       -2 0.95741959E-01 0.17887689E+04</pdfrwt>
<totfact> 0.14582220E+01</totfact>
</mgrwt>
</event>
<event>
 6    1  0.5196787E-004  0.2577332E+04  0.7818608E-02  0.8375942E-01
          2   -1    0    0  501    0  0.00000000000E+00  0.00000000000E+00  0.12870233353E+04  0.12870233353E+04  0.00000000000E+00 0.  1.
         -2   -1    0    0    0  501 -0.00000000000E+00 -0.00000000000E+00 -0.12903109267E+04  0.12903109267E+04  0.00000000000E+00 0. -1.
         23    2    1    2    0    0  0.10139650940E+04 -0.18141845145E+03  0.76990462376E+03  0.12893652918E+04  0.93122820002E+02 0.  0.
         13    1    3    3    0    0  0.64850063242E+03 -0.94092011723E+02  0.43970257382E+03  0.78914176822E+03  0.00000000000E+00 0. -1.
        -13    1    3    3    0    0  0.36546446162E+03 -0.87326439722E+02  0.33020204994E+03  0.50022352360E+03  0.00000000000E+00 0.  1.
         22    1    1    2    0    0 -0.10139650940E+04  0.18141845145E+03 -0.77319221518E+03  0.12879689701E+04  0.00000000000E+00 0. -1.
<mgrwt>
<rscale>  0 0.25773322E+04</rscale>
<asrwt>0</asrwt>
<pdfrwt beam="1">  1        2 0.19800359E+00 0.25773322E+04</pdfrwt>
<pdfrwt beam="2">  1       -2 0.19850937E+00 0.25773322E+04</pdfrwt>
<totfact> 0.20282299E+00</totfact>
</mgrwt>
</event>
<event>
 6    1  0.5196787E-004  0.1852119E+04  0.7818608E-02  0.8679064E-01
          2   -1    0    0  501    0  0.00000000000E+00  0.00000000000E+00  0.26548247327E+04  0.26548247327E+04  0.00000000000E+00 0.  1.
         -2   -1    0    0    0  501 -0.00000000000E+00 -0.00000000000E+00 -0.32302939399E+03  0.32302939399E+03  0.00000000000E+00 0. -1.
         23    2    1    2    0    0  0.69544324824E+03 -0.60381194590E+03  0.12833321066E+04  0.15823236446E+04  0.92610165052E+02 0.  0.
         13    1    3    3    0    0  0.56581469623E+03 -0.50521779491E+03  0.11105420001E+04  0.13448772526E+04  0.00000000000E+00 0. -1.
        -13    1    3    3    0    0  0.12962855202E+03 -0.98594150985E+02  0.17279010658E+03  0.23744639192E+03  0.00000000000E+00 0.  1.
         22    1    1    2    0    0 -0.69544324824E+03  0.60381194590E+03  0.10484632321E+04  0.13955304821E+04  0.00000000000E+00 0.  1.
<mgrwt>
<rscale>  0 0.18521192E+04</rscale>
<asrwt>0</asrwt>
<pdfrwt beam="1">  1        2 0.40843456E+00 0.18521192E+04</pdfrwt>
<pdfrwt beam="2">  1       -2 0.49696832E-01 0.18521192E+04</pdfrwt>
<totfact> 0.10191629E+01</totfact>
</mgrwt>
</event>
<event>
 6    1  0.5196787E-004  0.2224859E+04  0.7818608E-02  0.8508152E-01
          2   -1    0    0  501    0  0.00000000000E+00  0.00000000000E+00  0.26369286318E+04  0.26369286318E+04  0.00000000000E+00 0.  1.
         -2   -1    0    0    0  501 -0.00000000000E+00 -0.00000000000E+00 -0.46929572944E+03  0.46929572944E+03  0.00000000000E+00 0. -1.
         23    2    1    2    0    0 -0.49361845817E+03  0.15891077608E+03 -0.28561580879E+03  0.59876727173E+03  0.89632797892E+02 0.  0.
         11    1    3    3    0    0 -0.97009207808E+02  0.10107657723E+02 -0.22493766168E+02  0.10009455860E+03  0.00000000000E+00 0.  1.
        -11    1    3    3    0    0 -0.39660925036E+03  0.14880311835E+03 -0.26312204263E+03  0.49867271313E+03  0.00000000000E+00 0. -1.
         22    1    1    2    0    0  0.49361845817E+03 -0.15891077608E+03  0.24532487112E+04  0.25074570895E+04  0.00000000000E+00 0.  1.
<mgrwt>
<rscale>  0 0.22248590E+04</rscale>
<asrwt>0</asrwt>
<pdfrwt beam="1">  1        2 0.40568132E+00 0.22248590E+04</pdfrwt>
<pdfrwt beam="2">  1       -2 0.72199344E-01 0.22248590E+04</pdfrwt>
<totfact> 0.45872034E+00</totfact>
</mgrwt>
</event>
<event>
 6    1  0.5196787E-004  0.3169207E+04  0.7818608E-02  0.8196997E-01
          2   -1    0    0  501    0  0.00000000000E+00  0.00000000000E+00  0.18350534363E+04  0.18350534363E+04  0.00000000000E+00 0.  1.
         -2   -1    0    0    0  501 -0.00000000000E+00 -0.00000000000E+00 -0.13683351213E+04  0.13683351213E+04  0.00000000000E+00 0. -1.
         23    2    1    2    0    0  0.12674616486E+04 -0.28220371013E+03  0.11492648639E+04  0.17364298819E+04  0.91000235241E+02 0.  0.
         13    1    3    3    0    0  0.51029980975E+03 -0.68217142117E+02  0.45980622640E+03  0.69027620569E+03  0.00000000000E+00 0.  1.
        -13    1    3    3    0    0  0.75716183881E+03 -0.21398656801E+03  0.68945863754E+03  0.10461536762E+04  0.00000000000E+00 0. -1.
         22    1    1    2    0    0 -0.12674616486E+04  0.28220371013E+03 -0.68254654900E+03  0.14669586757E+04  0.00000000000E+00 0. -1.
<mgrwt>
<rscale>  0 0.31692069E+04</rscale>
<asrwt>0</asrwt>
<pdfrwt beam="1">  1        2 0.28231591E+00 0.31692069E+04</pdfrwt>
<pdfrwt beam="2">  1       -2 0.21051310E+00 0.31692069E+04</pdfrwt>
<totfact> 0.79161338E-01</totfact>
</mgrwt>
</event>
<event>
 6    1  0.5196787E-004  0.4424230E+04  0.7818608E-02  0.7924038E-01
         -2   -1    0    0    0  501 -0.00000000000E+00  0.00000000000E+00  0.17907184523E+04  0.17907184523E+04  0.00000000000E+00 0. -1.
          2   -1    0    0  501    0  0.00000000000E+00 -0.00000000000E+00 -0.27326755838E+04  0.27326755838E+04  0.00000000000E+00 0.  1.
         23    2    1    2    0    0  0.13865049480E+04  0.13622330692E+04 -0.15488940250E+04  0.24871113204E+04  0.92601911375E+02 0.  0.
         13    1    3    3    0    0  0.66363709580E+03  0.70786729617E+03 -0.74239928925E+03  0.12217393374E+04  0.00000000000E+00 0.  1.
        -13    1    3    3    0    0  0.72286785223E+03  0.65436577298E+03 -0.80649473573E+03  0.12653719830E+04  0.00000000000E+00 0. -1.
         22    1    1    2    0    0 -0.13865049480E+04 -0.13622330692E+04  0.60693689352E+03  0.20362827157E+04  0.00000000000E+00 0. -1.
<mgrwt>
<rscale>  0 0.44242299E+04</rscale>
<asrwt>0</asrwt>
<pdfrwt beam="1">  1        2 0.42041163E+00 0.44242299E+04</pdfrwt>
<pdfrwt beam="2">  1       -2 0.27549514E+00 0.44242299E+04</pdfrwt>
<totfact> 0.86817382E-02</totfact>
</mgrwt>
</event>
<event>
 6    1  0.5196787E-004  0.5901068E+04  0.7818608E-02  0.7702791E-01
         -2   -1    0    0    0  501 -0.00000000000E+00  0.00000000000E+00  0.31524100059E+04  0.31524100059E+04  0.00000000000E+00 0. -1.
          2   -1    0    0  501    0  0.00000000000E+00 -0.00000000000E+00 -0.27615854290E+04  0.27615854290E+04  0.00000000000E+00 0.  1.
         23    2    1    2    0    0 -0.15910206682E+04  0.73812918332E+03 -0.21813517130E+04  0.28007539852E+04  0.98722498045E+02 0.  0.
         11    1    3    3    0    0 -0.11749504598E+04  0.55565918333E+03 -0.15474965233E+04  0.20208936638E+04  0.00000000000E+00 0.  1.
        -11    1    3    3    0    0 -0.41607020842E+03  0.18246999999E+03 -0.63385518972E+03  0.77986032132E+03  0.00000000000E+00 0. -1.
         22    1    1    2    0    0  0.15910206682E+04 -0.73812918332E+03  0.25721762900E+04  0.31132414498E+04  0.00000000000E+00 0. -1.
<mgrwt>
<rscale>  0 0.59010675E+04</rscale>
<asrwt>0</asrwt>
<pdfrwt beam="1">  1        2 0.42485929E+00 0.59010675E+04</pdfrwt>
<pdfrwt beam="2">  1       -2 0.48498616E+00 0.59010675E+04</pdfrwt>
<totfact> 0.34238294E-03</totfact>
</mgrwt>
</event>
<event>
 6    1  0.5196787E-004  0.2697134E+04  0.7818608E-02  0.8335936E-01
          2   -1    0    0  501    0  0.00000000000E+00  0.00000000000E+00  0.15555162107E+04  0.15555162107E+04  0.00000000000E+00 0.  1.
         -2   -1    0    0    0  501 -0.00000000000E+00 -0.00000000000E+00 -0.11691504955E+04  0.11691504955E+04  0.00000000000E+00 0. -1.
         23    2    1    2    0    0  0.42434229050E+03  0.25899219195E+03 -0.10712668638E+04  0.11845900620E+04  0.92182355025E+02 0.  0.
         11    1    3    3    0    0  0.18068685777E+03  0.88883454392E+02 -0.53257158523E+03  0.56936851198E+03  0.00000000000E+00 0.  1.
        -11    1    3    3    0    0  0.24365543273E+03  0.17010873755E+03 -0.53869527854E+03  0.61522155002E+03  0.00000000000E+00 0. -1.
         22    1    1    2    0    0 -0.42434229050E+03 -0.25899219195E+03  0.14576325789E+04  0.15400766442E+04  0.00000000000E+00 0.  1.
<mgrwt>
<rscale>  0 0.26971337E+04</rscale>
<asrwt>0</asrwt>
<pdfrwt beam="1">  1        2 0.23931018E+00 0.26971337E+04</pdfrwt>
<pdfrwt beam="2">  1       -2 0.17986931E+00 0.26971337E+04</pdfrwt>
<totfact> 0.18835870E+00</totfact>
</mgrwt>
</event>
<event>
 6    1  0.5196787E-004  0.5154749E+04  0.7818608E-02  0.7805069E-01
         -2   -1    0    0    0  501 -0.00000000000E+00  0.00000000000E+00  0.25013610259E+04  0.25013610259E+04  0.00000000000E+00 0. -1.
          2   -1    0    0  501    0  0.00000000000E+00 -0.00000000000E+00 -0.26556977658E+04  0.26556977658E+04  0.00000000000E+00 0.  1.
         23    2    1    2    0    0  0.36467486984E+03 -0.12188094082E+04  0.21643544607E+04  0.25122879099E+04  0.93145995562E+02 0.  0.
         11    1    3    3    0    0  0.21666945311E+03 -0.74328833411E+03  0.14047760417E+04  0.16040009124E+04  0.00000000000E+00 0. -1.
        -11    1    3    3    0    0  0.14800541673E+03 -0.47552107410E+03  0.75957841897E+03  0.90828699752E+03  0.00000000000E+00 0.  1.
         22    1    1    2    0    0 -0.36467486984E+03  0.12188094082E+04 -0.23186912005E+04  0.26447708819E+04  0.00000000000E+00 0.  1.
<mgrwt>
<rscale>  0 0.51547488E+04</rscale>
<asrwt>0</asrwt>
<pdfrwt beam="1">  1        2 0.40856889E+00 0.51547488E+04</pdfrwt>
<pdfrwt beam="2">  1       -2 0.38482477E+00 0.51547488E+04</pdfrwt>
<totfact> 0.18915758E-02</totfact>
</mgrwt>
</event>
<event>
 6    1  0.5196787E-004  0.8782218E+03  0.7818608E-02  0.9453222E-01
         -2   -1    0    0    0  501 -0.00000000000E+00  0.00000000000E+00  0.67925460017E+02  0.67925460017E+02  0.00000000000E+00 0. -1.
          2   -1    0    0  501    0  0.00000000000E+00 -0.00000000000E+00 -0.28386764303E+04  0.28386764303E+04  0.00000000000E+00 0.  1.
         23    2    1    2    0    0  0.23731349497E+03  0.35734583589E+03 -0.11704916383E+04  0.12498449163E+04  0.89710078456E+02 0.  0.
         11    1    3    3    0    0  0.51441249278E+02  0.33353569432E+02 -0.11689900482E+03  0.13200015170E+03  0.00000000000E+00 0. -1.
        -11    1    3    3    0    0  0.18587224569E+03  0.32399226645E+03 -0.10535926335E+04  0.11178447646E+04  0.00000000000E+00 0.  1.
         22    1    1    2    0    0 -0.23731349497E+03 -0.35734583589E+03 -0.16002593319E+04  0.16567569740E+04  0.00000000000E+00 0. -1.
<mgrwt>
<rscale>  0 0.87822185E+03</rscale>
<asrwt>0</asrwt>
<pdfrwt beam="1">  1        2 0.43671943E+00 0.87822185E+03</pdfrwt>
<pdfrwt beam="2">  1       -2 0.10450071E-01 0.87822185E+03</pdfrwt>
<totfact> 0.14482159E+02</totfact>
</mgrwt>
</event>
<event>
 6    1  0.5196787E-004  0.9151856E+03  0.7818608E-02  0.9406795E-01
         -2   -1    0    0    0  501 -0.00000000000E+00  0.00000000000E+00  0.34290647965E+03  0.34290647965E+03  0.00000000000E+00 0. -1.
          2   -1    0    0  501    0  0.00000000000E+00 -0.00000000000E+00 -0.61063639649E+03  0.61063639649E+03  0.00000000000E+00 0.  1.
         23    2    1    2    0    0  0.26607218055E+03  0.27149417883E+03  0.12150053680E+03  0.40948052638E+03  0.91697473457E+02 0.  0.
         13    1    3    3    0    0  0.13603980721E+03  0.20071730276E+03  0.85620938866E+02  0.25714822563E+03  0.00000000000E+00 0.  1.
        -13    1    3    3    0    0  0.13003237334E+03  0.70776876069E+02  0.35879597931E+02  0.15233230075E+03  0.00000000000E+00 0. -1.
         22    1    1    2    0    0 -0.26607218055E+03 -0.27149417883E+03 -0.38923045364E+03  0.54406234977E+03  0.00000000000E+00 0.  1.
<mgrwt>
<rscale>  0 0.91518561E+03</rscale>
<asrwt>0</asrwt>
<pdfrwt beam="1">  1        2 0.93944059E-01 0.91518561E+03</pdfrwt>
<pdfrwt beam="2">  1       -2 0.52754844E-01 0.91518561E+03</pdfrwt>
<totfact> 0.16502458E+02</totfact>
</mgrwt>
</event>
<event>
 6    1  0.5196787E-004  0.4046931E+04  0.7818608E-02  0.7995145E-01
         -2   -1    0    0    0  501 -0.00000000000E+00  0.00000000000E+00  0.19648345693E+04  0.19648345693E+04  0.00000000000E+00 0. -1.
          2   -1    0    0  501    0  0.00000000000E+00 -0.00000000000E+00 -0.20838457768E+04  0.20838457768E+04  0.00000000000E+00 0.  1.
         23    2    1    2    0    0 -0.71819566146E+02 -0.15063089747E+04  0.12883533836E+04  0.19859637223E+04  0.10036278195E+03 0.  0.
         11    1    3    3    0    0 -0.36351594120E+02 -0.13657332513E+04  0.11561800447E+04  0.17897768151E+04  0.00000000000E+00 0.  1.
        -11    1    3    3    0    0 -0.35467972026E+02 -0.14057572340E+03  0.13217333897E+03  0.19618690726E+03  0.00000000000E+00 0. -1.
         22    1    1    2    0    0  0.71819566146E+02  0.15063089747E+04 -0.14073645912E+04  0.20627166237E+04  0.00000000000E+00 0.  1.
<mgrwt>
<rscale>  0 0.40469308E+04</rscale>
<asrwt>0</asrwt>
<pdfrwt beam="1">  1        2 0.32059166E+00 0.40469308E+04</pdfrwt>
<pdfrwt beam="2">  1       -2 0.30228224E+00 0.40469308E+04</pdfrwt>
<totfact> 0.14511279E-01</totfact>
</mgrwt>
</event>
<event>
 6    1  0.5196787E-004  0.2749901E+04  0.7818608E-02  0.8318993E-01
          2   -1    0    0  501    0  0.00000000000E+00  0.00000000000E+00  0.20707779012E+04  0.20707779012E+04  0.00000000000E+00 0.  1.
         -2   -1    0    0    0  501 -0.00000000000E+00 -0.00000000000E+00 -0.91293647045E+03  0.91293647045E+03  0.00000000000E+00 0. -1.
         23    2    1    2    0    0  0.10076635298E+04 -0.77668998826E+03  0.11406056720E+04  0.17113424926E+04  0.95282216461E+02 0.  0.
         13    1    3    3    0    0  0.33915705225E+03 -0.31510835371E+03  0.43701390619E+03  0.63663328131E+03  0.00000000000E+00 0. -1.
        -13    1    3    3    0    0  0.66850647757E+03 -0.46158163455E+03  0.70359176581E+03  0.10747092113E+04  0.00000000000E+00 0.  1.
         22    1    1    2    0    0 -0.10076635298E+04  0.77668998826E+03  0.17235758732E+02  0.12723718790E+04  0.00000000000E+00 0. -1.
<mgrwt>
<rscale>  0 0.27499008E+04</rscale>
<asrwt>0</asrwt>
<pdfrwt beam="1">  1        2 0.31858121E+00 0.27499008E+04</pdfrwt>
<pdfrwt beam="2">  1       -2 0.14045177E+00 0.27499008E+04</pdfrwt>
<totfact> 0.18986062E+00</totfact>
</mgrwt>
</event>
<event>
 6    1  0.5529303E-004  0.3563504E+04  0.7818608E-02  0.8098903E-01
         -2   -1    0    0    0  501 -0.00000000000E+00  0.00000000000E+00  0.18253075503E+04  0.18253075503E+04  0.00000000000E+00 0. -1.
          2   -1    0    0  501    0  0.00000000000E+00 -0.00000000000E+00 -0.17392356692E+04  0.17392356692E+04  0.00000000000E+00 0.  1.
         23    2    1    2    0    0  0.52973081962E+03 -0.13457860565E+04 -0.99584400759E+03  0.17583602716E+04  0.91491564509E+02 0.  0.
         11    1    3    3    0    0  0.18468260949E+03 -0.53744204053E+03 -0.43627697248E+03  0.71644204923E+03  0.00000000000E+00 0. -1.
        -11    1    3    3    0    0  0.34504821012E+03 -0.80834401594E+03 -0.55956703511E+03  0.10419182224E+04  0.00000000000E+00 0.  1.
         22    1    1    2    0    0 -0.52973081962E+03  0.13457860565E+04  0.10819158887E+04  0.18061829479E+04  0.00000000000E+00 0. -1.
<mgrwt>
<rscale>  0 0.35635039E+04</rscale>
<asrwt>0</asrwt>
<pdfrwt beam="1">  1        2 0.26757472E+00 0.35635039E+04</pdfrwt>
<pdfrwt beam="2">  1       -2 0.28081654E+00 0.35635039E+04</pdfrwt>
<totfact> 0.31739682E-01</totfact>
</mgrwt>
</event>
<event>
 6    1  0.5196787E-004  0.2652253E+04  0.7818608E-02  0.8350666E-01
          2   -1    0    0  501    0  0.00000000000E+00  0.00000000000E+00  0.29167055008E+04  0.29167055008E+04  0.00000000000E+00 0.  1.
         -2   -1    0    0    0  501 -0.00000000000E+00 -0.00000000000E+00 -0.60294448624E+03  0.60294448624E+03  0.00000000000E+00 0. -1.
         23    2    1    2    0    0 -0.58555939292E+03  0.63096052553E+03  0.24940200855E+04  0.26401704136E+04  0.96812390853E+02 0.  0.
         11    1    3    3    0    0 -0.25180666521E+03  0.29343406344E+03  0.98159852898E+03  0.10550098665E+04  0.00000000000E+00 0. -1.
        -11    1    3    3    0    0 -0.33375272770E+03  0.33752646209E+03  0.15124215565E+04  0.15851605472E+04  0.00000000000E+00 0.  1.
         22    1    1    2    0    0  0.58555939292E+03 -0.63096052553E+03 -0.18025907088E+03  0.87947957341E+03  0.00000000000E+00 0. -1.
<mgrwt>
<rscale>  0 0.26522530E+04</rscale>
<asrwt>0</asrwt>
<pdfrwt beam="1">  1        2 0.44872392E+00 0.26522530E+04</pdfrwt>
<pdfrwt beam="2">  1       -2 0.92760692E-01 0.26522530E+04</pdfrwt>
<totfact> 0.17022464E+00</totfact>
</mgrwt>
</event>
<event>
 6    1  0.5196787E-004  0.3096894E+04  0.7818608E-02  0.8216591E-01
         -2   -1    0    0    0  501 -0.00000000000E+00  0.00000000000E+00  0.85775831751E+03  0.85775831751E+03  0.00000000000E+00 0. -1.
          2   -1    0    0  501    0  0.00000000000E+00 -0.00000000000E+00 -0.27952963536E+04  0.27952963536E+04  0.00000000000E+00 0.  1.
         23    2    1    2    0    0 -0.54955558976E+03  0.38815654060E+03 -0.26129500877E+04  0.26997140784E+04  0.90945575854E+02 0.  0.
         13    1    3    3    0    0 -0.36856270781E+03  0.30849855875E+03 -0.18010247291E+04  0.18640546948E+04  0.00000000000E+00 0. -1.
        -13    1    3    3    0    0 -0.18099288195E+03  0.79657981850E+02 -0.81192535863E+03  0.83565938359E+03  0.00000000000E+00 0.  1.
         22    1    1    2    0    0  0.54955558976E+03 -0.38815654060E+03  0.67541205164E+03  0.95334059273E+03  0.00000000000E+00 0. -1.
<mgrwt>
<rscale>  0 0.30968944E+04</rscale>
<asrwt>0</asrwt>
<pdfrwt beam="1">  1        2 0.43004560E+00 0.30968944E+04</pdfrwt>
<pdfrwt beam="2">  1       -2 0.13196282E+00 0.30968944E+04</pdfrwt>
<totfact> 0.82604535E-01</totfact>
</mgrwt>
</event>
<event>
 6    1  0.5196787E-004  0.5142905E+04  0.7818608E-02  0.7806833E-01
          2   -1    0    0  501    0  0.00000000000E+00  0.00000000000E+00  0.38396324913E+04  0.38396324913E+04  0.00000000000E+00 0. -1.
         -2   -1    0    0    0  501 -0.00000000000E+00 -0.00000000000E+00 -0.17221357005E+04  0.17221357005E+04  0.00000000000E+00 0.  1.
         23    2    1    2    0    0  0.14417335664E+04  0.21277600762E+04  0.10052754546E+04  0.27612334359E+04  0.88728403625E+02 0.  0.
         11    1    3    3    0    0  0.24628438738E+03  0.30713287172E+03  0.14900745540E+03  0.42093921428E+03  0.00000000000E+00 0. -1.
        -11    1    3    3    0    0  0.11954491790E+04  0.18206272045E+04  0.85626799919E+03  0.23402942216E+04  0.00000000000E+00 0.  1.
         22    1    1    2    0    0 -0.14417335664E+04 -0.21277600762E+04  0.11122213362E+04  0.28005347559E+04  0.00000000000E+00 0.  1.
<mgrwt>
<rscale>  0 0.51429051E+04</rscale>
<asrwt>0</asrwt>
<pdfrwt beam="1">  1        2 0.59071269E+00 0.51429051E+04</pdfrwt>
<pdfrwt beam="2">  1       -2 0.26494395E+00 0.51429051E+04</pdfrwt>
<totfact> 0.17092671E-02</totfact>
</mgrwt>
</event>
<event>
 6    1  0.5196787E-004  0.2207643E+04  0.7818608E-02  0.8515253E-01
          1   -1    0    0  501    0  0.00000000000E+00  0.00000000000E+00  0.75449577029E+03  0.75449577029E+03  0.00000000000E+00 0.  1.
         -1   -1    0    0    0  501 -0.00000000000E+00 -0.00000000000E+00 -0.16148830174E+04  0.16148830174E+04  0.00000000000E+00 0. -1.
         23    2    1    2    0    0  0.91987260479E+03 -0.20956908948E+03  0.18012780095E+03  0.96483032730E+03  0.91469795480E+02 0.  0.
         11    1    3    3    0    0  0.19587342966E+03 -0.34042041736E+02  0.74955470621E+02  0.21247019469E+03  0.00000000000E+00 0.  1.
        -11    1    3    3    0    0  0.72399917513E+03 -0.17552704774E+03  0.10517233033E+03  0.75236013261E+03  0.00000000000E+00 0. -1.
         22    1    1    2    0    0 -0.91987260479E+03  0.20956908948E+03 -0.10405150480E+04  0.14045484603E+04  0.00000000000E+00 0. -1.
<mgrwt>
<rscale>  0 0.22076435E+04</rscale>
<asrwt>0</asrwt>
<pdfrwt beam="1">  1        1 0.11607627E+00 0.22076435E+04</pdfrwt>
<pdfrwt beam="2">  1       -1 0.24844354E+00 0.22076435E+04</pdfrwt>
<totfact> 0.15778012E+00</totfact>
</mgrwt>
</event>
<event>
 6    1  0.5196787E-004  0.2853076E+03  0.7818608E-02  0.1092825E+00
          2   -1    0    0  501    0  0.00000000000E+00  0.00000000000E+00  0.51671545925E+02  0.51671545925E+02  0.00000000000E+00 0.  1.
         -2   -1    0    0    0  501 -0.00000000000E+00 -0.00000000000E+00 -0.39383574858E+03  0.39383574858E+03  0.00000000000E+00 0. -1.
         23    2    1    2    0    0 -0.17078298792E+02  0.11949951228E+03 -0.17327682160E+03  0.23791454607E+03  0.10957496338E+03 0.  0.
         11    1    3    3    0    0 -0.52759452177E+02  0.11284255303E+03 -0.11668014740E+03  0.17067881640E+03  0.00000000000E+00 0. -1.
        -11    1    3    3    0    0  0.35681153384E+02  0.66569592489E+01 -0.56596674206E+02  0.67235729672E+02  0.00000000000E+00 0.  1.
         22    1    1    2    0    0  0.17078298792E+02 -0.11949951228E+03 -0.16888738105E+03  0.20759274844E+03  0.00000000000E+00 0. -1.
<mgrwt>
<rscale>  0 0.28530757E+03</rscale>
<asrwt>0</asrwt>
<pdfrwt beam="1">  1        2 0.79494686E-02 0.28530757E+03</pdfrwt>
<pdfrwt beam="2">  1       -2 0.60590115E-01 0.28530757E+03</pdfrwt>
<totfact> 0.22187900E+03</totfact>
</mgrwt>
</event>
<event>
 6    1  0.5196787E-004  0.3674741E+04  0.7818608E-02  0.8073583E-01
          2   -1    0    0  501    0  0.00000000000E+00  0.00000000000E+00  0.39891820803E+04  0.39891820803E+04  0.00000000000E+00 0.  1.
         -2   -1    0    0    0  501 -0.00000000000E+00 -0.00000000000E+00 -0.84627115857E+03  0.84627115857E+03  0.00000000000E+00 0. -1.
         23    2    1    2    0    0  0.29111033339E+03  0.13511917790E+04 -0.18234585827E+02  0.13853365206E+04  0.91434814542E+02 0.  0.
         11    1    3    3    0    0  0.13684388869E+03  0.55284636933E+03 -0.49051856646E+02  0.57163925915E+03  0.00000000000E+00 0. -1.
        -11    1    3    3    0    0  0.15426644469E+03  0.79834540967E+03  0.30817270819E+02  0.81369726145E+03  0.00000000000E+00 0.  1.
         22    1    1    2    0    0 -0.29111033339E+03 -0.13511917790E+04  0.31611455076E+04  0.34501167183E+04  0.00000000000E+00 0.  1.
<mgrwt>
<rscale>  0 0.36747407E+04</rscale>
<asrwt>0</asrwt>
<pdfrwt beam="1">  1        2 0.61372031E+00 0.36747407E+04</pdfrwt>
<pdfrwt beam="2">  1       -2 0.13019557E+00 0.36747407E+04</pdfrwt>
<totfact> 0.12197119E-01</totfact>
</mgrwt>
</event>
<event>
 6    1  0.5196787E-004  0.2409035E+04  0.7818608E-02  0.8436129E-01
          1   -1    0    0  501    0  0.00000000000E+00  0.00000000000E+00  0.25856543193E+04  0.25856543193E+04  0.00000000000E+00 0.  1.
         -1   -1    0    0    0  501 -0.00000000000E+00 -0.00000000000E+00 -0.56112019655E+03  0.56112019655E+03  0.00000000000E+00 0. -1.
         23    2    1    2    0    0 -0.31260794500E+03 -0.24163012205E+03  0.24976774585E+04  0.25303546432E+04  0.90515690958E+02 0.  0.
         11    1    3    3    0    0 -0.14273142993E+03 -0.58676123704E+02  0.85544272153E+03  0.86925105602E+03  0.00000000000E+00 0.  1.
        -11    1    3    3    0    0 -0.16987651507E+03 -0.18295399835E+03  0.16422347370E+04  0.16611035872E+04  0.00000000000E+00 0. -1.
         22    1    1    2    0    0  0.31260794500E+03  0.24163012205E+03 -0.47314333581E+03  0.61641987264E+03  0.00000000000E+00 0. -1.
<mgrwt>
<rscale>  0 0.24090354E+04</rscale>
<asrwt>0</asrwt>
<pdfrwt beam="1">  1        1 0.39779296E+00 0.24090354E+04</pdfrwt>
<pdfrwt beam="2">  1       -1 0.86326186E-01 0.24090354E+04</pdfrwt>
<totfact> 0.13993304E+00</totfact>
</mgrwt>
</event>
<event>
 6    1  0.5196787E-004  0.1610432E+04  0.7818608E-02  0.8814165E-01
         -1   -1    0    0    0  501 -0.00000000000E+00  0.00000000000E+00  0.25842490911E+03  0.25842490911E+03  0.00000000000E+00 0. -1.
          1   -1    0    0  501    0  0.00000000000E+00 -0.00000000000E+00 -0.25089397851E+04  0.25089397851E+04  0.00000000000E+00 0.  1.
         23    2    1    2    0    0  0.69825942895E+03  0.31401450309E+03 -0.15419040901E+04  0.17241482334E+04  0.95118712011E+02 0.  0.
         13    1    3    3    0    0  0.19820357617E+02 -0.12842282086E+01 -0.19389751490E+02  0.27757130273E+02  0.00000000000E+00 0.  1.
        -13    1    3    3    0    0  0.67843907134E+03  0.31529873130E+03 -0.15225143386E+04  0.16963911031E+04  0.00000000000E+00 0. -1.
         22    1    1    2    0    0 -0.69825942895E+03 -0.31401450309E+03 -0.70861078592E+03  0.10432164609E+04  0.00000000000E+00 0. -1.
<mgrwt>
<rscale>  0 0.16104317E+04</rscale>
<asrwt>0</asrwt>
<pdfrwt beam="1">  1        1 0.38599071E+00 0.16104317E+04</pdfrwt>
<pdfrwt beam="2">  1       -1 0.39757681E-01 0.16104317E+04</pdfrwt>
<totfact> 0.79018208E+00</totfact>
</mgrwt>
</event>
<event>
 6    1  0.5196787E-004  0.1530102E+04  0.7818608E-02  0.8864679E-01
         -2   -1    0    0    0  501 -0.00000000000E+00  0.00000000000E+00  0.60393521622E+03  0.60393521622E+03  0.00000000000E+00 0. -1.
          2   -1    0    0  501    0  0.00000000000E+00 -0.00000000000E+00 -0.96914850766E+03  0.96914850766E+03  0.00000000000E+00 0.  1.
         23    2    1    2    0    0 -0.20896554980E+03 -0.72263171775E+03 -0.31069152081E+03  0.81887166884E+03  0.90323797637E+02 0.  0.
         13    1    3    3    0    0 -0.11246563277E+03 -0.24628457661E+03 -0.92445341010E+02  0.28609570480E+03  0.00000000000E+00 0. -1.
        -13    1    3    3    0    0 -0.96499917029E+02 -0.47634714114E+03 -0.21824617980E+03  0.53277596404E+03  0.00000000000E+00 0.  1.
         22    1    1    2    0    0  0.20896554980E+03  0.72263171775E+03 -0.54521770630E+02  0.75421205504E+03  0.00000000000E+00 0. -1.
<mgrwt>
<rscale>  0 0.15301018E+04</rscale>
<asrwt>0</asrwt>
<pdfrwt beam="1">  1        2 0.14909977E+00 0.15301018E+04</pdfrwt>
<pdfrwt beam="2">  1       -2 0.92913110E-01 0.15301018E+04</pdfrwt>
<totfact> 0.24964003E+01</totfact>
</mgrwt>
</event>
<event>
 6    1  0.5196787E-004  0.2450830E+04  0.7818608E-02  0.8420715E-01
         -1   -1    0    0    0  501 -0.00000000000E+00  0.00000000000E+00  0.27164048577E+04  0.27164048577E+04  0.00000000000E+00 0. -1.
          1   -1    0    0  501    0  0.00000000000E+00 -0.00000000000E+00 -0.55280479186E+03  0.55280479186E+03  0.00000000000E+00 0.  1.
         23    2    1    2    0    0 -0.25329280346E+03  0.41989417555E+03  0.25788616120E+04  0.26266285149E+04  0.90453182011E+02 0.  0.
         13    1    3    3    0    0 -0.19088433388E+02  0.98705751748E+02  0.47050010003E+03  0.48112112596E+03  0.00000000000E+00 0. -1.
        -13    1    3    3    0    0 -0.23420437008E+03  0.32118842381E+03  0.21083615120E+04  0.21455073889E+04  0.00000000000E+00 0.  1.
         22    1    1    2    0    0  0.25329280346E+03 -0.41989417555E+03 -0.41526154618E+03  0.64258113471E+03  0.00000000000E+00 0.  1.
<mgrwt>
<rscale>  0 0.24508298E+04</rscale>
<asrwt>0</asrwt>
<pdfrwt beam="1">  1        1 0.85046893E-01 0.24508298E+04</pdfrwt>
<pdfrwt beam="2">  1       -1 0.41790843E+00 0.24508298E+04</pdfrwt>
<totfact> 0.18518991E-01</totfact>
</mgrwt>
</event>
<event>
 6    1  0.5196787E-004  0.3524857E+04  0.7818608E-02  0.8107924E-01
          2   -1    0    0  501    0  0.00000000000E+00  0.00000000000E+00  0.20203075792E+04  0.20203075792E+04  0.00000000000E+00 0.  1.
         -2   -1    0    0    0  501 -0.00000000000E+00 -0.00000000000E+00 -0.15374661882E+04  0.15374661882E+04  0.00000000000E+00 0. -1.
         23    2    1    2    0    0  0.51041260442E+03  0.92728685356E+03  0.16625988226E+04  0.19727786465E+04  0.85081183840E+02 0.  0.
         13    1    3    3    0    0  0.40648082217E+03  0.76529710473E+03  0.14136864126E+04  0.16581361797E+04  0.00000000000E+00 0. -1.
        -13    1    3    3    0    0  0.10393178225E+03  0.16198974883E+03  0.24891241001E+03  0.31464246685E+03  0.00000000000E+00 0.  1.
         22    1    1    2    0    0 -0.51041260442E+03 -0.92728685356E+03 -0.11797574316E+04  0.15849951208E+04  0.00000000000E+00 0. -1.
<mgrwt>
<rscale>  0 0.35248572E+04</rscale>
<asrwt>0</asrwt>
<pdfrwt beam="1">  1        2 0.31081655E+00 0.35248572E+04</pdfrwt>
<pdfrwt beam="2">  1       -2 0.23653326E+00 0.35248572E+04</pdfrwt>
<totfact> 0.41553385E-01</totfact>
</mgrwt>
</event>
<event>
 6    1  0.5196787E-004  0.1638394E+04  0.7818608E-02  0.8797302E-01
          2   -1    0    0  501    0  0.00000000000E+00  0.00000000000E+00  0.10913669349E+04  0.10913669349E+04  0.00000000000E+00 0.  1.
         -2   -1    0    0    0  501 -0.00000000000E+00 -0.00000000000E+00 -0.61490193272E+03  0.61490193272E+03  0.00000000000E+00 0. -1.
         23    2    1    2    0    0  0.78913535238E+03  0.19749617809E+03  0.31401127807E+03  0.87673251689E+03  0.91200212134E+02 0.  0.
         13    1    3    3    0    0  0.49898829738E+03  0.14034008835E+03  0.15530492624E+03  0.54111392648E+03  0.00000000000E+00 0.  1.
        -13    1    3    3    0    0  0.29014705500E+03  0.57156089742E+02  0.15870635183E+03  0.33561859041E+03  0.00000000000E+00 0. -1.
         22    1    1    2    0    0 -0.78913535238E+03 -0.19749617809E+03  0.16245372413E+03  0.82953635075E+03  0.00000000000E+00 0.  1.
<mgrwt>
<rscale>  0 0.16383939E+04</rscale>
<asrwt>0</asrwt>
<pdfrwt beam="1">  1        2 0.16790260E+00 0.16383939E+04</pdfrwt>
<pdfrwt beam="2">  1       -2 0.94600298E-01 0.16383939E+04</pdfrwt>
<totfact> 0.19852606E+01</totfact>
</mgrwt>
</event>
<event>
 6    1  0.5196787E-004  0.1042608E+04  0.7818608E-02  0.9263010E-01
          4   -1    0    0  501    0  0.00000000000E+00  0.00000000000E+00  0.13978631942E+04  0.13978631942E+04  0.00000000000E+00 0.  1.
         -4   -1    0    0    0  501 -0.00000000000E+00 -0.00000000000E+00 -0.19440929885E+03  0.19440929885E+03  0.00000000000E+00 0. -1.
         23    2    1    2    0    0  0.28605137510E+03  0.38245244756E+03  0.91075885191E+03  0.10321246087E+04  0.87773901640E+02 0.  0.
         13    1    3    3    0    0  0.10643718822E+03  0.15297643633E+03  0.26839966974E+03  0.32675533328E+03  0.00000000000E+00 0. -1.
        -13    1    3    3    0    0  0.17961418688E+03  0.22947601123E+03  0.64235918218E+03  0.70536927547E+03  0.00000000000E+00 0.  1.
         22    1    1    2    0    0 -0.28605137510E+03 -0.38245244756E+03  0.29269504343E+03  0.56014788430E+03  0.00000000000E+00 0. -1.
<mgrwt>
<rscale>  0 0.10426075E+04</rscale>
<asrwt>0</asrwt>
<pdfrwt beam="1">  1        4 0.21505587E+00 0.10426075E+04</pdfrwt>
<pdfrwt beam="2">  1       -4 0.29909124E-01 0.10426075E+04</pdfrwt>
<totfact> 0.22633716E+00</totfact>
</mgrwt>
</event>
<event>
 6    1  0.5196787E-004  0.4061541E+04  0.7818608E-02  0.7992245E-01
          2   -1    0    0  501    0  0.00000000000E+00  0.00000000000E+00  0.15152655507E+04  0.15152655507E+04  0.00000000000E+00 0.  1.
         -2   -1    0    0    0  501 -0.00000000000E+00 -0.00000000000E+00 -0.27216547729E+04  0.27216547729E+04  0.00000000000E+00 0. -1.
         23    2    1    2    0    0  0.18873890799E+04 -0.41844356412E+03 -0.12487075096E+04  0.23032390178E+04  0.91142598728E+02 0.  0.
         13    1    3    3    0    0  0.69084791485E+03 -0.12507665573E+03 -0.41283283158E+03  0.81446053194E+03  0.00000000000E+00 0. -1.
        -13    1    3    3    0    0  0.11965411650E+04 -0.29336690839E+03 -0.83587467798E+03  0.14887784858E+04  0.00000000000E+00 0.  1.
         22    1    1    2    0    0 -0.18873890799E+04  0.41844356412E+03  0.42318287320E+02  0.19336813059E+04  0.00000000000E+00 0.  1.
<mgrwt>
<rscale>  0 0.40615414E+04</rscale>
<asrwt>0</asrwt>
<pdfrwt beam="1">  1        2 0.23311778E+00 0.40615414E+04</pdfrwt>
<pdfrwt beam="2">  1       -2 0.41871611E+00 0.40615414E+04</pdfrwt>
<totfact> 0.54598719E-02</totfact>
</mgrwt>
</event>
<event>
 6    1  0.5196787E-004  0.1533025E+04  0.7818608E-02  0.8862784E-01
         -2   -1    0    0    0  501 -0.00000000000E+00  0.00000000000E+00  0.15287984762E+03  0.15287984762E+03  0.00000000000E+00 0. -1.
          2   -1    0    0  501    0  0.00000000000E+00 -0.00000000000E+00 -0.38431595331E+04  0.38431595331E+04  0.00000000000E+00 0.  1.
         23    2    1    2    0    0  0.69277815750E+03 -0.31885485676E+03 -0.17928644691E+04  0.19510957388E+04  0.10393066101E+03 0.  0.
         13    1    3    3    0    0  0.59563436996E+03 -0.31019957403E+03 -0.15898443662E+04  0.17258647651E+04  0.00000000000E+00 0. -1.
        -13    1    3    3    0    0  0.97143787532E+02 -0.86552827248E+01 -0.20302010284E+03  0.22523097374E+03  0.00000000000E+00 0.  1.
         22    1    1    2    0    0 -0.69277815750E+03  0.31885485676E+03 -0.18974152164E+04  0.20449436419E+04  0.00000000000E+00 0.  1.
<mgrwt>
<rscale>  0 0.15330253E+04</rscale>
<asrwt>0</asrwt>
<pdfrwt beam="1">  1        2 0.59125528E+00 0.15330253E+04</pdfrwt>
<pdfrwt beam="2">  1       -2 0.23519978E-01 0.15330253E+04</pdfrwt>
<totfact> 0.71638738E+00</totfact>
</mgrwt>
</event>
<event>
 6    1  0.5196787E-004  0.4395696E+04  0.7818608E-02  0.7929156E-01
         -2   -1    0    0    0  501 -0.00000000000E+00  0.00000000000E+00  0.11989921374E+04  0.11989921374E+04  0.00000000000E+00 0. -1.
          2   -1    0    0  501    0  0.00000000000E+00 -0.00000000000E+00 -0.40288310388E+04  0.40288310388E+04  0.00000000000E+00 0.  1.
         23    2    1    2    0    0  0.11466961332E+04  0.71018838500E+01 -0.36441720067E+04  0.38213734383E+04  0.89122846599E+02 0.  0.
         13    1    3    3    0    0  0.99232640614E+03  0.12165580823E+02 -0.30463012871E+04  0.32038744091E+04  0.00000000000E+00 0. -1.
        -13    1    3    3    0    0  0.15436972709E+03 -0.50636969733E+01 -0.59787071960E+03  0.61749902917E+03  0.00000000000E+00 0.  1.
         22    1    1    2    0    0 -0.11466961332E+04 -0.71018838500E+01  0.81433310532E+03  0.14064497379E+04  0.00000000000E+00 0. -1.
<mgrwt>
<rscale>  0 0.43956964E+04</rscale>
<asrwt>0</asrwt>
<pdfrwt beam="1">  1        2 0.61982016E+00 0.43956964E+04</pdfrwt>
<pdfrwt beam="2">  1       -2 0.18446033E+00 0.43956964E+04</pdfrwt>
<totfact> 0.41670419E-02</totfact>
</mgrwt>
</event>
<event>
 6    1  0.5196787E-004  0.3415492E+04  0.7818608E-02  0.8134114E-01
         -2   -1    0    0    0  501 -0.00000000000E+00  0.00000000000E+00  0.10319057991E+04  0.10319057991E+04  0.00000000000E+00 0. -1.
          2   -1    0    0  501    0  0.00000000000E+00 -0.00000000000E+00 -0.28262240363E+04  0.28262240363E+04  0.00000000000E+00 0.  1.
         23    2    1    2    0    0  0.80909381529E+02 -0.13518029322E+04 -0.20709650748E+04  0.24759391942E+04  0.86377409345E+02 0.  0.
         11    1    3    3    0    0  0.90469109777E+02 -0.83979093243E+03 -0.12674495542E+04  0.15231092681E+04  0.00000000000E+00 0. -1.
        -11    1    3    3    0    0 -0.95597282474E+01 -0.51201199981E+03 -0.80351552059E+03  0.95282992616E+03  0.00000000000E+00 0.  1.
         22    1    1    2    0    0 -0.80909381529E+02  0.13518029322E+04  0.27664683762E+03  0.13821906411E+04  0.00000000000E+00 0.  1.
<mgrwt>
<rscale>  0 0.34154923E+04</rscale>
<asrwt>0</asrwt>
<pdfrwt beam="1">  1        2 0.43480369E+00 0.34154923E+04</pdfrwt>
<pdfrwt beam="2">  1       -2 0.15875474E+00 0.34154923E+04</pdfrwt>
<totfact> 0.47435378E-01</totfact>
</mgrwt>
</event>
<event>
 6    1  0.5196787E-004  0.2803510E+04  0.7818608E-02  0.8302179E-01
          2   -1    0    0  501    0  0.00000000000E+00  0.00000000000E+00  0.26096872158E+04  0.26096872158E+04  0.00000000000E+00 0.  1.
         -2   -1    0    0    0  501 -0.00000000000E+00 -0.00000000000E+00 -0.75293227239E+03  0.75293227239E+03  0.00000000000E+00 0. -1.
         23    2    1    2    0    0  0.76970606675E+03 -0.10826305899E+04  0.40114964052E+03  0.13920045534E+04  0.11054057799E+03 0.  0.
         13    1    3    3    0    0  0.91173158187E+02 -0.15199742167E+03  0.91017856331E+02  0.19924861640E+03  0.00000000000E+00 0. -1.
        -13    1    3    3    0    0  0.67853290856E+03 -0.93063316819E+03  0.31013178418E+03  0.11927559370E+04  0.00000000000E+00 0.  1.
         22    1    1    2    0    0 -0.76970606675E+03  0.10826305899E+04  0.14556053029E+04  0.19706149347E+04  0.00000000000E+00 0.  1.
<mgrwt>
<rscale>  0 0.28035105E+04</rscale>
<asrwt>0</asrwt>
<pdfrwt beam="1">  1        2 0.40149034E+00 0.28035105E+04</pdfrwt>
<pdfrwt beam="2">  1       -2 0.11583574E+00 0.28035105E+04</pdfrwt>
<totfact> 0.15131695E+00</totfact>
</mgrwt>
</event>
<event>
 6    1  0.5196787E-004  0.2971074E+04  0.7818608E-02  0.8252040E-01
         -2   -1    0    0    0  501 -0.00000000000E+00  0.00000000000E+00  0.77587980846E+03  0.77587980846E+03  0.00000000000E+00 0. -1.
          2   -1    0    0  501    0  0.00000000000E+00 -0.00000000000E+00 -0.28442804056E+04  0.28442804056E+04  0.00000000000E+00 0.  1.
         23    2    1    2    0    0 -0.83820080150E+03 -0.67664483140E+03  0.20874641128E+03  0.11010676573E+04  0.91357048365E+02 0.  0.
         11    1    3    3    0    0 -0.57006368725E+03 -0.40913185134E+03  0.15377676608E+03  0.71833750639E+03  0.00000000000E+00 0.  1.
        -11    1    3    3    0    0 -0.26813711425E+03 -0.26751298006E+03  0.54969645199E+02  0.38273015093E+03  0.00000000000E+00 0. -1.
         22    1    1    2    0    0  0.83820080150E+03  0.67664483140E+03 -0.22771470084E+04  0.25190925567E+04  0.00000000000E+00 0.  1.
<mgrwt>
<rscale>  0 0.29710737E+04</rscale>
<asrwt>0</asrwt>
<pdfrwt beam="1">  1        2 0.43758160E+00 0.29710737E+04</pdfrwt>
<pdfrwt beam="2">  1       -2 0.11936613E+00 0.29710737E+04</pdfrwt>
<totfact> 0.10029408E+00</totfact>
</mgrwt>
</event>
<event>
 6    1  0.5196787E-004  0.3092812E+04  0.7818608E-02  0.8217713E-01
         -2   -1    0    0    0  501 -0.00000000000E+00  0.00000000000E+00  0.54500352411E+03  0.54500352411E+03  0.00000000000E+00 0. -1.
          2   -1    0    0  501    0  0.00000000000E+00 -0.00000000000E+00 -0.43878090784E+04  0.43878090784E+04  0.00000000000E+00 0.  1.
         23    2    1    2    0    0 -0.11211353959E+04  0.43950364046E+03 -0.34670521081E+04  0.36713457269E+04  0.90670284477E+02 0.  0.
         13    1    3    3    0    0 -0.13127792143E+03  0.42706496758E+02 -0.48886132596E+03  0.50797946173E+03  0.00000000000E+00 0.  1.
        -13    1    3    3    0    0 -0.98985747446E+03  0.39679714370E+03 -0.29781907821E+04  0.31633662652E+04  0.00000000000E+00 0. -1.
         22    1    1    2    0    0  0.11211353959E+04 -0.43950364046E+03 -0.37575344621E+03  0.12614668756E+04  0.00000000000E+00 0. -1.
<mgrwt>
<rscale>  0 0.30928119E+04</rscale>
<asrwt>0</asrwt>
<pdfrwt beam="1">  1        2 0.67504753E+00 0.30928119E+04</pdfrwt>
<pdfrwt beam="2">  1       -2 0.83846698E-01 0.30928119E+04</pdfrwt>
<totfact> 0.16611816E-01</totfact>
</mgrwt>
</event>
<event>
 6    1  0.5196787E-004  0.1934912E+04  0.7818608E-02  0.8637671E-01
         -2   -1    0    0    0  501 -0.00000000000E+00  0.00000000000E+00  0.53534195452E+03  0.53534195452E+03  0.00000000000E+00 0. -1.
          2   -1    0    0  501    0  0.00000000000E+00 -0.00000000000E+00 -0.17483616958E+04  0.17483616958E+04  0.00000000000E+00 0.  1.
         23    2    1    2    0    0 -0.55878397175E+03 -0.62749265743E+03 -0.46893643997E+02  0.84640179025E+03  0.90611337443E+02 0.  0.
         11    1    3    3    0    0 -0.12841988233E+03 -0.10149195436E+03  0.12661745341E+02  0.16417247873E+03  0.00000000000E+00 0.  1.
        -11    1    3    3    0    0 -0.43036408942E+03 -0.52600070307E+03 -0.59555389338E+02  0.68222931151E+03  0.00000000000E+00 0. -1.
         22    1    1    2    0    0  0.55878397175E+03  0.62749265743E+03 -0.11661260973E+04  0.14373018601E+04  0.00000000000E+00 0.  1.
<mgrwt>
<rscale>  0 0.19349123E+04</rscale>
<asrwt>0</asrwt>
<pdfrwt beam="1">  1        2 0.26897872E+00 0.19349123E+04</pdfrwt>
<pdfrwt beam="2">  1       -2 0.82360302E-01 0.19349123E+04</pdfrwt>
<totfact> 0.11143244E+01</totfact>
</mgrwt>
</event>
<event>
 6    1  0.5196787E-004  0.1967715E+04  0.7818608E-02  0.8621865E-01
          2   -1    0    0  501    0  0.00000000000E+00  0.00000000000E+00  0.15556678232E+04  0.15556678232E+04  0.00000000000E+00 0.  1.
         -2   -1    0    0    0  501 -0.00000000000E+00 -0.00000000000E+00 -0.62222512583E+03  0.62222512583E+03  0.00000000000E+00 0. -1.
         23    2    1    2    0    0 -0.54834848572E+03 -0.76178268128E+02  0.13649830068E+04  0.14759554668E+04  0.93684260506E+02 0.  0.
         13    1    3    3    0    0 -0.36780969457E+03 -0.88362967399E+02  0.85943686830E+03  0.93900144623E+03  0.00000000000E+00 0. -1.
        -13    1    3    3    0    0 -0.18053879114E+03  0.12184699270E+02  0.50554613854E+03  0.53695402056E+03  0.00000000000E+00 0.  1.
         22    1    1    2    0    0  0.54834848572E+03  0.76178268128E+02 -0.43154030945E+03  0.70193748226E+03  0.00000000000E+00 0. -1.
<mgrwt>
<rscale>  0 0.19677150E+04</rscale>
<asrwt>0</asrwt>
<pdfrwt beam="1">  1        2 0.23933351E+00 0.19677150E+04</pdfrwt>
<pdfrwt beam="2">  1       -2 0.95726943E-01 0.19677150E+04</pdfrwt>
<totfact> 0.10071467E+01</totfact>
</mgrwt>
</event>
<event>
 6    1  0.5196787E-004  0.3340604E+04  0.7818608E-02  0.8152640E-01
          2   -1    0    0  501    0  0.00000000000E+00  0.00000000000E+00  0.22911409463E+04  0.22911409463E+04  0.00000000000E+00 0.  1.
         -2   -1    0    0    0  501 -0.00000000000E+00 -0.00000000000E+00 -0.12176942229E+04  0.12176942229E+04  0.00000000000E+00 0. -1.
         23    2    1    2    0    0  0.47550428819E+03  0.36415671092E+03 -0.10992299194E+04  0.12551186315E+04  0.91114900778E+02 0.  0.
         11    1    3    3    0    0  0.24119375221E+03  0.17454011114E+03 -0.45340712166E+03  0.54241745406E+03  0.00000000000E+00 0.  1.
        -11    1    3    3    0    0  0.23431053598E+03  0.18961659979E+03 -0.64582279774E+03  0.71270117740E+03  0.00000000000E+00 0. -1.
         22    1    1    2    0    0 -0.47550428819E+03 -0.36415671092E+03  0.21726766429E+04  0.22537165378E+04  0.00000000000E+00 0.  1.
<mgrwt>
<rscale>  0 0.33406042E+04</rscale>
<asrwt>0</asrwt>
<pdfrwt beam="1">  1        2 0.35248322E+00 0.33406042E+04</pdfrwt>
<pdfrwt beam="2">  1       -2 0.18733757E+00 0.33406042E+04</pdfrwt>
<totfact> 0.61673918E-01</totfact>
</mgrwt>
</event>
<event>
 6    1  0.5196787E-004  0.1454436E+04  0.7818608E-02  0.8915331E-01
          2   -1    0    0  501    0  0.00000000000E+00  0.00000000000E+00  0.90370242461E+03  0.90370242461E+03  0.00000000000E+00 0.  1.
         -2   -1    0    0    0  501 -0.00000000000E+00 -0.00000000000E+00 -0.58519926536E+03  0.58519926536E+03  0.00000000000E+00 0. -1.
         23    2    1    2    0    0 -0.52345450662E+03  0.33497673118E+03  0.54080372238E+03  0.82887777275E+03  0.91409327122E+02 0.  0.
         13    1    3    3    0    0 -0.12885665401E+03  0.12067835110E+03  0.18733523847E+03  0.25741366179E+03  0.00000000000E+00 0.  1.
        -13    1    3    3    0    0 -0.39459785261E+03  0.21429838008E+03  0.35346848391E+03  0.57146411096E+03  0.00000000000E+00 0. -1.
         22    1    1    2    0    0  0.52345450662E+03 -0.33497673118E+03 -0.22230056312E+03  0.66002391722E+03  0.00000000000E+00 0. -1.
<mgrwt>
<rscale>  0 0.14544360E+04</rscale>
<asrwt>0</asrwt>
<pdfrwt beam="1">  1        2 0.13903114E+00 0.14544360E+04</pdfrwt>
<pdfrwt beam="2">  1       -2 0.90030656E-01 0.14544360E+04</pdfrwt>
<totfact> 0.29853049E+01</totfact>
</mgrwt>
</event>
<event>
 6    1  0.5196787E-004  0.1366683E+04  0.7818608E-02  0.8978294E-01
          2   -1    0    0  501    0  0.00000000000E+00  0.00000000000E+00  0.32615474097E+03  0.32615474097E+03  0.00000000000E+00 0.  1.
         -2   -1    0    0    0  501 -0.00000000000E+00 -0.00000000000E+00 -0.14316996852E+04  0.14316996852E+04  0.00000000000E+00 0. -1.
         23    2    1    2    0    0  0.91695221315E+02 -0.17967045987E+03 -0.13908827312E+04  0.14084161048E+04  0.91606029461E+02 0.  0.
         11    1    3    3    0    0  0.72324002213E+02 -0.17914107970E+03 -0.10959252857E+04  0.11128227710E+04  0.00000000000E+00 0.  1.
        -11    1    3    3    0    0  0.19371219102E+02 -0.52938017065E+00 -0.29495744543E+03  0.29559333380E+03  0.00000000000E+00 0. -1.
         22    1    1    2    0    0 -0.91695221315E+02  0.17967045987E+03  0.28533778695E+03  0.34943832135E+03  0.00000000000E+00 0.  1.
<mgrwt>
<rscale>  0 0.13666831E+04</rscale>
<asrwt>0</asrwt>
<pdfrwt beam="1">  1        2 0.50177654E-01 0.13666831E+04</pdfrwt>
<pdfrwt beam="2">  1       -2 0.22026149E+00 0.13666831E+04</pdfrwt>
<totfact> 0.96035822E+00</totfact>
</mgrwt>
</event>
<event>
 6    1  0.5196787E-004  0.7347014E+03  0.7818608E-02  0.9659662E-01
          2   -1    0    0  501    0  0.00000000000E+00  0.00000000000E+00  0.89656215963E+03  0.89656215963E+03  0.00000000000E+00 0.  1.
         -2   -1    0    0    0  501 -0.00000000000E+00 -0.00000000000E+00 -0.15051552592E+03  0.15051552592E+03  0.00000000000E+00 0. -1.
         23    2    1    2    0    0 -0.24343145352E+01 -0.15905659845E+03  0.84167345809E+03  0.86147214431E+03  0.91733952085E+02 0.  0.
         13    1    3    3    0    0  0.38709844005E+02 -0.40408191322E+02  0.32309867592E+03  0.32790856703E+03  0.00000000000E+00 0. -1.
        -13    1    3    3    0    0 -0.41144158541E+02 -0.11864840713E+03  0.51857478217E+03  0.53356357728E+03  0.00000000000E+00 0.  1.
         22    1    1    2    0    0  0.24343145352E+01  0.15905659845E+03 -0.95626824386E+02  0.18560554124E+03  0.00000000000E+00 0. -1.
<mgrwt>
<rscale>  0 0.73470137E+03</rscale>
<asrwt>0</asrwt>
<pdfrwt beam="1">  1        2 0.13793264E+00 0.73470137E+03</pdfrwt>
<pdfrwt beam="2">  1       -2 0.23156235E-01 0.73470137E+03</pdfrwt>
<totfact> 0.48791371E+02</totfact>
</mgrwt>
</event>
<event>
 6    1  0.5196787E-004  0.9030674E+03  0.7818608E-02  0.9421755E-01
         -2   -1    0    0    0  501 -0.00000000000E+00  0.00000000000E+00  0.86671406702E+02  0.86671406702E+02  0.00000000000E+00 0. -1.
          2   -1    0    0  501    0  0.00000000000E+00 -0.00000000000E+00 -0.23523636531E+04  0.23523636531E+04  0.00000000000E+00 0.  1.
         23    2    1    2    0    0  0.42228597609E+03 -0.35149098097E+02 -0.76012316109E+03  0.87497010740E+03  0.90689382646E+02 0.  0.
         13    1    3    3    0    0  0.16289353347E+03 -0.25083496843E+02 -0.21238470926E+03  0.26883219634E+03  0.00000000000E+00 0. -1.
        -13    1    3    3    0    0  0.25939244261E+03 -0.10065601254E+02 -0.54773845183E+03  0.60613791106E+03  0.00000000000E+00 0.  1.
         22    1    1    2    0    0 -0.42228597609E+03  0.35149098097E+02 -0.15055690853E+04  0.15640649524E+04  0.00000000000E+00 0.  1.
<mgrwt>
<rscale>  0 0.90306737E+03</rscale>
<asrwt>0</asrwt>
<pdfrwt beam="1">  1        2 0.36190210E+00 0.90306737E+03</pdfrwt>
<pdfrwt beam="2">  1       -2 0.13334063E-01 0.90306737E+03</pdfrwt>
<totfact> 0.18424048E+02</totfact>
</mgrwt>
</event>
<event>
 6    1  0.5196787E-004  0.2934948E+04  0.7818608E-02  0.8262555E-01
          2   -1    0    0  501    0  0.00000000000E+00  0.00000000000E+00  0.14699232719E+04  0.14699232719E+04  0.00000000000E+00 0.  1.
         -2   -1    0    0    0  501 -0.00000000000E+00 -0.00000000000E+00 -0.14650290513E+04  0.14650290513E+04  0.00000000000E+00 0. -1.
         23    2    1    2    0    0 -0.12962584311E+04 -0.60618750989E+03 -0.31623359636E+03  0.14683670743E+04  0.91372644523E+02 0.  0.
         13    1    3    3    0    0 -0.98493886218E+03 -0.50114610381E+03 -0.23233336693E+03  0.11292611624E+04  0.00000000000E+00 0.  1.
        -13    1    3    3    0    0 -0.31131956893E+03 -0.10504140608E+03 -0.83900229423E+02  0.33910591191E+03  0.00000000000E+00 0. -1.
         22    1    1    2    0    0  0.12962584311E+04  0.60618750989E+03  0.32112781690E+03  0.14665852489E+04  0.00000000000E+00 0.  1.
<mgrwt>
<rscale>  0 0.29349482E+04</rscale>
<asrwt>0</asrwt>
<pdfrwt beam="1">  1        2 0.22614204E+00 0.29349482E+04</pdfrwt>
<pdfrwt beam="2">  1       -2 0.22538908E+00 0.29349482E+04</pdfrwt>
<totfact> 0.10383299E+00</totfact>
</mgrwt>
</event>
<event>
 6    1  0.5196787E-004  0.1501029E+04  0.7818608E-02  0.8883769E-01
         -2   -1    0    0    0  501 -0.00000000000E+00  0.00000000000E+00  0.45827736804E+03  0.45827736804E+03  0.00000000000E+00 0. -1.
          2   -1    0    0  501    0  0.00000000000E+00 -0.00000000000E+00 -0.12291068085E+04  0.12291068085E+04  0.00000000000E+00 0.  1.
         23    2    1    2    0    0 -0.22282226010E+03  0.46631738270E+03 -0.99437979946E+03  0.11242887815E+04  0.90179917890E+02 0.  0.
         13    1    3    3    0    0 -0.12144556651E+03  0.15369960344E+03 -0.36110721003E+03  0.41081749094E+03  0.00000000000E+00 0. -1.
        -13    1    3    3    0    0 -0.10137669359E+03  0.31261777926E+03 -0.63327258943E+03  0.71347129054E+03  0.00000000000E+00 0.  1.
         22    1    1    2    0    0  0.22282226010E+03 -0.46631738270E+03  0.22355035895E+03  0.56309539511E+03  0.00000000000E+00 0. -1.
<mgrwt>
<rscale>  0 0.15010288E+04</rscale>
<asrwt>0</asrwt>
<pdfrwt beam="1">  1        2 0.18909335E+00 0.15010288E+04</pdfrwt>
<pdfrwt beam="2">  1       -2 0.70504211E-01 0.15010288E+04</pdfrwt>
<totfact> 0.32177093E+01</totfact>
</mgrwt>
</event>
<event>
 6    1  0.5196787E-004  0.1853471E+04  0.7818608E-02  0.8678370E-01
          2   -1    0    0  501    0  0.00000000000E+00  0.00000000000E+00  0.95062051450E+03  0.95062051450E+03  0.00000000000E+00 0.  1.
         -2   -1    0    0    0  501 -0.00000000000E+00 -0.00000000000E+00 -0.90345028846E+03  0.90345028846E+03  0.00000000000E+00 0. -1.
         23    2    1    2    0    0 -0.51765145080E+03  0.70784505208E+03 -0.26927505286E+03  0.92179120068E+03  0.90456184355E+02 0.  0.
         13    1    3    3    0    0 -0.17654368118E+03  0.21554977855E+03 -0.44882799929E+02  0.28221240959E+03  0.00000000000E+00 0.  1.
        -13    1    3    3    0    0 -0.34110776962E+03  0.49229527353E+03 -0.22439225293E+03  0.63957879109E+03  0.00000000000E+00 0. -1.
         22    1    1    2    0    0  0.51765145080E+03 -0.70784505208E+03  0.31644527890E+03  0.93227960227E+03  0.00000000000E+00 0.  1.
<mgrwt>
<rscale>  0 0.18534707E+04</rscale>
<asrwt>0</asrwt>
<pdfrwt beam="1">  1        2 0.14624931E+00 0.18534707E+04</pdfrwt>
<pdfrwt beam="2">  1       -2 0.13899235E+00 0.18534707E+04</pdfrwt>
<totfact> 0.93305142E+00</totfact>
</mgrwt>
</event>
<event>
 6    1  0.5196787E-004  0.2009274E+04  0.7818608E-02  0.8602297E-01
          2   -1    0    0  501    0  0.00000000000E+00  0.00000000000E+00  0.35947429659E+04  0.35947429659E+04  0.00000000000E+00 0.  1.
         -2   -1    0    0    0  501 -0.00000000000E+00 -0.00000000000E+00 -0.28076987677E+03  0.28076987677E+03  0.00000000000E+00 0. -1.
         23    2    1    2    0    0  0.88423232806E+03  0.45939807678E+03  0.14484192887E+04  0.17605177161E+04  0.92686514950E+02 0.  0.
         13    1    3    3    0    0  0.32641332487E+03  0.18666428148E+03  0.62206847723E+03  0.72688266109E+03  0.00000000000E+00 0.  1.
        -13    1    3    3    0    0  0.55781900319E+03  0.27273379531E+03  0.82635081143E+03  0.10336350550E+04  0.00000000000E+00 0. -1.
         22    1    1    2    0    0 -0.88423232806E+03 -0.45939807678E+03  0.18655538005E+04  0.21149951266E+04  0.00000000000E+00 0. -1.
<mgrwt>
<rscale>  0 0.20092740E+04</rscale>
<asrwt>0</asrwt>
<pdfrwt beam="1">  1        2 0.55303735E+00 0.20092740E+04</pdfrwt>
<pdfrwt beam="2">  1       -2 0.43195368E-01 0.20092740E+04</pdfrwt>
<totfact> 0.33063599E+00</totfact>
</mgrwt>
</event>
<event>
 6    1  0.5196787E-004  0.9744729E+03  0.7818608E-02  0.9336994E-01
         -2   -1    0    0    0  501 -0.00000000000E+00  0.00000000000E+00  0.85876497523E+02  0.85876497523E+02  0.00000000000E+00 0. -1.
          2   -1    0    0  501    0  0.00000000000E+00 -0.00000000000E+00 -0.27644273272E+04  0.27644273272E+04  0.00000000000E+00 0.  1.
         23    2    1    2    0    0 -0.25137232899E+03 -0.27585575242E+02 -0.25545829815E+04  0.25686710157E+04  0.90705929417E+02 0.  0.
         13    1    3    3    0    0 -0.69491258550E+02  0.31634662835E+02 -0.83426929399E+03  0.83775595599E+03  0.00000000000E+00 0.  1.
        -13    1    3    3    0    0 -0.18188107044E+03 -0.59220238077E+02 -0.17203136875E+04  0.17309150597E+04  0.00000000000E+00 0. -1.
         22    1    1    2    0    0  0.25137232899E+03  0.27585575242E+02 -0.12396784815E+03  0.28163280903E+03  0.00000000000E+00 0. -1.
<mgrwt>
<rscale>  0 0.97447286E+03</rscale>
<asrwt>0</asrwt>
<pdfrwt beam="1">  1        2 0.42529642E+00 0.97447286E+03</pdfrwt>
<pdfrwt beam="2">  1       -2 0.13211772E-01 0.97447286E+03</pdfrwt>
<totfact> 0.10770471E+02</totfact>
</mgrwt>
</event>
<event>
 6    1  0.5196787E-004  0.5216799E+04  0.7818608E-02  0.7795907E-01
         -2   -1    0    0    0  501 -0.00000000000E+00  0.00000000000E+00  0.15794468264E+04  0.15794468264E+04  0.00000000000E+00 0. -1.
          2   -1    0    0  501    0  0.00000000000E+00 -0.00000000000E+00 -0.43076779876E+04  0.43076779876E+04  0.00000000000E+00 0.  1.
         23    2    1    2    0    0 -0.24094436991E+02 -0.25876553147E+04 -0.10023711045E+04  0.27766371505E+04  0.91790329778E+02 0.  0.
         11    1    3    3    0    0 -0.10859738493E+02 -0.91892170037E+03 -0.40319099537E+03  0.10035427266E+04  0.00000000000E+00 0.  1.
        -11    1    3    3    0    0 -0.13234698498E+02 -0.16687336143E+04 -0.59918010915E+03  0.17730944239E+04  0.00000000000E+00 0. -1.
         22    1    1    2    0    0  0.24094436991E+02  0.25876553147E+04 -0.17258600567E+04  0.31104876635E+04  0.00000000000E+00 0.  1.
<mgrwt>
<rscale>  0 0.52167991E+04</rscale>
<asrwt>0</asrwt>
<pdfrwt beam="1">  1        2 0.66271968E+00 0.52167991E+04</pdfrwt>
<pdfrwt beam="2">  1       -2 0.24299182E+00 0.52167991E+04</pdfrwt>
<totfact> 0.94093338E-03</totfact>
</mgrwt>
</event>
<event>
 6    1  0.5196787E-004  0.2411022E+04  0.7818608E-02  0.8435389E-01
          1   -1    0    0  501    0  0.00000000000E+00  0.00000000000E+00  0.22342165156E+04  0.22342165156E+04  0.00000000000E+00 0.  1.
         -1   -1    0    0    0  501 -0.00000000000E+00 -0.00000000000E+00 -0.65045471828E+03  0.65045471828E+03  0.00000000000E+00 0. -1.
         23    2    1    2    0    0 -0.42359491803E+03 -0.70539971205E+03  0.18442284415E+04  0.20216160323E+04  0.93442117585E+02 0.  0.
         11    1    3    3    0    0 -0.34947649647E+03 -0.62773707229E+03  0.16513633718E+04  0.18008855153E+04  0.00000000000E+00 0.  1.
        -11    1    3    3    0    0 -0.74118421564E+02 -0.77662639766E+02  0.19286506968E+03  0.22073051700E+03  0.00000000000E+00 0. -1.
         22    1    1    2    0    0  0.42359491803E+03  0.70539971205E+03 -0.26046664412E+03  0.86305520162E+03  0.00000000000E+00 0. -1.
<mgrwt>
<rscale>  0 0.24110219E+04</rscale>
<asrwt>0</asrwt>
<pdfrwt beam="1">  1        1 0.34372562E+00 0.24110219E+04</pdfrwt>
<pdfrwt beam="2">  1       -1 0.10006996E+00 0.24110219E+04</pdfrwt>
<totfact> 0.17583291E+00</totfact>
</mgrwt>
</event>
<event>
 6    1  0.5196787E-004  0.2556120E+04  0.7818608E-02  0.8383261E-01
         -2   -1    0    0    0  501 -0.00000000000E+00  0.00000000000E+00  0.66073758936E+03  0.66073758936E+03  0.00000000000E+00 0. -1.
          2   -1    0    0  501    0  0.00000000000E+00 -0.00000000000E+00 -0.24721428302E+04  0.24721428302E+04  0.00000000000E+00 0.  1.
         23    2    1    2    0    0 -0.96534444422E+03 -0.83394740732E+03 -0.96213940861E+03  0.16003626781E+04  0.89946015300E+02 0.  0.
         11    1    3    3    0    0 -0.63450655231E+03 -0.57990595809E+03 -0.60384437308E+03  0.10504844178E+04  0.00000000000E+00 0.  1.
        -11    1    3    3    0    0 -0.33083789191E+03 -0.25404144924E+03 -0.35829503554E+03  0.54987826029E+03  0.00000000000E+00 0. -1.
         22    1    1    2    0    0  0.96534444422E+03  0.83394740732E+03 -0.84926583224E+03  0.15325177415E+04  0.00000000000E+00 0. -1.
<mgrwt>
<rscale>  0 0.25561203E+04</rscale>
<asrwt>0</asrwt>
<pdfrwt beam="1">  1        2 0.38032967E+00 0.25561203E+04</pdfrwt>
<pdfrwt beam="2">  1       -2 0.10165194E+00 0.25561203E+04</pdfrwt>
<totfact> 0.25474484E+00</totfact>
</mgrwt>
</event>
<event>
 6    1  0.5196787E-004  0.1607188E+04  0.7818608E-02  0.8816144E-01
          2   -1    0    0  501    0  0.00000000000E+00  0.00000000000E+00  0.91688346921E+03  0.91688346921E+03  0.00000000000E+00 0.  1.
         -2   -1    0    0    0  501 -0.00000000000E+00 -0.00000000000E+00 -0.70430247210E+03  0.70430247210E+03  0.00000000000E+00 0. -1.
         23    2    1    2    0    0  0.25838424697E+03 -0.68352102507E+03 -0.22512310207E+03  0.76939471735E+03  0.85582762311E+02 0.  0.
         13    1    3    3    0    0  0.15724690426E+03 -0.30821666186E+03 -0.12623778259E+03  0.36832061753E+03  0.00000000000E+00 0.  1.
        -13    1    3    3    0    0  0.10113734271E+03 -0.37530436321E+03 -0.98885319486E+02  0.40107409981E+03  0.00000000000E+00 0. -1.
         22    1    1    2    0    0 -0.25838424697E+03  0.68352102507E+03  0.43770409919E+03  0.85179122397E+03  0.00000000000E+00 0.  1.
<mgrwt>
<rscale>  0 0.16071880E+04</rscale>
<asrwt>0</asrwt>
<pdfrwt beam="1">  1        2 0.14105900E+00 0.16071880E+04</pdfrwt>
<pdfrwt beam="2">  1       -2 0.10835423E+00 0.16071880E+04</pdfrwt>
<totfact> 0.18656508E+01</totfact>
</mgrwt>
</event>
<event>
 6    1  0.5196787E-004  0.4324223E+04  0.7818608E-02  0.7942154E-01
         -2   -1    0    0    0  501 -0.00000000000E+00  0.00000000000E+00  0.12816049136E+04  0.12816049136E+04  0.00000000000E+00 0. -1.
          2   -1    0    0  501    0  0.00000000000E+00 -0.00000000000E+00 -0.36475562855E+04  0.36475562855E+04  0.00000000000E+00 0.  1.
         23    2    1    2    0    0  0.94783579133E+03  0.31735621531E+03  0.10004929874E+04  0.14174585809E+04  0.95367479575E+02 0.  0.
         11    1    3    3    0    0  0.81097180163E+03  0.23589781611E+03  0.83032891045E+03  0.11843855547E+04  0.00000000000E+00 0. -1.
        -11    1    3    3    0    0  0.13686398970E+03  0.81458399198E+02  0.17016407692E+03  0.23307302621E+03  0.00000000000E+00 0.  1.
         22    1    1    2    0    0 -0.94783579133E+03 -0.31735621531E+03 -0.33664443592E+04  0.35117026182E+04  0.00000000000E+00 0.  1.
<mgrwt>
<rscale>  0 0.43242230E+04</rscale>
<asrwt>0</asrwt>
<pdfrwt beam="1">  1        2 0.56116249E+00 0.43242230E+04</pdfrwt>
<pdfrwt beam="2">  1       -2 0.19716999E+00 0.43242230E+04</pdfrwt>
<totfact> 0.67889028E-02</totfact>
</mgrwt>
</event>
<event>
 6    1  0.5196787E-004  0.1697994E+04  0.7818608E-02  0.8762509E-01
          2   -1    0    0  501    0  0.00000000000E+00  0.00000000000E+00  0.18678371098E+04  0.18678371098E+04  0.00000000000E+00 0.  1.
         -2   -1    0    0    0  501 -0.00000000000E+00 -0.00000000000E+00 -0.38589861844E+03  0.38589861844E+03  0.00000000000E+00 0. -1.
         23    2    1    2    0    0  0.30397201109E+03  0.70725992034E+03  0.27529646333E+03  0.82244241020E+03  0.89486294642E+02 0.  0.
         13    1    3    3    0    0  0.63752539601E+02  0.25458831979E+03  0.87381440035E+02  0.27661365646E+03  0.00000000000E+00 0. -1.
        -13    1    3    3    0    0  0.24021947149E+03  0.45267160056E+03  0.18791502329E+03  0.54582875374E+03  0.00000000000E+00 0.  1.
         22    1    1    2    0    0 -0.30397201109E+03 -0.70725992034E+03  0.12066420280E+04  0.14312933180E+04  0.00000000000E+00 0.  1.
<mgrwt>
<rscale>  0 0.16979938E+04</rscale>
<asrwt>0</asrwt>
<pdfrwt beam="1">  1        2 0.28735955E+00 0.16979938E+04</pdfrwt>
<pdfrwt beam="2">  1       -2 0.59369019E-01 0.16979938E+04</pdfrwt>
<totfact> 0.19942305E+01</totfact>
</mgrwt>
</event>
<event>
 6    1  0.5196787E-004  0.1723370E+04  0.7818608E-02  0.8748147E-01
         -2   -1    0    0    0  501 -0.00000000000E+00  0.00000000000E+00  0.52332259075E+03  0.52332259075E+03  0.00000000000E+00 0. -1.
          2   -1    0    0  501    0  0.00000000000E+00 -0.00000000000E+00 -0.14188214945E+04  0.14188214945E+04  0.00000000000E+00 0.  1.
         23    2    1    2    0    0 -0.82350819247E+03  0.19234888046E+03 -0.27715630706E+03  0.89452230150E+03  0.90502455586E+02 0.  0.
         13    1    3    3    0    0 -0.38027792626E+03  0.45078015874E+02 -0.14022546358E+03  0.40780695108E+03  0.00000000000E+00 0. -1.
        -13    1    3    3    0    0 -0.44323026621E+03  0.14727086458E+03 -0.13693084349E+03  0.48671535042E+03  0.00000000000E+00 0.  1.
         22    1    1    2    0    0  0.82350819247E+03 -0.19234888046E+03 -0.61834259665E+03  0.10476217837E+04  0.00000000000E+00 0.  1.
<mgrwt>
<rscale>  0 0.17233703E+04</rscale>
<asrwt>0</asrwt>
<pdfrwt beam="1">  1        2 0.21828022E+00 0.17233703E+04</pdfrwt>
<pdfrwt beam="2">  1       -2 0.80511170E-01 0.17233703E+04</pdfrwt>
<totfact> 0.18269857E+01</totfact>
</mgrwt>
</event>
<event>
 6    1  0.5196787E-004  0.8870308E+03  0.7818608E-02  0.9441940E-01
         -2   -1    0    0    0  501 -0.00000000000E+00  0.00000000000E+00  0.10259060889E+04  0.10259060889E+04  0.00000000000E+00 0. -1.
          2   -1    0    0  501    0  0.00000000000E+00 -0.00000000000E+00 -0.19173870849E+03  0.19173870849E+03  0.00000000000E+00 0.  1.
         23    2    1    2    0    0 -0.22042017655E+03  0.28013426955E+03  0.70647692526E+02  0.37501642319E+03  0.92660444598E+02 0.  0.
         13    1    3    3    0    0 -0.15956247204E+03  0.25578524229E+03  0.45877267270E+02  0.30494425115E+03  0.00000000000E+00 0. -1.
        -13    1    3    3    0    0 -0.60857704514E+02  0.24349027266E+02  0.24770425256E+02  0.70072172043E+02  0.00000000000E+00 0.  1.
         22    1    1    2    0    0  0.22042017655E+03 -0.28013426955E+03  0.76351968789E+03  0.84262837420E+03  0.00000000000E+00 0. -1.
<mgrwt>
<rscale>  0 0.88703080E+03</rscale>
<asrwt>0</asrwt>
<pdfrwt beam="1">  1        2 0.29498263E-01 0.88703080E+03</pdfrwt>
<pdfrwt beam="2">  1       -2 0.15783170E+00 0.88703080E+03</pdfrwt>
<totfact> 0.47620742E+01</totfact>
</mgrwt>
</event>
<event>
 6    1  0.5196787E-004  0.4420564E+04  0.7818608E-02  0.7924693E-01
         -2   -1    0    0    0  501 -0.00000000000E+00  0.00000000000E+00  0.20993347338E+04  0.20993347338E+04  0.00000000000E+00 0. -1.
          2   -1    0    0  501    0  0.00000000000E+00 -0.00000000000E+00 -0.23270923972E+04  0.23270923972E+04  0.00000000000E+00 0.  1.
         23    2    1    2    0    0 -0.20272375662E+04 -0.56975165978E+02  0.76365228414E+03  0.21690321714E+04  0.92722328462E+02 0.  0.
         11    1    3    3    0    0 -0.24628348306E+03 -0.10293415361E+02  0.61198711714E+02  0.25398187090E+03  0.00000000000E+00 0.  1.
        -11    1    3    3    0    0 -0.17809540831E+04 -0.46681750617E+02  0.70245357243E+03  0.19150503005E+04  0.00000000000E+00 0. -1.
         22    1    1    2    0    0  0.20272375662E+04  0.56975165978E+02 -0.99140994757E+03  0.22573949596E+04  0.00000000000E+00 0.  1.
<mgrwt>
<rscale>  0 0.44205637E+04</rscale>
<asrwt>0</asrwt>
<pdfrwt beam="1">  1        2 0.35801421E+00 0.44205637E+04</pdfrwt>
<pdfrwt beam="2">  1       -2 0.32297458E+00 0.44205637E+04</pdfrwt>
<totfact> 0.76582033E-02</totfact>
</mgrwt>
</event>
<event>
 6    1  0.5196787E-004  0.3158468E+04  0.7818608E-02  0.8199873E-01
          2   -1    0    0  501    0  0.00000000000E+00  0.00000000000E+00  0.15470111220E+04  0.15470111220E+04  0.00000000000E+00 0.  1.
         -2   -1    0    0    0  501 -0.00000000000E+00 -0.00000000000E+00 -0.16121282937E+04  0.16121282937E+04  0.00000000000E+00 0. -1.
         23    2    1    2    0    0 -0.13227849725E+04  0.10549915044E+03  0.82144850690E+03  0.15632419075E+04  0.89763342582E+02 0.  0.
         13    1    3    3    0    0 -0.87234066219E+03  0.85995445760E+02  0.49580809883E+03  0.10070745347E+04  0.00000000000E+00 0. -1.
        -13    1    3    3    0    0 -0.45044431027E+03  0.19503704677E+02  0.32564040807E+03  0.55616737276E+03  0.00000000000E+00 0.  1.
         22    1    1    2    0    0  0.13227849725E+04 -0.10549915044E+03 -0.88656567859E+03  0.15958975082E+04  0.00000000000E+00 0. -1.
<mgrwt>
<rscale>  0 0.31584682E+04</rscale>
<asrwt>0</asrwt>
<pdfrwt beam="1">  1        2 0.23800171E+00 0.31584682E+04</pdfrwt>
<pdfrwt beam="2">  1       -2 0.24801974E+00 0.31584682E+04</pdfrwt>
<totfact> 0.66692782E-01</totfact>
</mgrwt>
</event>
<event>
 6    1  0.5196787E-004  0.3468207E+04  0.7818608E-02  0.8121366E-01
          2   -1    0    0  501    0  0.00000000000E+00  0.00000000000E+00  0.15904342174E+04  0.15904342174E+04  0.00000000000E+00 0.  1.
         -2   -1    0    0    0  501 -0.00000000000E+00 -0.00000000000E+00 -0.18907508192E+04  0.18907508192E+04  0.00000000000E+00 0. -1.
         23    2    1    2    0    0  0.16627952642E+04 -0.25490891994E+03 -0.56788496147E+03  0.17778179372E+04  0.90976043551E+02 0.  0.
         11    1    3    3    0    0  0.61194277289E+03 -0.57428063942E+02 -0.18097797593E+03  0.64072222343E+03  0.00000000000E+00 0. -1.
        -11    1    3    3    0    0  0.10508524913E+04 -0.19748085600E+03 -0.38690698555E+03  0.11370957138E+04  0.00000000000E+00 0.  1.
         22    1    1    2    0    0 -0.16627952642E+04  0.25490891994E+03  0.26756835969E+03  0.17033670993E+04  0.00000000000E+00 0.  1.
<mgrwt>
<rscale>  0 0.34682069E+04</rscale>
<asrwt>0</asrwt>
<pdfrwt beam="1">  1        2 0.24468219E+00 0.34682069E+04</pdfrwt>
<pdfrwt beam="2">  1       -2 0.29088474E+00 0.34682069E+04</pdfrwt>
<totfact> 0.33610935E-01</totfact>
</mgrwt>
</event>
<event>
 6    1  0.5196787E-004  0.3018831E+04  0.7818608E-02  0.8238374E-01
          2   -1    0    0  501    0  0.00000000000E+00  0.00000000000E+00  0.15301542408E+04  0.15301542408E+04  0.00000000000E+00 0.  1.
         -2   -1    0    0    0  501 -0.00000000000E+00 -0.00000000000E+00 -0.14889580730E+04  0.14889580730E+04  0.00000000000E+00 0. -1.
         23    2    1    2    0    0  0.13626238469E+04 -0.53217835799E+03  0.38691225158E+03  0.15159565788E+04  0.92009268629E+02 0.  0.
         13    1    3    3    0    0  0.66915318148E+03 -0.30829050747E+03  0.17975247420E+03  0.75836664567E+03  0.00000000000E+00 0. -1.
        -13    1    3    3    0    0  0.69347066545E+03 -0.22388785052E+03  0.20715977739E+03  0.75758993315E+03  0.00000000000E+00 0.  1.
         22    1    1    2    0    0 -0.13626238469E+04  0.53217835799E+03 -0.34571608376E+03  0.15031557350E+04  0.00000000000E+00 0.  1.
<mgrwt>
<rscale>  0 0.30188312E+04</rscale>
<asrwt>0</asrwt>
<pdfrwt beam="1">  1        2 0.23540835E+00 0.30188312E+04</pdfrwt>
<pdfrwt beam="2">  1       -2 0.22907047E+00 0.30188312E+04</pdfrwt>
<totfact> 0.90406363E-01</totfact>
</mgrwt>
</event>
<event>
 6    1  0.5196787E-004  0.1759020E+04  0.7818608E-02  0.8728401E-01
          2   -1    0    0  501    0  0.00000000000E+00  0.00000000000E+00  0.22754319652E+04  0.22754319652E+04  0.00000000000E+00 0.  1.
         -2   -1    0    0    0  501 -0.00000000000E+00 -0.00000000000E+00 -0.33995199361E+03  0.33995199361E+03  0.00000000000E+00 0. -1.
         23    2    1    2    0    0  0.46065647940E+03  0.68453170787E+03  0.14126691410E+04  0.16385936969E+04  0.92558903284E+02 0.  0.
         11    1    3    3    0    0  0.31770735254E+03  0.46775264058E+03  0.88007259275E+03  0.10460680012E+04  0.00000000000E+00 0. -1.
        -11    1    3    3    0    0  0.14294912685E+03  0.21677906730E+03  0.53259654826E+03  0.59252569573E+03  0.00000000000E+00 0.  1.
         22    1    1    2    0    0 -0.46065647940E+03 -0.68453170787E+03  0.52281083054E+03  0.97679026184E+03  0.00000000000E+00 0. -1.
<mgrwt>
<rscale>  0 0.17590198E+04</rscale>
<asrwt>0</asrwt>
<pdfrwt beam="1">  1        2 0.35006645E+00 0.17590198E+04</pdfrwt>
<pdfrwt beam="2">  1       -2 0.52300308E-01 0.17590198E+04</pdfrwt>
<totfact> 0.15308611E+01</totfact>
</mgrwt>
</event>
<event>
 6    1  0.5196787E-004  0.2579601E+04  0.7818608E-02  0.8375163E-01
         -2   -1    0    0    0  501 -0.00000000000E+00  0.00000000000E+00  0.13820212137E+04  0.13820212137E+04  0.00000000000E+00 0. -1.
          2   -1    0    0  501    0  0.00000000000E+00 -0.00000000000E+00 -0.12037335792E+04  0.12037335792E+04  0.00000000000E+00 0.  1.
         23    2    1    2    0    0 -0.73600778364E+03 -0.10476744760E+04  0.23242771507E+03  0.13042477061E+04  0.87807578550E+02 0.  0.
         11    1    3    3    0    0 -0.36562413339E+03 -0.44941599779E+03  0.89153103520E+02  0.58617746618E+03  0.00000000000E+00 0. -1.
        -11    1    3    3    0    0 -0.37038365025E+03 -0.59825847824E+03  0.14327461155E+03  0.71807023993E+03  0.00000000000E+00 0.  1.
         22    1    1    2    0    0  0.73600778364E+03  0.10476744760E+04 -0.54140080604E+02  0.12815070868E+04  0.00000000000E+00 0. -1.
<mgrwt>
<rscale>  0 0.25796010E+04</rscale>
<asrwt>0</asrwt>
<pdfrwt beam="1">  1        2 0.18518978E+00 0.25796010E+04</pdfrwt>
<pdfrwt beam="2">  1       -2 0.21261865E+00 0.25796010E+04</pdfrwt>
<totfact> 0.18391044E+00</totfact>
</mgrwt>
</event>
<event>
 6    1  0.5196787E-004  0.1626179E+04  0.7818608E-02  0.8804624E-01
          1   -1    0    0  501    0  0.00000000000E+00  0.00000000000E+00  0.59200197814E+03  0.59200197814E+03  0.00000000000E+00 0.  1.
         -1   -1    0    0    0  501 -0.00000000000E+00 -0.00000000000E+00 -0.11167444210E+04  0.11167444210E+04  0.00000000000E+00 0. -1.
         23    2    1    2    0    0 -0.43624405828E+03 -0.41697030550E+03  0.30514600690E+03  0.68264311336E+03  0.93351061285E+02 0.  0.
         11    1    3    3    0    0 -0.22493867572E+03 -0.18968264469E+03  0.19657098832E+03  0.35386023650E+03  0.00000000000E+00 0.  1.
        -11    1    3    3    0    0 -0.21130538256E+03 -0.22728766081E+03  0.10857501858E+03  0.32878287686E+03  0.00000000000E+00 0. -1.
         22    1    1    2    0    0  0.43624405828E+03  0.41697030550E+03 -0.82988844977E+03  0.10261032858E+04  0.00000000000E+00 0. -1.
<mgrwt>
<rscale>  0 0.16261795E+04</rscale>
<asrwt>0</asrwt>
<pdfrwt beam="1">  1        1 0.91077227E-01 0.16261795E+04</pdfrwt>
<pdfrwt beam="2">  1       -1 0.17180683E+00 0.16261795E+04</pdfrwt>
<totfact> 0.79787411E+00</totfact>
</mgrwt>
</event>
<event>
 6    1  0.5196787E-004  0.8677922E+03  0.7818608E-02  0.9466763E-01
         -2   -1    0    0    0  501 -0.00000000000E+00  0.00000000000E+00  0.13191886579E+03  0.13191886579E+03  0.00000000000E+00 0. -1.
          2   -1    0    0  501    0  0.00000000000E+00 -0.00000000000E+00 -0.14271335760E+04  0.14271335760E+04  0.00000000000E+00 0.  1.
         23    2    1    2    0    0  0.33882859800E+03  0.26354436924E+03 -0.62740999952E+03  0.76518621565E+03  0.87213437937E+02 0.  0.
         13    1    3    3    0    0  0.30127030110E+03  0.24812615546E+03 -0.51866904254E+03  0.64911320973E+03  0.00000000000E+00 0.  1.
        -13    1    3    3    0    0  0.37558296898E+02  0.15418213779E+02 -0.10874095697E+03  0.11607300593E+03  0.00000000000E+00 0. -1.
         22    1    1    2    0    0 -0.33882859800E+03 -0.26354436924E+03 -0.66780471073E+03  0.79386622617E+03  0.00000000000E+00 0. -1.
<mgrwt>
<rscale>  0 0.86779224E+03</rscale>
<asrwt>0</asrwt>
<pdfrwt beam="1">  1        2 0.21955900E+00 0.86779224E+03</pdfrwt>
<pdfrwt beam="2">  1       -2 0.20295211E-01 0.86779224E+03</pdfrwt>
<totfact> 0.29187542E+02</totfact>
</mgrwt>
</event>
<event>
 6    1  0.5196787E-004  0.3799981E+04  0.7818608E-02  0.8046159E-01
         -2   -1    0    0    0  501 -0.00000000000E+00  0.00000000000E+00  0.12254495734E+04  0.12254495734E+04  0.00000000000E+00 0. -1.
          2   -1    0    0  501    0  0.00000000000E+00 -0.00000000000E+00 -0.29458282081E+04  0.29458282081E+04  0.00000000000E+00 0.  1.
         23    2    1    2    0    0  0.69334256663E+03  0.61557040446E+03 -0.26797539643E+04  0.28370919396E+04  0.91424981417E+02 0.  0.
         11    1    3    3    0    0  0.26981462042E+03  0.29785589812E+03 -0.11193225614E+04  0.11892859462E+04  0.00000000000E+00 0.  1.
        -11    1    3    3    0    0  0.42352794621E+03  0.31771450634E+03 -0.15604314029E+04  0.16478059934E+04  0.00000000000E+00 0. -1.
         22    1    1    2    0    0 -0.69334256663E+03 -0.61557040446E+03  0.95937532957E+03  0.13341858418E+04  0.00000000000E+00 0. -1.
<mgrwt>
<rscale>  0 0.37999810E+04</rscale>
<asrwt>0</asrwt>
<pdfrwt beam="1">  1        2 0.45320433E+00 0.37999810E+04</pdfrwt>
<pdfrwt beam="2">  1       -2 0.18853071E+00 0.37999810E+04</pdfrwt>
<totfact> 0.23916890E-01</totfact>
</mgrwt>
</event>
<event>
 6    1  0.5196787E-004  0.2441923E+04  0.7818608E-02  0.8423973E-01
         -2   -1    0    0    0  501 -0.00000000000E+00  0.00000000000E+00  0.96065192046E+03  0.96065192046E+03  0.00000000000E+00 0. -1.
          2   -1    0    0  501    0  0.00000000000E+00 -0.00000000000E+00 -0.15518080984E+04  0.15518080984E+04  0.00000000000E+00 0.  1.
         23    2    1    2    0    0 -0.69650621893E+03 -0.25156767572E+03 -0.12927061394E+04  0.14923720045E+04  0.87623218625E+02 0.  0.
         13    1    3    3    0    0 -0.50809255751E+03 -0.20701687909E+03 -0.10157490493E+04  0.11544523231E+04  0.00000000000E+00 0.  1.
        -13    1    3    3    0    0 -0.18841366142E+03 -0.44550796631E+02 -0.27695709014E+03  0.33791968139E+03  0.00000000000E+00 0. -1.
         22    1    1    2    0    0  0.69650621893E+03  0.25156767572E+03  0.70154996151E+03  0.10200880143E+04  0.00000000000E+00 0. -1.
<mgrwt>
<rscale>  0 0.24419234E+04</rscale>
<asrwt>0</asrwt>
<pdfrwt beam="1">  1        2 0.23873971E+00 0.24419234E+04</pdfrwt>
<pdfrwt beam="2">  1       -2 0.14779260E+00 0.24419234E+04</pdfrwt>
<totfact> 0.33148037E+00</totfact>
</mgrwt>
</event>
<event>
 6    1  0.5196787E-004  0.3320245E+04  0.7818608E-02  0.8157763E-01
          2   -1    0    0  501    0  0.00000000000E+00  0.00000000000E+00  0.37139012837E+04  0.37139012837E+04  0.00000000000E+00 0.  1.
         -2   -1    0    0    0  501 -0.00000000000E+00 -0.00000000000E+00 -0.74207845447E+03  0.74207845447E+03  0.00000000000E+00 0. -1.
         23    2    1    2    0    0 -0.39359422909E+03 -0.94301794696E+03 -0.26677424995E+03  0.10599952996E+04  0.90676729942E+02 0.  0.
         13    1    3    3    0    0 -0.23017573932E+03 -0.61628988930E+03 -0.20807338089E+03  0.68999176115E+03  0.00000000000E+00 0.  1.
        -13    1    3    3    0    0 -0.16341848978E+03 -0.32672805767E+03 -0.58700869060E+02  0.37000353849E+03  0.00000000000E+00 0. -1.
         22    1    1    2    0    0  0.39359422909E+03  0.94301794696E+03  0.32385970791E+04  0.33959844385E+04  0.00000000000E+00 0.  1.
<mgrwt>
<rscale>  0 0.33202446E+04</rscale>
<asrwt>0</asrwt>
<pdfrwt beam="1">  1        2 0.57136942E+00 0.33202446E+04</pdfrwt>
<pdfrwt beam="2">  1       -2 0.11416592E+00 0.33202446E+04</pdfrwt>
<totfact> 0.28479160E-01</totfact>
</mgrwt>
</event>
<event>
 6    1  0.5196787E-004  0.2650440E+04  0.7818608E-02  0.8351267E-01
          2   -1    0    0  501    0  0.00000000000E+00  0.00000000000E+00  0.20096502021E+04  0.20096502021E+04  0.00000000000E+00 0.  1.
         -2   -1    0    0    0  501 -0.00000000000E+00 -0.00000000000E+00 -0.87388773643E+03  0.87388773643E+03  0.00000000000E+00 0. -1.
         23    2    1    2    0    0 -0.11265523260E+04 -0.69169638824E+03  0.49515836372E+03  0.14145458854E+04  0.90521930354E+02 0.  0.
         11    1    3    3    0    0 -0.10137271809E+04 -0.65016472193E+03  0.43870472849E+03  0.12817249322E+04  0.00000000000E+00 0. -1.
        -11    1    3    3    0    0 -0.11282514513E+03 -0.41531666313E+02  0.56453635231E+02  0.13282095320E+03  0.00000000000E+00 0.  1.
         22    1    1    2    0    0  0.11265523260E+04  0.69169638824E+03  0.64060410194E+03  0.14689920532E+04  0.00000000000E+00 0. -1.
<mgrwt>
<rscale>  0 0.26504405E+04</rscale>
<asrwt>0</asrwt>
<pdfrwt beam="1">  1        2 0.30917695E+00 0.26504405E+04</pdfrwt>
<pdfrwt beam="2">  1       -2 0.13444427E+00 0.26504405E+04</pdfrwt>
<totfact> 0.23177196E+00</totfact>
</mgrwt>
</event>
<event>
 6    1  0.5196787E-004  0.1842565E+04  0.7818608E-02  0.8683986E-01
         -2   -1    0    0    0  501 -0.00000000000E+00  0.00000000000E+00  0.12482931270E+04  0.12482931270E+04  0.00000000000E+00 0. -1.
          2   -1    0    0  501    0  0.00000000000E+00 -0.00000000000E+00 -0.67993752453E+03  0.67993752453E+03  0.00000000000E+00 0.  1.
         23    2    1    2    0    0  0.51394862470E+02  0.90448465383E+03  0.44697509292E+03  0.10141917306E+04  0.89800957042E+02 0.  0.
         13    1    3    3    0    0 -0.88009552772E+01  0.42366637512E+03  0.24256079359E+03  0.48826877108E+03  0.00000000000E+00 0.  1.
        -13    1    3    3    0    0  0.60195817747E+02  0.48081827871E+03  0.20441429933E+03  0.52592295955E+03  0.00000000000E+00 0. -1.
         22    1    1    2    0    0 -0.51394862470E+02 -0.90448465383E+03  0.12138050959E+03  0.91403892095E+03  0.00000000000E+00 0.  1.
<mgrwt>
<rscale>  0 0.18425649E+04</rscale>
<asrwt>0</asrwt>
<pdfrwt beam="1">  1        2 0.10460577E+00 0.18425649E+04</pdfrwt>
<pdfrwt beam="2">  1       -2 0.19204510E+00 0.18425649E+04</pdfrwt>
<totfact> 0.60017279E+00</totfact>
</mgrwt>
</event>
<event>
 6    1  0.5196787E-004  0.1717826E+04  0.7818608E-02  0.8751262E-01
         -2   -1    0    0    0  501 -0.00000000000E+00  0.00000000000E+00  0.10554955441E+04  0.10554955441E+04  0.00000000000E+00 0. -1.
          2   -1    0    0  501    0  0.00000000000E+00 -0.00000000000E+00 -0.69894338598E+03  0.69894338598E+03  0.00000000000E+00 0.  1.
         23    2    1    2    0    0 -0.26708867115E+03  0.52235347609E+03 -0.45853559583E+03  0.75016926565E+03  0.91156580882E+02 0.  0.
         11    1    3    3    0    0 -0.15011496601E+03  0.28058412206E+03 -0.30510982000E+03  0.44085593433E+03  0.00000000000E+00 0. -1.
        -11    1    3    3    0    0 -0.11697370514E+03  0.24176935403E+03 -0.15342577583E+03  0.30931333132E+03  0.00000000000E+00 0.  1.
         22    1    1    2    0    0  0.26708867115E+03 -0.52235347609E+03  0.81508775393E+03  0.10042696644E+04  0.00000000000E+00 0. -1.
<mgrwt>
<rscale>  0 0.17178261E+04</rscale>
<asrwt>0</asrwt>
<pdfrwt beam="1">  1        2 0.10752975E+00 0.17178261E+04</pdfrwt>
<pdfrwt beam="2">  1       -2 0.16238393E+00 0.17178261E+04</pdfrwt>
<totfact> 0.94303618E+00</totfact>
</mgrwt>
</event>
<event>
 6    1  0.5196787E-004  0.1652445E+04  0.7818608E-02  0.8788961E-01
         -2   -1    0    0    0  501 -0.00000000000E+00  0.00000000000E+00  0.61181422470E+03  0.61181422470E+03  0.00000000000E+00 0. -1.
          2   -1    0    0  501    0  0.00000000000E+00 -0.00000000000E+00 -0.11157696339E+04  0.11157696339E+04  0.00000000000E+00 0.  1.
         23    2    1    2    0    0 -0.24430176383E+03  0.69034354839E+03 -0.64667097653E+03  0.98151060500E+03  0.94457129032E+02 0.  0.
         11    1    3    3    0    0 -0.50754102439E+02  0.25961454482E+03 -0.26374142914E+03  0.37354415032E+03  0.00000000000E+00 0. -1.
        -11    1    3    3    0    0 -0.19354766139E+03  0.43072900357E+03 -0.38292954740E+03  0.60796645467E+03  0.00000000000E+00 0.  1.
         22    1    1    2    0    0  0.24430176383E+03 -0.69034354839E+03  0.14271556732E+03  0.74607325361E+03  0.00000000000E+00 0. -1.
<mgrwt>
<rscale>  0 0.16524451E+04</rscale>
<asrwt>0</asrwt>
<pdfrwt beam="1">  1        2 0.17165686E+00 0.16524451E+04</pdfrwt>
<pdfrwt beam="2">  1       -2 0.94125266E-01 0.16524451E+04</pdfrwt>
<totfact> 0.19381536E+01</totfact>
</mgrwt>
</event>
<event>
 6    1  0.5196787E-004  0.1437150E+04  0.7818608E-02  0.8927358E-01
         -2   -1    0    0    0  501 -0.00000000000E+00  0.00000000000E+00  0.18194205875E+03  0.18194205875E+03  0.00000000000E+00 0. -1.
          2   -1    0    0  501    0  0.00000000000E+00 -0.00000000000E+00 -0.28379904967E+04  0.28379904967E+04  0.00000000000E+00 0.  1.
         23    2    1    2    0    0 -0.71112506588E+03 -0.68373818236E+02 -0.12315718664E+04  0.14263493787E+04  0.85612205236E+02 0.  0.
         13    1    3    3    0    0 -0.49439220783E+03 -0.79701074255E+02 -0.81286410475E+03  0.95473764416E+03  0.00000000000E+00 0.  1.
        -13    1    3    3    0    0 -0.21673285805E+03  0.11327256019E+02 -0.41870776169E+03  0.47161173457E+03  0.00000000000E+00 0. -1.
         22    1    1    2    0    0  0.71112506588E+03  0.68373818236E+02 -0.14244765715E+04  0.15935831767E+04  0.00000000000E+00 0. -1.
<mgrwt>
<rscale>  0 0.14371497E+04</rscale>
<asrwt>0</asrwt>
<pdfrwt beam="1">  1        2 0.43661392E+00 0.14371497E+04</pdfrwt>
<pdfrwt beam="2">  1       -2 0.27991086E-01 0.14371497E+04</pdfrwt>
<totfact> 0.24988736E+01</totfact>
</mgrwt>
</event>
<event>
 6    1  0.5196787E-004  0.2812863E+04  0.7818608E-02  0.8299286E-01
          2   -1    0    0  501    0  0.00000000000E+00  0.00000000000E+00  0.17657809122E+04  0.17657809122E+04  0.00000000000E+00 0.  1.
         -2   -1    0    0    0  501 -0.00000000000E+00 -0.00000000000E+00 -0.11202124243E+04  0.11202124243E+04  0.00000000000E+00 0. -1.
         23    2    1    2    0    0 -0.62568571047E+03  0.10806144388E+04 -0.33761512175E+03  0.12966978372E+04  0.90725613765E+02 0.  0.
         13    1    3    3    0    0 -0.47971916989E+02  0.11851892987E+03 -0.13276349349E+02  0.12854689032E+03  0.00000000000E+00 0.  1.
        -13    1    3    3    0    0 -0.57771379348E+03  0.96209550895E+03 -0.32433877240E+03  0.11681509469E+04  0.00000000000E+00 0. -1.
         22    1    1    2    0    0  0.62568571047E+03 -0.10806144388E+04  0.98318360970E+03  0.15892954993E+04  0.00000000000E+00 0.  1.
<mgrwt>
<rscale>  0 0.28128631E+04</rscale>
<asrwt>0</asrwt>
<pdfrwt beam="1">  1        2 0.27165860E+00 0.28128631E+04</pdfrwt>
<pdfrwt beam="2">  1       -2 0.17234037E+00 0.28128631E+04</pdfrwt>
<totfact> 0.16077310E+00</totfact>
</mgrwt>
</event>
<event>
 6    1  0.5196787E-004  0.2790662E+04  0.7818608E-02  0.8306173E-01
         -2   -1    0    0    0  501 -0.00000000000E+00  0.00000000000E+00  0.16403754065E+04  0.16403754065E+04  0.00000000000E+00 0. -1.
          2   -1    0    0  501    0  0.00000000000E+00 -0.00000000000E+00 -0.11868922302E+04  0.11868922302E+04  0.00000000000E+00 0.  1.
         23    2    1    2    0    0  0.28184878873E+03 -0.55440094173E+03  0.14907821376E+04  0.16178097915E+04  0.89877670367E+02 0.  0.
         11    1    3    3    0    0  0.41542674947E+02 -0.14212336330E+03  0.42552575713E+03  0.45055189958E+03  0.00000000000E+00 0. -1.
        -11    1    3    3    0    0  0.24030611378E+03 -0.41227757843E+03  0.10652563805E+04  0.11672578919E+04  0.00000000000E+00 0.  1.
         22    1    1    2    0    0 -0.28184878873E+03  0.55440094173E+03 -0.10372989614E+04  0.12094578451E+04  0.00000000000E+00 0.  1.
<mgrwt>
<rscale>  0 0.27906622E+04</rscale>
<asrwt>0</asrwt>
<pdfrwt beam="1">  1        2 0.18259880E+00 0.27906622E+04</pdfrwt>
<pdfrwt beam="2">  1       -2 0.25236545E+00 0.27906622E+04</pdfrwt>
<totfact> 0.10437122E+00</totfact>
</mgrwt>
</event>
<event>
 6    1  0.5196787E-004  0.6796944E+03  0.7818608E-02  0.9752602E-01
          2   -1    0    0  501    0  0.00000000000E+00  0.00000000000E+00  0.31435369821E+03  0.31435369821E+03  0.00000000000E+00 0.  1.
         -2   -1    0    0    0  501 -0.00000000000E+00 -0.00000000000E+00 -0.36740820954E+03  0.36740820954E+03  0.00000000000E+00 0. -1.
         23    2    1    2    0    0 -0.15164963111E+03 -0.16251601594E+03  0.22519720139E+03  0.32562558317E+03  0.76871157461E+02 0.  0.
         13    1    3    3    0    0 -0.54234082715E+02 -0.11427001055E+03  0.12027736959E+03  0.17454402503E+03  0.00000000000E+00 0. -1.
        -13    1    3    3    0    0 -0.97415548390E+02 -0.48246005390E+02  0.10491983180E+03  0.15108155814E+03  0.00000000000E+00 0.  1.
         22    1    1    2    0    0  0.15164963111E+03  0.16251601594E+03 -0.27825171272E+03  0.35613632457E+03  0.00000000000E+00 0. -1.
<mgrwt>
<rscale>  0 0.67969443E+03</rscale>
<asrwt>0</asrwt>
<pdfrwt beam="1">  1        2 0.48362107E-01 0.67969443E+03</pdfrwt>
<pdfrwt beam="2">  1       -2 0.56524340E-01 0.67969443E+03</pdfrwt>
<totfact> 0.30899633E+02</totfact>
</mgrwt>
</event>
<event>
 6    1  0.5196787E-004  0.2331387E+04  0.7818608E-02  0.8465648E-01
         -2   -1    0    0    0  501 -0.00000000000E+00  0.00000000000E+00  0.13066181780E+04  0.13066181780E+04  0.00000000000E+00 0. -1.
          2   -1    0    0  501    0  0.00000000000E+00 -0.00000000000E+00 -0.10399681379E+04  0.10399681379E+04  0.00000000000E+00 0.  1.
         23    2    1    2    0    0 -0.89060455474E+03 -0.70057146877E+03 -0.13340654167E+03  0.11449115994E+04  0.95123126751E+02 0.  0.
         13    1    3    3    0    0 -0.33019922396E+03 -0.30389797825E+03 -0.21604321628E+02  0.44927970731E+03  0.00000000000E+00 0. -1.
        -13    1    3    3    0    0 -0.56040533079E+03 -0.39667349052E+03 -0.11180222005E+03  0.69563189207E+03  0.00000000000E+00 0.  1.
         22    1    1    2    0    0  0.89060455474E+03  0.70057146877E+03  0.40005658177E+03  0.12016747166E+04  0.00000000000E+00 0. -1.
<mgrwt>
<rscale>  0 0.23313869E+04</rscale>
<asrwt>0</asrwt>
<pdfrwt beam="1">  1        2 0.15999510E+00 0.23313869E+04</pdfrwt>
<pdfrwt beam="2">  1       -2 0.20101818E+00 0.23313869E+04</pdfrwt>
<totfact> 0.28125551E+00</totfact>
</mgrwt>
</event>
<event>
 6    1  0.5196787E-004  0.1099315E+04  0.7818608E-02  0.9205859E-01
         -2   -1    0    0    0  501 -0.00000000000E+00  0.00000000000E+00  0.29623506887E+03  0.29623506887E+03  0.00000000000E+00 0. -1.
          2   -1    0    0  501    0  0.00000000000E+00 -0.00000000000E+00 -0.10198776670E+04  0.10198776670E+04  0.00000000000E+00 0.  1.
         23    2    1    2    0    0  0.31759165282E+03 -0.27611528345E+03  0.51835305405E+02  0.43380321730E+03  0.91620001968E+02 0.  0.
         11    1    3    3    0    0  0.96224076303E+02 -0.35410374529E+02  0.25914680279E+02  0.10575697678E+03  0.00000000000E+00 0. -1.
        -11    1    3    3    0    0  0.22136757652E+03 -0.24070490892E+03  0.25920625126E+02  0.32804624052E+03  0.00000000000E+00 0.  1.
         22    1    1    2    0    0 -0.31759165282E+03  0.27611528345E+03 -0.77547790352E+03  0.88230951856E+03  0.00000000000E+00 0.  1.
<mgrwt>
<rscale>  0 0.10993153E+04</rscale>
<asrwt>0</asrwt>
<pdfrwt beam="1">  1        2 0.15690426E+00 0.10993153E+04</pdfrwt>
<pdfrwt beam="2">  1       -2 0.45574626E-01 0.10993153E+04</pdfrwt>
<totfact> 0.11083398E+02</totfact>
</mgrwt>
</event>
<event>
 6    1  0.5196787E-004  0.1063626E+04  0.7818608E-02  0.9241389E-01
         -2   -1    0    0    0  501 -0.00000000000E+00  0.00000000000E+00  0.86662169821E+02  0.86662169821E+02  0.00000000000E+00 0. -1.
          2   -1    0    0  501    0  0.00000000000E+00 -0.00000000000E+00 -0.32635325141E+04  0.32635325141E+04  0.00000000000E+00 0.  1.
         23    2    1    2    0    0  0.41033714205E+03  0.12112186985E+03 -0.25755397234E+04  0.26121936046E+04  0.84282166101E+02 0.  0.
         13    1    3    3    0    0  0.23806788733E+03  0.51265493965E+02 -0.12302463175E+04  0.12541174074E+04  0.00000000000E+00 0. -1.
        -13    1    3    3    0    0  0.17226925473E+03  0.69856375883E+02 -0.13452934059E+04  0.13580761972E+04  0.00000000000E+00 0.  1.
         22    1    1    2    0    0 -0.41033714205E+03 -0.12112186985E+03 -0.60133062093E+03  0.73800107938E+03  0.00000000000E+00 0. -1.
<mgrwt>
<rscale>  0 0.10636255E+04</rscale>
<asrwt>0</asrwt>
<pdfrwt beam="1">  1        2 0.50208197E+00 0.10636255E+04</pdfrwt>
<pdfrwt beam="2">  1       -2 0.13332640E-01 0.10636255E+04</pdfrwt>
<totfact> 0.51575530E+01</totfact>
</mgrwt>
</event>
<event>
 6    1  0.5196787E-004  0.1417371E+04  0.7818608E-02  0.8941340E-01
          2   -1    0    0  501    0  0.00000000000E+00  0.00000000000E+00  0.55313959854E+03  0.55313959854E+03  0.00000000000E+00 0.  1.
         -2   -1    0    0    0  501 -0.00000000000E+00 -0.00000000000E+00 -0.90797145180E+03  0.90797145180E+03  0.00000000000E+00 0. -1.
         23    2    1    2    0    0 -0.23595056327E+03  0.64714895392E+03 -0.19625118668E+02  0.69505753276E+03  0.90804139244E+02 0.  0.
         11    1    3    3    0    0 -0.43645709081E+02  0.47138929060E+02 -0.91998792607E+01  0.64897336867E+02  0.00000000000E+00 0. -1.
        -11    1    3    3    0    0 -0.19230485419E+03  0.60001002486E+03 -0.10425239408E+02  0.63016019590E+03  0.00000000000E+00 0.  1.
         22    1    1    2    0    0  0.23595056327E+03 -0.64714895392E+03 -0.33520673459E+03  0.76605351757E+03  0.00000000000E+00 0. -1.
<mgrwt>
<rscale>  0 0.14173708E+04</rscale>
<asrwt>0</asrwt>
<pdfrwt beam="1">  1        2 0.85098401E-01 0.14173708E+04</pdfrwt>
<pdfrwt beam="2">  1       -2 0.13968791E+00 0.14173708E+04</pdfrwt>
<totfact> 0.19189510E+01</totfact>
</mgrwt>
</event>
<event>
 6    1  0.5196787E-004  0.1290719E+04  0.7818608E-02  0.9036958E-01
         -4   -1    0    0    0  501 -0.00000000000E+00  0.00000000000E+00  0.44118445659E+03  0.44118445659E+03  0.00000000000E+00 0. -1.
          4   -1    0    0  501    0  0.00000000000E+00 -0.00000000000E+00 -0.94402421615E+03  0.94402421615E+03  0.00000000000E+00 0.  1.
         23    2    1    2    0    0 -0.47855035119E+03  0.30547055072E+03  0.69447598983E+02  0.57908491255E+03  0.90518898356E+02 0.  0.
         13    1    3    3    0    0 -0.11019957525E+03  0.87019251896E+02  0.54339165897E+02  0.15056241741E+03  0.00000000000E+00 0. -1.
        -13    1    3    3    0    0 -0.36835077593E+03  0.21845129883E+03  0.15108433087E+02  0.42852249514E+03  0.00000000000E+00 0.  1.
         22    1    1    2    0    0  0.47855035119E+03 -0.30547055072E+03 -0.57228735855E+03  0.80612376019E+03  0.00000000000E+00 0. -1.
<mgrwt>
<rscale>  0 0.12907189E+04</rscale>
<asrwt>0</asrwt>
<pdfrwt beam="1">  1        4 0.14523449E+00 0.12907189E+04</pdfrwt>
<pdfrwt beam="2">  1       -4 0.67874532E-01 0.12907189E+04</pdfrwt>
<totfact> 0.12735565E+00</totfact>
</mgrwt>
</event>
<event>
 6    1  0.5196787E-004  0.1741815E+04  0.7818608E-02  0.8737869E-01
          2   -1    0    0  501    0  0.00000000000E+00  0.00000000000E+00  0.14813359279E+04  0.14813359279E+04  0.00000000000E+00 0.  1.
         -2   -1    0    0    0  501 -0.00000000000E+00 -0.00000000000E+00 -0.51202425330E+03  0.51202425330E+03  0.00000000000E+00 0. -1.
         23    2    1    2    0    0 -0.28675282092E+03  0.29823213819E+03 -0.38762011265E+03  0.57475753640E+03  0.94484312773E+02 0.  0.
         11    1    3    3    0    0 -0.10213160100E+03  0.17363905817E+03 -0.17527402851E+03  0.26702503912E+03  0.00000000000E+00 0.  1.
        -11    1    3    3    0    0 -0.18462121991E+03  0.12459308001E+03 -0.21234608414E+03  0.30773249728E+03  0.00000000000E+00 0. -1.
         22    1    1    2    0    0  0.28675282092E+03 -0.29823213819E+03  0.13569317872E+04  0.14186026448E+04  0.00000000000E+00 0.  1.
<mgrwt>
<rscale>  0 0.17418151E+04</rscale>
<asrwt>0</asrwt>
<pdfrwt beam="1">  1        2 0.22789783E+00 0.17418151E+04</pdfrwt>
<pdfrwt beam="2">  1       -2 0.78772963E-01 0.17418151E+04</pdfrwt>
<totfact> 0.17653992E+01</totfact>
</mgrwt>
</event>
<event>
 6    1  0.5196787E-004  0.1546622E+04  0.7818608E-02  0.8854028E-01
          2   -1    0    0  501    0  0.00000000000E+00  0.00000000000E+00  0.15728730011E+04  0.15728730011E+04  0.00000000000E+00 0.  1.
         -2   -1    0    0    0  501 -0.00000000000E+00 -0.00000000000E+00 -0.38020235900E+03  0.38020235900E+03  0.00000000000E+00 0. -1.
         23    2    1    2    0    0  0.48337026322E+03 -0.47337435343E+03  0.10644037560E+04  0.12644662664E+04  0.90495819171E+02 0.  0.
         13    1    3    3    0    0  0.26333191607E+03 -0.19460930708E+03  0.51124876257E+03  0.60711759788E+03  0.00000000000E+00 0. -1.
        -13    1    3    3    0    0  0.22003834714E+03 -0.27876504635E+03  0.55315499338E+03  0.65734866850E+03  0.00000000000E+00 0.  1.
         22    1    1    2    0    0 -0.48337026322E+03  0.47337435343E+03  0.12826688614E+03  0.68860909370E+03  0.00000000000E+00 0. -1.
<mgrwt>
<rscale>  0 0.15466222E+04</rscale>
<asrwt>0</asrwt>
<pdfrwt beam="1">  1        2 0.24198046E+00 0.15466222E+04</pdfrwt>
<pdfrwt beam="2">  1       -2 0.58492671E-01 0.15466222E+04</pdfrwt>
<totfact> 0.30385177E+01</totfact>
</mgrwt>
</event>
<event>
 6    1  0.5196787E-004  0.3345250E+04  0.7818608E-02  0.8151476E-01
          2   -1    0    0  501    0  0.00000000000E+00  0.00000000000E+00  0.24790193352E+04  0.24790193352E+04  0.00000000000E+00 0.  1.
         -2   -1    0    0    0  501 -0.00000000000E+00 -0.00000000000E+00 -0.11285404346E+04  0.11285404346E+04  0.00000000000E+00 0. -1.
         23    2    1    2    0    0  0.57959794814E+03 -0.11974674892E+04 -0.41533391761E+03  0.13966873000E+04  0.91493069332E+02 0.  0.
         11    1    3    3    0    0  0.14758354145E+03 -0.22339321942E+03 -0.92742768500E+02  0.28334899558E+03  0.00000000000E+00 0. -1.
        -11    1    3    3    0    0  0.43201440668E+03 -0.97407426974E+03 -0.32259114911E+03  0.11133383044E+04  0.00000000000E+00 0.  1.
         22    1    1    2    0    0 -0.57959794814E+03  0.11974674892E+04  0.17658128182E+04  0.22108724699E+04  0.00000000000E+00 0.  1.
<mgrwt>
<rscale>  0 0.33452495E+04</rscale>
<asrwt>0</asrwt>
<pdfrwt beam="1">  1        2 0.38138759E+00 0.33452495E+04</pdfrwt>
<pdfrwt beam="2">  1       -2 0.17362161E+00 0.33452495E+04</pdfrwt>
<totfact> 0.59845572E-01</totfact>
</mgrwt>
</event>
<event>
 6    1  0.5196787E-004  0.1380820E+04  0.7818608E-02  0.8967820E-01
         -2   -1    0    0    0  501 -0.00000000000E+00  0.00000000000E+00  0.15031490489E+04  0.15031490489E+04  0.00000000000E+00 0. -1.
          2   -1    0    0  501    0  0.00000000000E+00 -0.00000000000E+00 -0.31711158796E+03  0.31711158796E+03  0.00000000000E+00 0.  1.
         23    2    1    2    0    0 -0.24707307719E+03 -0.58710190075E+03  0.25476822100E+03  0.69198932879E+03  0.90601530833E+02 0.  0.
         13    1    3    3    0    0 -0.94683038710E+02 -0.23639088340E+03  0.54826743039E+02  0.26048320354E+03  0.00000000000E+00 0. -1.
        -13    1    3    3    0    0 -0.15239003848E+03 -0.35071101735E+03  0.19994147796E+03  0.43150612525E+03  0.00000000000E+00 0.  1.
         22    1    1    2    0    0  0.24707307719E+03  0.58710190075E+03  0.93126923997E+03  0.11282713081E+04  0.00000000000E+00 0. -1.
<mgrwt>
<rscale>  0 0.13808200E+04</rscale>
<asrwt>0</asrwt>
<pdfrwt beam="1">  1        2 0.48786399E-01 0.13808200E+04</pdfrwt>
<pdfrwt beam="2">  1       -2 0.23125370E+00 0.13808200E+04</pdfrwt>
<totfact> 0.84469211E+00</totfact>
</mgrwt>
</event>
<event>
 6    1  0.5196787E-004  0.8648002E+03  0.7818608E-02  0.9470685E-01
          1   -1    0    0  501    0  0.00000000000E+00  0.00000000000E+00  0.90580557038E+03  0.90580557038E+03  0.00000000000E+00 0.  1.
         -1   -1    0    0    0  501 -0.00000000000E+00 -0.00000000000E+00 -0.20641279564E+03  0.20641279564E+03  0.00000000000E+00 0. -1.
         23    2    1    2    0    0  0.66312904306E+02 -0.22255870423E+03  0.81526978887E+03  0.85268559255E+03  0.92076669132E+02 0.  0.
         13    1    3    3    0    0 -0.80468352274E+01 -0.13120606854E+03  0.40107707672E+03  0.42206943202E+03  0.00000000000E+00 0. -1.
        -13    1    3    3    0    0  0.74359739533E+02 -0.91352635690E+02  0.41419271215E+03  0.43061616053E+03  0.00000000000E+00 0.  1.
         22    1    1    2    0    0 -0.66312904306E+02  0.22255870423E+03 -0.11587701412E+03  0.25953277348E+03  0.00000000000E+00 0. -1.
<mgrwt>
<rscale>  0 0.86480023E+03</rscale>
<asrwt>0</asrwt>
<pdfrwt beam="1">  1        1 0.13935470E+00 0.86480023E+03</pdfrwt>
<pdfrwt beam="2">  1       -1 0.31755815E-01 0.86480023E+03</pdfrwt>
<totfact> 0.16738298E+02</totfact>
</mgrwt>
</event>
<event>
 6    1  0.5196787E-004  0.2293600E+04  0.7818608E-02  0.8480449E-01
         -1   -1    0    0    0  501 -0.00000000000E+00  0.00000000000E+00  0.11539901784E+04  0.11539901784E+04  0.00000000000E+00 0. -1.
          1   -1    0    0  501    0  0.00000000000E+00 -0.00000000000E+00 -0.11396551102E+04  0.11396551102E+04  0.00000000000E+00 0.  1.
         23    2    1    2    0    0  0.68720664659E+02 -0.60476883032E+03 -0.96258796577E+03  0.11426255311E+04  0.92464287949E+02 0.  0.
         11    1    3    3    0    0  0.25188395142E+02 -0.22343899613E+03 -0.27554281774E+03  0.35564488559E+03  0.00000000000E+00 0.  1.
        -11    1    3    3    0    0  0.43532269517E+02 -0.38132983419E+03 -0.68704514803E+03  0.78698064548E+03  0.00000000000E+00 0. -1.
         22    1    1    2    0    0 -0.68720664659E+02  0.60476883032E+03  0.97692303396E+03  0.11510197575E+04  0.00000000000E+00 0. -1.
<mgrwt>
<rscale>  0 0.22936005E+04</rscale>
<asrwt>0</asrwt>
<pdfrwt beam="1">  1        1 0.17533156E+00 0.22936005E+04</pdfrwt>
<pdfrwt beam="2">  1       -1 0.17753695E+00 0.22936005E+04</pdfrwt>
<totfact> 0.23216183E+00</totfact>
</mgrwt>
</event>
<event>
 6    1  0.5196787E-004  0.1669040E+04  0.7818608E-02  0.8779221E-01
         -2   -1    0    0    0  501 -0.00000000000E+00  0.00000000000E+00  0.20194066297E+03  0.20194066297E+03  0.00000000000E+00 0. -1.
          2   -1    0    0  501    0  0.00000000000E+00 -0.00000000000E+00 -0.34486558791E+04  0.34486558791E+04  0.00000000000E+00 0.  1.
         23    2    1    2    0    0  0.47997128620E+03  0.14566437866E+03 -0.30789631225E+04  0.31217002274E+04  0.11579228373E+03 0.  0.
         11    1    3    3    0    0  0.27582830317E+03  0.10112997074E+03 -0.14560728862E+04  0.14854146807E+04  0.00000000000E+00 0. -1.
        -11    1    3    3    0    0  0.20414298304E+03  0.44534407927E+02 -0.16228902363E+04  0.16362855466E+04  0.00000000000E+00 0.  1.
         22    1    1    2    0    0 -0.47997128620E+03 -0.14566437866E+03 -0.16775209361E+03  0.52889631470E+03  0.00000000000E+00 0. -1.
<mgrwt>
<rscale>  0 0.16690403E+04</rscale>
<asrwt>0</asrwt>
<pdfrwt beam="1">  1        2 0.53056245E+00 0.16690403E+04</pdfrwt>
<pdfrwt beam="2">  1       -2 0.31067794E-01 0.16690403E+04</pdfrwt>
<totfact> 0.81667179E+00</totfact>
</mgrwt>
</event>
<event>
 6    1  0.5623463E-004  0.3544886E+04  0.7818608E-02  0.8103234E-01
          2   -1    0    0  501    0  0.00000000000E+00  0.00000000000E+00  0.20802584369E+04  0.20802584369E+04  0.00000000000E+00 0.  1.
         -2   -1    0    0    0  501 -0.00000000000E+00 -0.00000000000E+00 -0.15101750310E+04  0.15101750310E+04  0.00000000000E+00 0. -1.
         23    2    1    2    0    0  0.69269634248E+03 -0.41899127309E+03  0.18808396503E+04  0.20498284433E+04  0.94111354790E+02 0.  0.
         13    1    3    3    0    0  0.49434687501E+03 -0.33730148543E+03  0.14462376573E+04  0.15651691558E+04  0.00000000000E+00 0.  1.
        -13    1    3    3    0    0  0.19834946747E+03 -0.81689787659E+02  0.43460199304E+03  0.48465928755E+03  0.00000000000E+00 0. -1.
         22    1    1    2    0    0 -0.69269634248E+03  0.41899127309E+03 -0.13107562444E+04  0.15406050247E+04  0.00000000000E+00 0. -1.
<mgrwt>
<rscale>  0 0.35448861E+04</rscale>
<asrwt>0</asrwt>
<pdfrwt beam="1">  1        2 0.32003976E+00 0.35448861E+04</pdfrwt>
<pdfrwt beam="2">  1       -2 0.23233462E+00 0.35448861E+04</pdfrwt>
<totfact> 0.40796099E-01</totfact>
</mgrwt>
</event>
<event>
 6    1  0.5196787E-004  0.2287301E+04  0.7818608E-02  0.8482945E-01
         -2   -1    0    0    0  501 -0.00000000000E+00  0.00000000000E+00  0.61832193307E+03  0.61832193307E+03  0.00000000000E+00 0. -1.
          2   -1    0    0  501    0  0.00000000000E+00 -0.00000000000E+00 -0.21153005872E+04  0.21153005872E+04  0.00000000000E+00 0.  1.
         23    2    1    2    0    0  0.22743428177E+03  0.31357343089E+03 -0.20333838582E+04  0.20719691428E+04  0.91386897155E+02 0.  0.
         13    1    3    3    0    0  0.12491116122E+03  0.14407625243E+03 -0.77647779742E+03  0.79954895698E+03  0.00000000000E+00 0. -1.
        -13    1    3    3    0    0  0.10252312055E+03  0.16949717846E+03 -0.12569060607E+04  0.12724201858E+04  0.00000000000E+00 0.  1.
         22    1    1    2    0    0 -0.22743428177E+03 -0.31357343089E+03  0.53640520401E+03  0.66165337751E+03  0.00000000000E+00 0. -1.
<mgrwt>
<rscale>  0 0.22873012E+04</rscale>
<asrwt>0</asrwt>
<pdfrwt beam="1">  1        2 0.32543087E+00 0.22873012E+04</pdfrwt>
<pdfrwt beam="2">  1       -2 0.95126449E-01 0.22873012E+04</pdfrwt>
<totfact> 0.48573898E+00</totfact>
</mgrwt>
</event>
<event>
 6    1  0.5196787E-004  0.2046679E+04  0.7818608E-02  0.8585102E-01
          2   -1    0    0  501    0  0.00000000000E+00  0.00000000000E+00  0.16621030755E+04  0.16621030755E+04  0.00000000000E+00 0.  1.
         -2   -1    0    0    0  501 -0.00000000000E+00 -0.00000000000E+00 -0.63005968281E+03  0.63005968281E+03  0.00000000000E+00 0. -1.
         23    2    1    2    0    0 -0.79507351271E+03 -0.14081973079E+03 -0.18339522926E+03  0.83296327540E+03  0.90674808309E+02 0.  0.
         11    1    3    3    0    0 -0.20054044360E+03 -0.47361719570E+02 -0.86070551855E+02  0.22331086382E+03  0.00000000000E+00 0. -1.
        -11    1    3    3    0    0 -0.59453306910E+03 -0.93458011220E+02 -0.97324677401E+02  0.60965241158E+03  0.00000000000E+00 0.  1.
         22    1    1    2    0    0  0.79507351271E+03  0.14081973079E+03  0.12154386219E+04  0.14591994829E+04  0.00000000000E+00 0.  1.
<mgrwt>
<rscale>  0 0.20466794E+04</rscale>
<asrwt>0</asrwt>
<pdfrwt beam="1">  1        2 0.25570816E+00 0.20466794E+04</pdfrwt>
<pdfrwt beam="2">  1       -2 0.96932260E-01 0.20466794E+04</pdfrwt>
<totfact> 0.84719496E+00</totfact>
</mgrwt>
</event>
<event>
 6    1  0.5196787E-004  0.1217141E+04  0.7818608E-02  0.9097984E-01
         -2   -1    0    0    0  501 -0.00000000000E+00  0.00000000000E+00  0.33517659215E+03  0.33517659215E+03  0.00000000000E+00 0. -1.
          2   -1    0    0  501    0  0.00000000000E+00 -0.00000000000E+00 -0.11049648413E+04  0.11049648413E+04  0.00000000000E+00 0.  1.
         23    2    1    2    0    0  0.59030063794E+03  0.11148464474E+03 -0.30010874011E+03  0.67759142830E+03  0.90450089308E+02 0.  0.
         11    1    3    3    0    0  0.12662517712E+03 -0.12798536080E+02 -0.69913999313E+02  0.14520917776E+03  0.00000000000E+00 0.  1.
        -11    1    3    3    0    0  0.46367546082E+03  0.12428318082E+03 -0.23019474080E+03  0.53238225054E+03  0.00000000000E+00 0. -1.
         22    1    1    2    0    0 -0.59030063794E+03 -0.11148464474E+03 -0.46967950908E+03  0.76255000519E+03  0.00000000000E+00 0.  1.
<mgrwt>
<rscale>  0 0.12171415E+04</rscale>
<asrwt>0</asrwt>
<pdfrwt beam="1">  1        2 0.16999459E+00 0.12171415E+04</pdfrwt>
<pdfrwt beam="2">  1       -2 0.51565629E-01 0.12171415E+04</pdfrwt>
<totfact> 0.75734938E+01</totfact>
</mgrwt>
</event>
<event>
 6    1  0.5196787E-004  0.3515259E+04  0.7818608E-02  0.8110183E-01
         -2   -1    0    0    0  501 -0.00000000000E+00  0.00000000000E+00  0.14969726604E+04  0.14969726604E+04  0.00000000000E+00 0. -1.
          2   -1    0    0  501    0  0.00000000000E+00 -0.00000000000E+00 -0.20636724641E+04  0.20636724641E+04  0.00000000000E+00 0.  1.
         23    2    1    2    0    0  0.66121458730E+03 -0.13297886931E+04  0.66645512112E+03  0.16303048003E+04  0.90490965413E+02 0.  0.
         13    1    3    3    0    0  0.32527735425E+03 -0.55367629549E+03  0.28483231817E+03  0.70249003328E+03  0.00000000000E+00 0. -1.
        -13    1    3    3    0    0  0.33593723304E+03 -0.77611239757E+03  0.38162280295E+03  0.92781476704E+03  0.00000000000E+00 0.  1.
         22    1    1    2    0    0 -0.66121458730E+03  0.13297886931E+04 -0.12331549247E+04  0.19303403242E+04  0.00000000000E+00 0.  1.
<mgrwt>
<rscale>  0 0.35152589E+04</rscale>
<asrwt>0</asrwt>
<pdfrwt beam="1">  1        2 0.31748807E+00 0.35152589E+04</pdfrwt>
<pdfrwt beam="2">  1       -2 0.23030349E+00 0.35152589E+04</pdfrwt>
<totfact> 0.43016333E-01</totfact>
</mgrwt>
</event>
<event>
 6    1  0.5196787E-004  0.2923192E+04  0.7818608E-02  0.8266011E-01
          2   -1    0    0  501    0  0.00000000000E+00  0.00000000000E+00  0.11387450609E+04  0.11387450609E+04  0.00000000000E+00 0.  1.
         -2   -1    0    0    0  501 -0.00000000000E+00 -0.00000000000E+00 -0.18759796520E+04  0.18759796520E+04  0.00000000000E+00 0. -1.
         23    2    1    2    0    0  0.58991796750E+03 -0.71715832807E+03 -0.15312088296E+04  0.17929578090E+04  0.88192681134E+02 0.  0.
         13    1    3    3    0    0  0.33434683067E+03 -0.46847421835E+03 -0.91276011751E+03  0.10790676200E+04  0.00000000000E+00 0.  1.
        -13    1    3    3    0    0  0.25557113683E+03 -0.24868410972E+03 -0.61844871212E+03  0.71389018898E+03  0.00000000000E+00 0. -1.
         22    1    1    2    0    0 -0.58991796750E+03  0.71715832807E+03  0.79397423854E+03  0.12217669039E+04  0.00000000000E+00 0.  1.
<mgrwt>
<rscale>  0 0.29231918E+04</rscale>
<asrwt>0</asrwt>
<pdfrwt beam="1">  1        2 0.17519155E+00 0.29231918E+04</pdfrwt>
<pdfrwt beam="2">  1       -2 0.28861225E+00 0.29231918E+04</pdfrwt>
<totfact> 0.66288245E-01</totfact>
</mgrwt>
</event>
<event>
 6    1  0.5196787E-004  0.3068218E+04  0.7818608E-02  0.8224515E-01
         -2   -1    0    0    0  501 -0.00000000000E+00  0.00000000000E+00  0.16740771932E+04  0.16740771932E+04  0.00000000000E+00 0. -1.
          2   -1    0    0  501    0  0.00000000000E+00 -0.00000000000E+00 -0.14058438626E+04  0.14058438626E+04  0.00000000000E+00 0.  1.
         23    2    1    2    0    0  0.11042919679E+04 -0.74128845168E+03 -0.63047078069E+03  0.14747299773E+04  0.91464647914E+02 0.  0.
         11    1    3    3    0    0  0.46908368105E+03 -0.28731655150E+03 -0.21787586436E+03  0.59165884838E+03  0.00000000000E+00 0. -1.
        -11    1    3    3    0    0  0.63520828682E+03 -0.45397190018E+03 -0.41259491633E+03  0.88307112895E+03  0.00000000000E+00 0.  1.
         22    1    1    2    0    0 -0.11042919679E+04  0.74128845168E+03  0.89870411132E+03  0.16051910785E+04  0.00000000000E+00 0. -1.
<mgrwt>
<rscale>  0 0.30682185E+04</rscale>
<asrwt>0</asrwt>
<pdfrwt beam="1">  1        2 0.21628367E+00 0.30682185E+04</pdfrwt>
<pdfrwt beam="2">  1       -2 0.25755034E+00 0.30682185E+04</pdfrwt>
<totfact> 0.70595122E-01</totfact>
</mgrwt>
</event>
<event>
 6    1  0.5196787E-004  0.3307244E+04  0.7818608E-02  0.8161055E-01
          2   -1    0    0  501    0  0.00000000000E+00  0.00000000000E+00  0.40309550002E+04  0.40309550002E+04  0.00000000000E+00 0.  1.
         -2   -1    0    0    0  501 -0.00000000000E+00 -0.00000000000E+00 -0.67836661283E+03  0.67836661283E+03  0.00000000000E+00 0. -1.
         23    2    1    2    0    0 -0.82309663791E+03 -0.10980470047E+04  0.29879913843E+04  0.32894179985E+04  0.94778459355E+02 0.  0.
         11    1    3    3    0    0 -0.39520456779E+03 -0.52025447705E+03  0.15356202544E+04  0.16688262153E+04  0.00000000000E+00 0. -1.
        -11    1    3    3    0    0 -0.42789207012E+03 -0.57779252766E+03  0.14523711299E+04  0.16205917832E+04  0.00000000000E+00 0.  1.
         22    1    1    2    0    0  0.82309663791E+03  0.10980470047E+04  0.36459700307E+03  0.14199036145E+04  0.00000000000E+00 0. -1.
<mgrwt>
<rscale>  0 0.33072437E+04</rscale>
<asrwt>0</asrwt>
<pdfrwt beam="1">  1        2 0.62014691E+00 0.33072437E+04</pdfrwt>
<pdfrwt beam="2">  1       -2 0.10436410E+00 0.33072437E+04</pdfrwt>
<totfact> 0.20055783E-01</totfact>
</mgrwt>
</event>
<event>
 6    1  0.8811298E-004  0.2347063E+04  0.7818608E-02  0.8459593E-01
         -2   -1    0    0    0  501 -0.00000000000E+00  0.00000000000E+00  0.97359877651E+03  0.97359877651E+03  0.00000000000E+00 0. -1.
          2   -1    0    0  501    0  0.00000000000E+00 -0.00000000000E+00 -0.14145208701E+04  0.14145208701E+04  0.00000000000E+00 0.  1.
         23    2    1    2    0    0 -0.64838526925E+03 -0.42440534154E+03 -0.11151313474E+04  0.13609480596E+04  0.90212791151E+02 0.  0.
         11    1    3    3    0    0 -0.29103684998E+03 -0.18113343217E+03 -0.41706117013E+03  0.53986274916E+03  0.00000000000E+00 0. -1.
        -11    1    3    3    0    0 -0.35734841926E+03 -0.24327190936E+03 -0.69807017729E+03  0.82108531046E+03  0.00000000000E+00 0.  1.
         22    1    1    2    0    0  0.64838526925E+03  0.42440534154E+03  0.67420925379E+03  0.10271715870E+04  0.00000000000E+00 0. -1.
<mgrwt>
<rscale>  0 0.23470627E+04</rscale>
<asrwt>0</asrwt>
<pdfrwt beam="1">  1        2 0.21761859E+00 0.23470627E+04</pdfrwt>
<pdfrwt beam="2">  1       -2 0.14978443E+00 0.23470627E+04</pdfrwt>
<totfact> 0.38567721E+00</totfact>
</mgrwt>
</event>
<event>
 6    1  0.5196787E-004  0.1288416E+04  0.7818608E-02  0.9038802E-01
         -2   -1    0    0    0  501 -0.00000000000E+00  0.00000000000E+00  0.95848403181E+03  0.95848403181E+03  0.00000000000E+00 0. -1.
          2   -1    0    0  501    0  0.00000000000E+00 -0.00000000000E+00 -0.43297922610E+03  0.43297922610E+03  0.00000000000E+00 0.  1.
         23    2    1    2    0    0  0.60992773271E+03  0.94651407681E+02  0.45082340108E+03  0.76973338063E+03  0.90978075311E+02 0.  0.
         11    1    3    3    0    0  0.31757515504E+03  0.34553157068E+01  0.22430838796E+03  0.38881894400E+03  0.00000000000E+00 0.  1.
        -11    1    3    3    0    0  0.29235257767E+03  0.91196091974E+02  0.22651501313E+03  0.38091443663E+03  0.00000000000E+00 0. -1.
         22    1    1    2    0    0 -0.60992773271E+03 -0.94651407681E+02  0.74681404631E+02  0.62172987728E+03  0.00000000000E+00 0.  1.
<mgrwt>
<rscale>  0 0.12884156E+04</rscale>
<asrwt>0</asrwt>
<pdfrwt beam="1">  1        2 0.66612189E-01 0.12884156E+04</pdfrwt>
<pdfrwt beam="2">  1       -2 0.14745908E+00 0.12884156E+04</pdfrwt>
<totfact> 0.22328720E+01</totfact>
</mgrwt>
</event>
<event>
 6    1  0.5196787E-004  0.4615718E+04  0.7818608E-02  0.7890685E-01
          2   -1    0    0  501    0  0.00000000000E+00  0.00000000000E+00  0.38688140757E+04  0.38688140757E+04  0.00000000000E+00 0.  1.
         -2   -1    0    0    0  501 -0.00000000000E+00 -0.00000000000E+00 -0.13767040978E+04  0.13767040978E+04  0.00000000000E+00 0. -1.
         23    2    1    2    0    0 -0.45533887755E+03 -0.15413686455E+04 -0.63379926607E+03  0.17306270804E+04  0.10108307036E+03 0.  0.
         13    1    3    3    0    0 -0.28863581282E+03 -0.11224102076E+04 -0.47666496071E+03  0.12531260078E+04  0.00000000000E+00 0. -1.
        -13    1    3    3    0    0 -0.16670306472E+03 -0.41895843789E+03 -0.15713430536E+03  0.47750107266E+03  0.00000000000E+00 0.  1.
         22    1    1    2    0    0  0.45533887755E+03  0.15413686455E+04  0.31259092440E+04  0.35148910931E+04  0.00000000000E+00 0.  1.
<mgrwt>
<rscale>  0 0.46157176E+04</rscale>
<asrwt>0</asrwt>
<pdfrwt beam="1">  1        2 0.59520216E+00 0.46157176E+04</pdfrwt>
<pdfrwt beam="2">  1       -2 0.21180063E+00 0.46157176E+04</pdfrwt>
<totfact> 0.36258674E-02</totfact>
</mgrwt>
</event>
<event>
 6    1  0.5196787E-004  0.2614516E+04  0.7818608E-02  0.8363287E-01
          2   -1    0    0  501    0  0.00000000000E+00  0.00000000000E+00  0.17622644495E+04  0.17622644495E+04  0.00000000000E+00 0.  1.
         -2   -1    0    0    0  501 -0.00000000000E+00 -0.00000000000E+00 -0.96973132341E+03  0.96973132341E+03  0.00000000000E+00 0. -1.
         23    2    1    2    0    0 -0.34965995470E+02 -0.35465158257E+03  0.17091555736E+04  0.17485339906E+04  0.95697312007E+02 0.  0.
         13    1    3    3    0    0  0.12972691579E+02 -0.93233117383E+02  0.29614435151E+03  0.31074456043E+03  0.00000000000E+00 0. -1.
        -13    1    3    3    0    0 -0.47938687049E+02 -0.26141846519E+03  0.14130112221E+04  0.14377894302E+04  0.00000000000E+00 0.  1.
         22    1    1    2    0    0  0.34965995470E+02  0.35465158257E+03 -0.91662244756E+03  0.98346178229E+03  0.00000000000E+00 0. -1.
<mgrwt>
<rscale>  0 0.26145157E+04</rscale>
<asrwt>0</asrwt>
<pdfrwt beam="1">  1        2 0.27111761E+00 0.26145157E+04</pdfrwt>
<pdfrwt beam="2">  1       -2 0.14918943E+00 0.26145157E+04</pdfrwt>
<totfact> 0.24321310E+00</totfact>
</mgrwt>
</event>
<event>
 6    1  0.5196787E-004  0.2161464E+04  0.7818608E-02  0.8534641E-01
          2   -1    0    0  501    0  0.00000000000E+00  0.00000000000E+00  0.22063914088E+04  0.22063914088E+04  0.00000000000E+00 0. -1.
         -2   -1    0    0    0  501 -0.00000000000E+00 -0.00000000000E+00 -0.52936294382E+03  0.52936294382E+03  0.00000000000E+00 0.  1.
         23    2    1    2    0    0  0.15539841600E+03  0.66830276401E+03 -0.21346670278E+03  0.72459815993E+03  0.93258823230E+02 0.  0.
         11    1    3    3    0    0  0.90777834997E+02  0.20410972000E+03 -0.80247969994E+02  0.23736286528E+03  0.00000000000E+00 0. -1.
        -11    1    3    3    0    0  0.64620581004E+02  0.46419304400E+03 -0.13321873278E+03  0.48723529465E+03  0.00000000000E+00 0.  1.
         22    1    1    2    0    0 -0.15539841600E+03 -0.66830276401E+03  0.18904951678E+04  0.20111561927E+04  0.00000000000E+00 0. -1.
<mgrwt>
<rscale>  0 0.21614642E+04</rscale>
<asrwt>0</asrwt>
<pdfrwt beam="1">  1        2 0.33944483E+00 0.21614642E+04</pdfrwt>
<pdfrwt beam="2">  1       -2 0.81440454E-01 0.21614642E+04</pdfrwt>
<totfact> 0.62343232E+00</totfact>
</mgrwt>
</event>
<event>
 6    1  0.5196787E-004  0.1695241E+04  0.7818608E-02  0.8764083E-01
          2   -1    0    0  501    0  0.00000000000E+00  0.00000000000E+00  0.56331649640E+03  0.56331649640E+03  0.00000000000E+00 0.  1.
         -2   -1    0    0    0  501 -0.00000000000E+00 -0.00000000000E+00 -0.12754112726E+04  0.12754112726E+04  0.00000000000E+00 0. -1.
         23    2    1    2    0    0 -0.18287428394E+03  0.62063183267E+03  0.23271970153E+03  0.69360713223E+03  0.91134619977E+02 0.  0.
         11    1    3    3    0    0 -0.89347743962E+02  0.41745217107E+03  0.18299569776E+03  0.46447471393E+03  0.00000000000E+00 0.  1.
        -11    1    3    3    0    0 -0.93526539974E+02  0.20317966159E+03  0.49724003774E+02  0.22913241830E+03  0.00000000000E+00 0. -1.
         22    1    1    2    0    0  0.18287428394E+03 -0.62063183267E+03 -0.94481447777E+03  0.11451206368E+04  0.00000000000E+00 0. -1.
<mgrwt>
<rscale>  0 0.16952406E+04</rscale>
<asrwt>0</asrwt>
<pdfrwt beam="1">  1        2 0.86664076E-01 0.16952406E+04</pdfrwt>
<pdfrwt beam="2">  1       -2 0.19621712E+00 0.16952406E+04</pdfrwt>
<totfact> 0.71682721E+00</totfact>
</mgrwt>
</event>
<event>
 6    1  0.5196787E-004  0.2171586E+04  0.7818608E-02  0.8530349E-01
         -2   -1    0    0    0  501 -0.00000000000E+00  0.00000000000E+00  0.59059392254E+03  0.59059392254E+03  0.00000000000E+00 0. -1.
          2   -1    0    0  501    0  0.00000000000E+00 -0.00000000000E+00 -0.19962040650E+04  0.19962040650E+04  0.00000000000E+00 0.  1.
         23    2    1    2    0    0  0.72408812600E+02 -0.35493982621E+03  0.51277300140E+03  0.63451235194E+03  0.91893728998E+02 0.  0.
         11    1    3    3    0    0  0.58440182762E+02 -0.22497977228E+03  0.25211912377E+03  0.34292157335E+03  0.00000000000E+00 0. -1.
        -11    1    3    3    0    0  0.13968629837E+02 -0.12996005392E+03  0.26065387762E+03  0.29159077858E+03  0.00000000000E+00 0.  1.
         22    1    1    2    0    0 -0.72408812600E+02  0.35493982621E+03 -0.19183831439E+04  0.19522856356E+04  0.00000000000E+00 0.  1.
<mgrwt>
<rscale>  0 0.21715856E+04</rscale>
<asrwt>0</asrwt>
<pdfrwt beam="1">  1        2 0.30710832E+00 0.21715856E+04</pdfrwt>
<pdfrwt beam="2">  1       -2 0.90860603E-01 0.21715856E+04</pdfrwt>
<totfact> 0.63584101E+00</totfact>
</mgrwt>
</event>
<event>
 6    1  0.5196787E-004  0.3870235E+04  0.7818608E-02  0.8031248E-01
         -2   -1    0    0    0  501 -0.00000000000E+00  0.00000000000E+00  0.22505414850E+04  0.22505414850E+04  0.00000000000E+00 0. -1.
          2   -1    0    0  501    0  0.00000000000E+00 -0.00000000000E+00 -0.16639014242E+04  0.16639014242E+04  0.00000000000E+00 0.  1.
         23    2    1    2    0    0 -0.12267890584E+04 -0.40656179845E+03 -0.11617982558E+04  0.17401981123E+04  0.90611220401E+02 0.  0.
         11    1    3    3    0    0 -0.57872346182E+03 -0.16720965259E+03 -0.59330487514E+03  0.84551202715E+03  0.00000000000E+00 0. -1.
        -11    1    3    3    0    0 -0.64806559655E+03 -0.23935214586E+03 -0.56849338063E+03  0.89468608516E+03  0.00000000000E+00 0.  1.
         22    1    1    2    0    0  0.12267890584E+04  0.40656179845E+03  0.17484383166E+04  0.21742447969E+04  0.00000000000E+00 0. -1.
<mgrwt>
<rscale>  0 0.38702347E+04</rscale>
<asrwt>0</asrwt>
<pdfrwt beam="1">  1        2 0.25598484E+00 0.38702347E+04</pdfrwt>
<pdfrwt beam="2">  1       -2 0.34623715E+00 0.38702347E+04</pdfrwt>
<totfact> 0.13451075E-01</totfact>
</mgrwt>
</event>
<event>
 6    1  0.5196787E-004  0.2183592E+04  0.7818608E-02  0.8525289E-01
          2   -1    0    0  501    0  0.00000000000E+00  0.00000000000E+00  0.96377759785E+03  0.96377759785E+03  0.00000000000E+00 0.  1.
         -2   -1    0    0    0  501 -0.00000000000E+00 -0.00000000000E+00 -0.12368192184E+04  0.12368192184E+04  0.00000000000E+00 0. -1.
         23    2    1    2    0    0  0.90703770836E+03 -0.91898080824E+02 -0.73825122534E+03  0.11770819712E+04  0.96666610905E+02 0.  0.
         13    1    3    3    0    0  0.25379935224E+03 -0.36259755460E+02 -0.15501920856E+03  0.29959945942E+03  0.00000000000E+00 0.  1.
        -13    1    3    3    0    0  0.65323835612E+03 -0.55638325364E+02 -0.58323201677E+03  0.87748251182E+03  0.00000000000E+00 0. -1.
         22    1    1    2    0    0 -0.90703770836E+03  0.91898080824E+02  0.46520960476E+03  0.10235148450E+04  0.00000000000E+00 0.  1.
<mgrwt>
<rscale>  0 0.21835921E+04</rscale>
<asrwt>0</asrwt>
<pdfrwt beam="1">  1        2 0.14827348E+00 0.21835921E+04</pdfrwt>
<pdfrwt beam="2">  1       -2 0.19027988E+00 0.21835921E+04</pdfrwt>
<totfact> 0.37549347E+00</totfact>
</mgrwt>
</event>
<event>
 6    1  0.5196787E-004  0.1967790E+04  0.7818608E-02  0.8621830E-01
          2   -1    0    0  501    0  0.00000000000E+00  0.00000000000E+00  0.53783332196E+03  0.53783332196E+03  0.00000000000E+00 0.  1.
         -2   -1    0    0    0  501 -0.00000000000E+00 -0.00000000000E+00 -0.17999059077E+04  0.17999059077E+04  0.00000000000E+00 0. -1.
         23    2    1    2    0    0 -0.38111725685E+03  0.87731170142E+03 -0.89497396310E+03  0.13131966080E+04  0.92632347020E+02 0.  0.
         11    1    3    3    0    0 -0.10041654959E+03  0.19918920033E+03 -0.26129061386E+03  0.34355873712E+03  0.00000000000E+00 0. -1.
        -11    1    3    3    0    0 -0.28070070726E+03  0.67812250108E+03 -0.63368334924E+03  0.96963787087E+03  0.00000000000E+00 0.  1.
         22    1    1    2    0    0  0.38111725685E+03 -0.87731170142E+03 -0.36709862268E+03  0.10245426217E+04  0.00000000000E+00 0. -1.
<mgrwt>
<rscale>  0 0.19677900E+04</rscale>
<asrwt>0</asrwt>
<pdfrwt beam="1">  1        2 0.82743590E-01 0.19677900E+04</pdfrwt>
<pdfrwt beam="2">  1       -2 0.27690860E+00 0.19677900E+04</pdfrwt>
<totfact> 0.23169594E+00</totfact>
</mgrwt>
</event>
<event>
 6    1  0.5196787E-004  0.5431763E+04  0.7818608E-02  0.7765149E-01
         -2   -1    0    0    0  501 -0.00000000000E+00  0.00000000000E+00  0.16952695315E+04  0.16952695315E+04  0.00000000000E+00 0. -1.
          2   -1    0    0  501    0  0.00000000000E+00 -0.00000000000E+00 -0.43509378198E+04  0.43509378198E+04  0.00000000000E+00 0.  1.
         23    2    1    2    0    0  0.15178330369E+04  0.67350817702E+02 -0.38330907880E+04  0.41240530902E+04  0.82919489665E+02 0.  0.
         11    1    3    3    0    0  0.92823281570E+03  0.72580977357E+01 -0.22793210373E+04  0.24610918778E+04  0.00000000000E+00 0.  1.
        -11    1    3    3    0    0  0.58960022115E+03  0.60092719966E+02 -0.15537697507E+04  0.16629612124E+04  0.00000000000E+00 0. -1.
         22    1    1    2    0    0 -0.15178330369E+04 -0.67350817702E+02  0.11774224997E+04  0.19221542610E+04  0.00000000000E+00 0. -1.
<mgrwt>
<rscale>  0 0.54317630E+04</rscale>
<asrwt>0</asrwt>
<pdfrwt beam="1">  1        2 0.66937504E+00 0.54317630E+04</pdfrwt>
<pdfrwt beam="2">  1       -2 0.26081070E+00 0.54317630E+04</pdfrwt>
<totfact> 0.65585178E-03</totfact>
</mgrwt>
</event>
<event>
 6    1  0.5196787E-004  0.6871759E+03  0.7818608E-02  0.9739418E-01
         -2   -1    0    0    0  501 -0.00000000000E+00  0.00000000000E+00  0.61760891240E+03  0.61760891240E+03  0.00000000000E+00 0. -1.
          2   -1    0    0  501    0  0.00000000000E+00 -0.00000000000E+00 -0.19114470217E+03  0.19114470217E+03  0.00000000000E+00 0.  1.
         23    2    1    2    0    0 -0.26316759170E+03 -0.11346963233E+03  0.42679164298E+03  0.52216567695E+03  0.91506004634E+02 0.  0.
         13    1    3    3    0    0 -0.12190654782E+03 -0.63259208754E+02  0.28236689253E+03  0.31399680873E+03  0.00000000000E+00 0. -1.
        -13    1    3    3    0    0 -0.14126104388E+03 -0.50210423580E+02  0.14442475045E+03  0.20816886822E+03  0.00000000000E+00 0.  1.
         22    1    1    2    0    0  0.26316759170E+03  0.11346963233E+03 -0.32743274987E+00  0.28658793763E+03  0.00000000000E+00 0.  1.
<mgrwt>
<rscale>  0 0.68717588E+03</rscale>
<asrwt>0</asrwt>
<pdfrwt beam="1">  1        2 0.29406878E-01 0.68717588E+03</pdfrwt>
<pdfrwt beam="2">  1       -2 0.95016755E-01 0.68717588E+03</pdfrwt>
<totfact> 0.17137960E+02</totfact>
</mgrwt>
</event>
<event>
 6    1  0.5196787E-004  0.2657767E+04  0.7818608E-02  0.8348840E-01
          2   -1    0    0  501    0  0.00000000000E+00  0.00000000000E+00  0.11461238833E+04  0.11461238833E+04  0.00000000000E+00 0.  1.
         -2   -1    0    0    0  501 -0.00000000000E+00 -0.00000000000E+00 -0.15407858319E+04  0.15407858319E+04  0.00000000000E+00 0. -1.
         23    2    1    2    0    0 -0.97139400308E+03  0.89391285603E+03 -0.33621098613E+03  0.13655078011E+04  0.94272076464E+02 0.  0.
         13    1    3    3    0    0 -0.73128962144E+03  0.69814749570E+03 -0.22046397055E+03  0.10347940851E+04  0.00000000000E+00 0. -1.
        -13    1    3    3    0    0 -0.24010438164E+03  0.19576536034E+03 -0.11574701558E+03  0.33071371609E+03  0.00000000000E+00 0.  1.
         22    1    1    2    0    0  0.97139400308E+03 -0.89391285603E+03 -0.58450962530E+02  0.13214019140E+04  0.00000000000E+00 0.  1.
<mgrwt>
<rscale>  0 0.26577671E+04</rscale>
<asrwt>0</asrwt>
<pdfrwt beam="1">  1        2 0.17632675E+00 0.26577671E+04</pdfrwt>
<pdfrwt beam="2">  1       -2 0.23704397E+00 0.26577671E+04</pdfrwt>
<totfact> 0.13885251E+00</totfact>
</mgrwt>
</event>
<event>
 6    1  0.5196787E-004  0.1689748E+04  0.7818608E-02  0.8767233E-01
          2   -1    0    0  501    0  0.00000000000E+00  0.00000000000E+00  0.29210378531E+04  0.29210378531E+04  0.00000000000E+00 0.  1.
         -2   -1    0    0    0  501 -0.00000000000E+00 -0.00000000000E+00 -0.24436939558E+03  0.24436939558E+03  0.00000000000E+00 0. -1.
         23    2    1    2    0    0  0.18014755612E+03  0.26827516542E+03  0.27996465473E+04  0.28196496502E+04  0.89323311904E+02 0.  0.
         13    1    3    3    0    0  0.69821201799E+02  0.17242804437E+03  0.13751226815E+04  0.13876486659E+04  0.00000000000E+00 0. -1.
        -13    1    3    3    0    0  0.11032635432E+03  0.95847121047E+02  0.14245238658E+04  0.14320009844E+04  0.00000000000E+00 0.  1.
         22    1    1    2    0    0 -0.18014755612E+03 -0.26827516542E+03 -0.12297808972E+03  0.34575759848E+03  0.00000000000E+00 0. -1.
<mgrwt>
<rscale>  0 0.16897482E+04</rscale>
<asrwt>0</asrwt>
<pdfrwt beam="1">  1        2 0.44939041E+00 0.16897482E+04</pdfrwt>
<pdfrwt beam="2">  1       -2 0.37595294E-01 0.16897482E+04</pdfrwt>
<totfact> 0.12447042E+01</totfact>
</mgrwt>
</event>
<event>
 6    1  0.5196787E-004  0.2559079E+04  0.7818608E-02  0.8382236E-01
          2   -1    0    0  501    0  0.00000000000E+00  0.00000000000E+00  0.26553292930E+04  0.26553292930E+04  0.00000000000E+00 0.  1.
         -2   -1    0    0    0  501 -0.00000000000E+00 -0.00000000000E+00 -0.61657927344E+03  0.61657927344E+03  0.00000000000E+00 0. -1.
         23    2    1    2    0    0 -0.10091807678E+04 -0.15836511306E+03  0.38954551063E+02  0.10263112635E+04  0.90950653176E+02 0.  0.
         13    1    3    3    0    0 -0.25784971747E+03 -0.18979130924E+02 -0.23495391801E+02  0.25961262998E+03  0.00000000000E+00 0.  1.
        -13    1    3    3    0    0 -0.75133105037E+03 -0.13938598214E+03  0.62449942864E+02  0.76669863351E+03  0.00000000000E+00 0. -1.
         22    1    1    2    0    0  0.10091807678E+04  0.15836511306E+03  0.19997954685E+04  0.22455973029E+04  0.00000000000E+00 0.  1.
<mgrwt>
<rscale>  0 0.25590787E+04</rscale>
<asrwt>0</asrwt>
<pdfrwt beam="1">  1        2 0.40851219E+00 0.25590787E+04</pdfrwt>
<pdfrwt beam="2">  1       -2 0.94858351E-01 0.25590787E+04</pdfrwt>
<totfact> 0.23428128E+00</totfact>
</mgrwt>
</event>
<event>
 6    1  0.5196787E-004  0.3039681E+04  0.7818608E-02  0.8232490E-01
         -2   -1    0    0    0  501 -0.00000000000E+00  0.00000000000E+00  0.86146925480E+03  0.86146925480E+03  0.00000000000E+00 0. -1.
          2   -1    0    0  501    0  0.00000000000E+00 -0.00000000000E+00 -0.26813666289E+04  0.26813666289E+04  0.00000000000E+00 0.  1.
         23    2    1    2    0    0  0.84943737266E+03 -0.37822503804E+03 -0.23092951317E+04  0.24920703559E+04  0.11389742658E+03 0.  0.
         13    1    3    3    0    0  0.26507960833E+03 -0.99857514463E+02 -0.84137943341E+03  0.88778267211E+03  0.00000000000E+00 0. -1.
        -13    1    3    3    0    0  0.58435776433E+03 -0.27836752358E+03 -0.14679156983E+04  0.16042876837E+04  0.00000000000E+00 0.  1.
         22    1    1    2    0    0 -0.84943737266E+03  0.37822503804E+03  0.48939775756E+03  0.10507655279E+04  0.00000000000E+00 0. -1.
<mgrwt>
<rscale>  0 0.30396808E+04</rscale>
<asrwt>0</asrwt>
<pdfrwt beam="1">  1        2 0.41251795E+00 0.30396808E+04</pdfrwt>
<pdfrwt beam="2">  1       -2 0.13253373E+00 0.30396808E+04</pdfrwt>
<totfact> 0.96083758E-01</totfact>
</mgrwt>
</event>
<event>
 6    1  0.5196787E-004  0.3869949E+04  0.7818608E-02  0.8031308E-01
          2   -1    0    0  501    0  0.00000000000E+00  0.00000000000E+00  0.18628127721E+04  0.18628127721E+04  0.00000000000E+00 0.  1.
         -2   -1    0    0    0  501 -0.00000000000E+00 -0.00000000000E+00 -0.20099320604E+04  0.20099320604E+04  0.00000000000E+00 0. -1.
         23    2    1    2    0    0 -0.60584127166E+02  0.17875195519E+04  0.66270716462E+03  0.19094019005E+04  0.87967304279E+02 0.  0.
         11    1    3    3    0    0 -0.70375477308E+01  0.97790487324E+03  0.39965048998E+03  0.10564411873E+04  0.00000000000E+00 0.  1.
        -11    1    3    3    0    0 -0.53546579435E+02  0.80961467866E+03  0.26305667464E+03  0.85296071313E+03  0.00000000000E+00 0. -1.
         22    1    1    2    0    0  0.60584127166E+02 -0.17875195519E+04 -0.80982645296E+03  0.19633429320E+04  0.00000000000E+00 0. -1.
<mgrwt>
<rscale>  0 0.38699494E+04</rscale>
<asrwt>0</asrwt>
<pdfrwt beam="1">  1        2 0.28658658E+00 0.38699494E+04</pdfrwt>
<pdfrwt beam="2">  1       -2 0.30922032E+00 0.38699494E+04</pdfrwt>
<totfact> 0.17712404E-01</totfact>
</mgrwt>
</event>
<event>
 6    1  0.5196787E-004  0.1628580E+04  0.7818608E-02  0.8803180E-01
         -2   -1    0    0    0  501 -0.00000000000E+00  0.00000000000E+00  0.40225266368E+03  0.40225266368E+03  0.00000000000E+00 0. -1.
          2   -1    0    0  501    0  0.00000000000E+00 -0.00000000000E+00 -0.16483879580E+04  0.16483879580E+04  0.00000000000E+00 0.  1.
         23    2    1    2    0    0 -0.57546416378E+03  0.49916846686E+03 -0.97913818736E+03  0.12434135055E+04  0.83889173852E+02 0.  0.
         11    1    3    3    0    0 -0.68966762632E+02  0.27694651037E+02 -0.88985193789E+02  0.11593865946E+03  0.00000000000E+00 0.  1.
        -11    1    3    3    0    0 -0.50649740114E+03  0.47147381583E+03 -0.89015299357E+03  0.11274748460E+04  0.00000000000E+00 0. -1.
         22    1    1    2    0    0  0.57546416378E+03 -0.49916846686E+03 -0.26699710701E+03  0.80722711628E+03  0.00000000000E+00 0. -1.
<mgrwt>
<rscale>  0 0.16285803E+04</rscale>
<asrwt>0</asrwt>
<pdfrwt beam="1">  1        2 0.25359814E+00 0.16285803E+04</pdfrwt>
<pdfrwt beam="2">  1       -2 0.61885026E-01 0.16285803E+04</pdfrwt>
<totfact> 0.24313181E+01</totfact>
</mgrwt>
</event>
<event>
 6    1  0.5196787E-004  0.2466187E+04  0.7818608E-02  0.8415132E-01
         -2   -1    0    0    0  501 -0.00000000000E+00  0.00000000000E+00  0.16672887314E+04  0.16672887314E+04  0.00000000000E+00 0. -1.
          2   -1    0    0  501    0  0.00000000000E+00 -0.00000000000E+00 -0.91197123543E+03  0.91197123543E+03  0.00000000000E+00 0.  1.
         23    2    1    2    0    0  0.68712471857E+03  0.87855264850E+03 -0.16761401426E+03  0.11315729469E+04  0.91475359266E+02 0.  0.
         13    1    3    3    0    0  0.26968989344E+03  0.32718136459E+03 -0.20292394732E+02  0.42449035942E+03  0.00000000000E+00 0.  1.
        -13    1    3    3    0    0  0.41743482513E+03  0.55137128391E+03 -0.14732161953E+03  0.70708258749E+03  0.00000000000E+00 0. -1.
         22    1    1    2    0    0 -0.68712471857E+03 -0.87855264850E+03  0.92293151024E+03  0.14476870199E+04  0.00000000000E+00 0. -1.
<mgrwt>
<rscale>  0 0.24661868E+04</rscale>
<asrwt>0</asrwt>
<pdfrwt beam="1">  1        2 0.14030327E+00 0.24661868E+04</pdfrwt>
<pdfrwt beam="2">  1       -2 0.25650596E+00 0.24661868E+04</pdfrwt>
<totfact> 0.15085219E+00</totfact>
</mgrwt>
</event>
<event>
 6    1  0.5196787E-004  0.1815198E+04  0.7818608E-02  0.8698259E-01
         -2   -1    0    0    0  501 -0.00000000000E+00  0.00000000000E+00  0.46884882967E+03  0.46884882967E+03  0.00000000000E+00 0. -1.
          2   -1    0    0  501    0  0.00000000000E+00 -0.00000000000E+00 -0.17569333691E+04  0.17569333691E+04  0.00000000000E+00 0.  1.
         23    2    1    2    0    0 -0.26813517497E+03  0.50345790156E+03  0.21650160376E+03  0.61669991592E+03  0.89886101072E+02 0.  0.
         11    1    3    3    0    0 -0.21860168685E+03  0.35512193555E+03  0.18929259870E+03  0.45796285278E+03  0.00000000000E+00 0. -1.
        -11    1    3    3    0    0 -0.49533488114E+02  0.14833596601E+03  0.27209005052E+02  0.15873706314E+03  0.00000000000E+00 0.  1.
         22    1    1    2    0    0  0.26813517497E+03 -0.50345790156E+03 -0.15045861432E+04  0.16090822828E+04  0.00000000000E+00 0.  1.
<mgrwt>
<rscale>  0 0.18151982E+04</rscale>
<asrwt>0</asrwt>
<pdfrwt beam="1">  1        2 0.27029744E+00 0.18151982E+04</pdfrwt>
<pdfrwt beam="2">  1       -2 0.72130591E-01 0.18151982E+04</pdfrwt>
<totfact> 0.14962251E+01</totfact>
</mgrwt>
</event>
<event>
 6    1  0.5196787E-004  0.2843594E+04  0.7818608E-02  0.8289860E-01
         -2   -1    0    0    0  501 -0.00000000000E+00  0.00000000000E+00  0.85322237009E+03  0.85322237009E+03  0.00000000000E+00 0. -1.
          2   -1    0    0  501    0  0.00000000000E+00 -0.00000000000E+00 -0.23692618351E+04  0.23692618351E+04  0.00000000000E+00 0.  1.
         23    2    1    2    0    0  0.28831697909E+03 -0.13891756465E+04 -0.83358503862E+03  0.16481018814E+04  0.91870220595E+02 0.  0.
         11    1    3    3    0    0  0.14198566443E+03 -0.86965413177E+03 -0.54441400181E+03  0.10357822373E+04  0.00000000000E+00 0.  1.
        -11    1    3    3    0    0  0.14633131465E+03 -0.51952151477E+03 -0.28917103681E+03  0.61231964404E+03  0.00000000000E+00 0. -1.
         22    1    1    2    0    0 -0.28831697909E+03  0.13891756465E+04 -0.68245442637E+03  0.15743823238E+04  0.00000000000E+00 0. -1.
<mgrwt>
<rscale>  0 0.28435943E+04</rscale>
<asrwt>0</asrwt>
<pdfrwt beam="1">  1        2 0.36450182E+00 0.28435943E+04</pdfrwt>
<pdfrwt beam="2">  1       -2 0.13126498E+00 0.28435943E+04</pdfrwt>
<totfact> 0.15208781E+00</totfact>
</mgrwt>
</event>
<event>
 6    1  0.5196787E-004  0.1951545E+04  0.7818608E-02  0.8629616E-01
          2   -1    0    0  501    0  0.00000000000E+00  0.00000000000E+00  0.15889254981E+04  0.15889254981E+04  0.00000000000E+00 0.  1.
         -2   -1    0    0    0  501 -0.00000000000E+00 -0.00000000000E+00 -0.59923024766E+03  0.59923024766E+03  0.00000000000E+00 0. -1.
         23    2    1    2    0    0 -0.51511241899E+03  0.58533086722E+03 -0.15770702919E+03  0.80089765169E+03  0.92803626610E+02 0.  0.
         13    1    3    3    0    0 -0.16682399245E+03  0.24283972700E+03 -0.30915943461E+02  0.29623837196E+03  0.00000000000E+00 0.  1.
        -13    1    3    3    0    0 -0.34828842654E+03  0.34249114022E+03 -0.12679108573E+03  0.50465927973E+03  0.00000000000E+00 0. -1.
         22    1    1    2    0    0  0.51511241899E+03 -0.58533086722E+03  0.11474022797E+04  0.13872580941E+04  0.00000000000E+00 0.  1.
<mgrwt>
<rscale>  0 0.19515453E+04</rscale>
<asrwt>0</asrwt>
<pdfrwt beam="1">  1        2 0.24445008E+00 0.19515453E+04</pdfrwt>
<pdfrwt beam="2">  1       -2 0.92189269E-01 0.19515453E+04</pdfrwt>
<totfact> 0.10547088E+01</totfact>
</mgrwt>
</event>
<event>
 6    1  0.5196787E-004  0.4927909E+04  0.7818608E-02  0.7839725E-01
         -2   -1    0    0    0  501 -0.00000000000E+00  0.00000000000E+00  0.42036939797E+04  0.42036939797E+04  0.00000000000E+00 0. -1.
          2   -1    0    0  501    0  0.00000000000E+00 -0.00000000000E+00 -0.14442229338E+04  0.14442229338E+04  0.00000000000E+00 0.  1.
         23    2    1    2    0    0 -0.16334005703E+04 -0.16632435975E+04  0.22917086210E+04  0.32702755667E+04  0.91636186766E+02 0.  0.
         13    1    3    3    0    0 -0.10929720318E+04 -0.11702628567E+04  0.15534948682E+04  0.22310197941E+04  0.00000000000E+00 0.  1.
        -13    1    3    3    0    0 -0.54042853856E+03 -0.49298074071E+03  0.73821375280E+03  0.10392557726E+04  0.00000000000E+00 0. -1.
         22    1    1    2    0    0  0.16334005703E+04  0.16632435975E+04  0.46776242491E+03  0.23776413468E+04  0.00000000000E+00 0.  1.
<mgrwt>
<rscale>  0 0.49279088E+04</rscale>
<asrwt>0</asrwt>
<pdfrwt beam="1">  1        2 0.22218815E+00 0.49279088E+04</pdfrwt>
<pdfrwt beam="2">  1       -2 0.64672215E+00 0.49279088E+04</pdfrwt>
<totfact> 0.34776447E-03</totfact>
</mgrwt>
</event>
<event>
 6    1  0.5196787E-004  0.3528418E+04  0.7818608E-02  0.8107088E-01
         -2   -1    0    0    0  501 -0.00000000000E+00  0.00000000000E+00  0.29337478447E+04  0.29337478447E+04  0.00000000000E+00 0. -1.
          2   -1    0    0  501    0  0.00000000000E+00 -0.00000000000E+00 -0.10609067876E+04  0.10609067876E+04  0.00000000000E+00 0.  1.
         23    2    1    2    0    0 -0.33663454085E+03 -0.17194480243E+04  0.11595448604E+04  0.21029316645E+04  0.89179482161E+02 0.  0.
         13    1    3    3    0    0 -0.56727338313E+02 -0.40042088280E+03  0.30522394419E+03  0.50667201462E+03  0.00000000000E+00 0. -1.
        -13    1    3    3    0    0 -0.27990720254E+03 -0.13190271415E+04  0.85432091618E+03  0.15962596499E+04  0.00000000000E+00 0.  1.
         22    1    1    2    0    0  0.33663454085E+03  0.17194480243E+04  0.71329619681E+03  0.18917229678E+04  0.00000000000E+00 0. -1.
<mgrwt>
<rscale>  0 0.35284178E+04</rscale>
<asrwt>0</asrwt>
<pdfrwt beam="1">  1        2 0.16321643E+00 0.35284178E+04</pdfrwt>
<pdfrwt beam="2">  1       -2 0.45134582E+00 0.35284178E+04</pdfrwt>
<totfact> 0.64167767E-02</totfact>
</mgrwt>
</event>
<event>
 6    1  0.5196787E-004  0.1396932E+04  0.7818608E-02  0.8956043E-01
         -2   -1    0    0    0  501 -0.00000000000E+00  0.00000000000E+00  0.40883243509E+03  0.40883243509E+03  0.00000000000E+00 0. -1.
          2   -1    0    0  501    0  0.00000000000E+00 -0.00000000000E+00 -0.11932871422E+04  0.11932871422E+04  0.00000000000E+00 0.  1.
         23    2    1    2    0    0 -0.58038449058E+03 -0.20041465156E+03 -0.76848097613E+03  0.98789864833E+03  0.91479720366E+02 0.  0.
         13    1    3    3    0    0 -0.19954703668E+03 -0.11521090370E+03 -0.29470883657E+03  0.37409339814E+03  0.00000000000E+00 0.  1.
        -13    1    3    3    0    0 -0.38083745390E+03 -0.85203747865E+02 -0.47377213956E+03  0.61380525019E+03  0.00000000000E+00 0. -1.
         22    1    1    2    0    0  0.58038449058E+03  0.20041465156E+03 -0.15973730973E+02  0.61422092894E+03  0.00000000000E+00 0.  1.
<mgrwt>
<rscale>  0 0.13969316E+04</rscale>
<asrwt>0</asrwt>
<pdfrwt beam="1">  1        2 0.18358263E+00 0.13969316E+04</pdfrwt>
<pdfrwt beam="2">  1       -2 0.62897300E-01 0.13969316E+04</pdfrwt>
<totfact> 0.43601196E+01</totfact>
</mgrwt>
</event>
<event>
 6    1  0.5196787E-004  0.4427395E+04  0.7818608E-02  0.7923472E-01
          2   -1    0    0  501    0  0.00000000000E+00  0.00000000000E+00  0.28990011592E+04  0.28990011592E+04  0.00000000000E+00 0.  1.
         -2   -1    0    0    0  501 -0.00000000000E+00 -0.00000000000E+00 -0.16903948628E+04  0.16903948628E+04  0.00000000000E+00 0. -1.
         23    2    1    2    0    0 -0.47332176345E+03 -0.34504276126E+03 -0.16073124384E+04  0.17132029965E+04  0.92321360602E+02 0.  0.
         11    1    3    3    0    0 -0.30232764386E+03 -0.17778722267E+03 -0.86886942131E+03  0.93698685800E+03  0.00000000000E+00 0. -1.
        -11    1    3    3    0    0 -0.17099411960E+03 -0.16725553859E+03 -0.73844301714E+03  0.77621613851E+03  0.00000000000E+00 0.  1.
         22    1    1    2    0    0  0.47332176345E+03  0.34504276126E+03  0.28159187348E+04  0.28761930255E+04  0.00000000000E+00 0.  1.
<mgrwt>
<rscale>  0 0.44273950E+04</rscale>
<asrwt>0</asrwt>
<pdfrwt beam="1">  1        2 0.44600018E+00 0.44273950E+04</pdfrwt>
<pdfrwt beam="2">  1       -2 0.26006075E+00 0.44273950E+04</pdfrwt>
<totfact> 0.85448121E-02</totfact>
</mgrwt>
</event>
<event>
 6    1  0.5196787E-004  0.4818287E+04  0.7818608E-02  0.7857166E-01
         -2   -1    0    0    0  501 -0.00000000000E+00  0.00000000000E+00  0.14243340304E+04  0.14243340304E+04  0.00000000000E+00 0. -1.
          2   -1    0    0  501    0  0.00000000000E+00 -0.00000000000E+00 -0.40748673590E+04  0.40748673590E+04  0.00000000000E+00 0.  1.
         23    2    1    2    0    0 -0.66500885201E+03  0.15120746294E+04  0.67442245466E+03  0.17865288454E+04  0.90737038189E+02 0.  0.
         11    1    3    3    0    0 -0.10212499552E+03  0.27236291702E+03  0.15224487004E+03  0.32831322504E+03  0.00000000000E+00 0.  1.
        -11    1    3    3    0    0 -0.56288385649E+03  0.12397117124E+04  0.52217758461E+03  0.14582156204E+04  0.00000000000E+00 0. -1.
         22    1    1    2    0    0  0.66500885201E+03 -0.15120746294E+04 -0.33249557833E+04  0.37126725440E+04  0.00000000000E+00 0.  1.
<mgrwt>
<rscale>  0 0.48182869E+04</rscale>
<asrwt>0</asrwt>
<pdfrwt beam="1">  1        2 0.62690266E+00 0.48182869E+04</pdfrwt>
<pdfrwt beam="2">  1       -2 0.21912832E+00 0.48182869E+04</pdfrwt>
<totfact> 0.21847525E-02</totfact>
</mgrwt>
</event>
<event>
 6    1  0.5196787E-004  0.2312116E+04  0.7818608E-02  0.8473159E-01
          2   -1    0    0  501    0  0.00000000000E+00  0.00000000000E+00  0.20624948103E+04  0.20624948103E+04  0.00000000000E+00 0.  1.
         -2   -1    0    0    0  501 -0.00000000000E+00 -0.00000000000E+00 -0.64798689274E+03  0.64798689274E+03  0.00000000000E+00 0. -1.
         23    2    1    2    0    0 -0.82793933838E+03 -0.65172540224E+03  0.15602373186E+03  0.10691371342E+04  0.92093750703E+02 0.  0.
         11    1    3    3    0    0 -0.41702823221E+03 -0.27431980545E+03  0.55693824874E+02  0.50226059397E+03  0.00000000000E+00 0. -1.
        -11    1    3    3    0    0 -0.41091110617E+03 -0.37740559679E+03  0.10032990699E+03  0.56687654026E+03  0.00000000000E+00 0.  1.
         22    1    1    2    0    0  0.82793933838E+03  0.65172540224E+03  0.12584841857E+04  0.16413445689E+04  0.00000000000E+00 0.  1.
<mgrwt>
<rscale>  0 0.23121156E+04</rscale>
<asrwt>0</asrwt>
<pdfrwt beam="1">  1        2 0.31730689E+00 0.23121156E+04</pdfrwt>
<pdfrwt beam="2">  1       -2 0.99690292E-01 0.23121156E+04</pdfrwt>
<totfact> 0.46468558E+00</totfact>
</mgrwt>
</event>
<event>
 6    1  0.5196787E-004  0.8079901E+03  0.7818608E-02  0.9548523E-01
         -2   -1    0    0    0  501 -0.00000000000E+00  0.00000000000E+00  0.23367651257E+03  0.23367651257E+03  0.00000000000E+00 0. -1.
          2   -1    0    0  501    0  0.00000000000E+00 -0.00000000000E+00 -0.69845275552E+03  0.69845275552E+03  0.00000000000E+00 0.  1.
         23    2    1    2    0    0  0.13694469337E+03 -0.35106621495E+02 -0.66560748034E+03  0.68652896307E+03  0.91117371231E+02 0.  0.
         11    1    3    3    0    0  0.80779701452E+01 -0.37437280225E+02 -0.18620879297E+03  0.19010659676E+03  0.00000000000E+00 0. -1.
        -11    1    3    3    0    0  0.12886672322E+03  0.23306587303E+01 -0.47939868736E+03  0.49642236631E+03  0.00000000000E+00 0.  1.
         22    1    1    2    0    0 -0.13694469337E+03  0.35106621495E+02  0.20083123739E+03  0.24560030502E+03  0.00000000000E+00 0. -1.
<mgrwt>
<rscale>  0 0.80799011E+03</rscale>
<asrwt>0</asrwt>
<pdfrwt beam="1">  1        2 0.10745427E+00 0.80799011E+03</pdfrwt>
<pdfrwt beam="2">  1       -2 0.35950232E-01 0.80799011E+03</pdfrwt>
<totfact> 0.30049993E+02</totfact>
</mgrwt>
</event>
<event>
 6    1  0.5196787E-004  0.4377855E+04  0.7818608E-02  0.7932377E-01
          2   -1    0    0  501    0  0.00000000000E+00  0.00000000000E+00  0.35922077468E+04  0.35922077468E+04  0.00000000000E+00 0.  1.
         -2   -1    0    0    0  501 -0.00000000000E+00 -0.00000000000E+00 -0.13338326679E+04  0.13338326679E+04  0.00000000000E+00 0. -1.
         23    2    1    2    0    0 -0.20917355360E+04 -0.51398186346E+03  0.69717218945E+03  0.22657980628E+04  0.90867438377E+02 0.  0.
         11    1    3    3    0    0 -0.13638857222E+04 -0.37396443857E+03  0.43531930628E+03  0.14797082696E+04  0.00000000000E+00 0.  1.
        -11    1    3    3    0    0 -0.72784981376E+03 -0.14001742489E+03  0.26185288317E+03  0.78608979327E+03  0.00000000000E+00 0. -1.
         22    1    1    2    0    0  0.20917355360E+04  0.51398186346E+03  0.15612028895E+04  0.26602423519E+04  0.00000000000E+00 0. -1.
<mgrwt>
<rscale>  0 0.43778552E+04</rscale>
<asrwt>0</asrwt>
<pdfrwt beam="1">  1        2 0.55264734E+00 0.43778552E+04</pdfrwt>
<pdfrwt beam="2">  1       -2 0.20520503E+00 0.43778552E+04</pdfrwt>
<totfact> 0.65668324E-02</totfact>
</mgrwt>
</event>
<event>
 6    1  0.5196787E-004  0.2044641E+04  0.7818608E-02  0.8586029E-01
          2   -1    0    0  501    0  0.00000000000E+00  0.00000000000E+00  0.33442373021E+04  0.33442373021E+04  0.00000000000E+00 0.  1.
         -2   -1    0    0    0  501 -0.00000000000E+00 -0.00000000000E+00 -0.31251942722E+03  0.31251942722E+03  0.00000000000E+00 0. -1.
         23    2    1    2    0    0 -0.11152725906E+03 -0.25145291503E+03  0.32760583930E+04  0.32888312113E+04  0.90472338347E+02 0.  0.
         11    1    3    3    0    0  0.20779891190E+01 -0.69849888953E+02  0.56097867636E+03  0.56531442610E+03  0.00000000000E+00 0.  1.
        -11    1    3    3    0    0 -0.11360524817E+03 -0.18160302608E+03  0.27150797167E+04  0.27235167852E+04  0.00000000000E+00 0. -1.
         22    1    1    2    0    0  0.11152725906E+03  0.25145291503E+03 -0.24434051814E+03  0.36792551800E+03  0.00000000000E+00 0. -1.
<mgrwt>
<rscale>  0 0.20446409E+04</rscale>
<asrwt>0</asrwt>
<pdfrwt beam="1">  1        2 0.51449802E+00 0.20446409E+04</pdfrwt>
<pdfrwt beam="2">  1       -2 0.48079914E-01 0.20446409E+04</pdfrwt>
<totfact> 0.39624649E+00</totfact>
</mgrwt>
</event>
<event>
 6    1  0.5196787E-004  0.5700195E+03  0.7818608E-02  0.9969635E-01
         -2   -1    0    0    0  501 -0.00000000000E+00  0.00000000000E+00  0.22380034280E+02  0.22380034280E+02  0.00000000000E+00 0. -1.
          2   -1    0    0  501    0  0.00000000000E+00 -0.00000000000E+00 -0.36295995805E+04  0.36295995805E+04  0.00000000000E+00 0.  1.
         23    2    1    2    0    0  0.13844672703E+02  0.11672534705E+02 -0.36252072151E+04  0.36264555230E+04  0.93404418416E+02 0.  0.
         11    1    3    3    0    0 -0.26240777442E+02  0.38152462475E+02 -0.20138559000E+04  0.20143881887E+04  0.00000000000E+00 0. -1.
        -11    1    3    3    0    0  0.40085450145E+02 -0.26479927770E+02 -0.16113513151E+04  0.16120673344E+04  0.00000000000E+00 0.  1.
         22    1    1    2    0    0 -0.13844672703E+02 -0.11672534705E+02  0.17987668847E+02  0.25524091742E+02  0.00000000000E+00 0. -1.
<mgrwt>
<rscale>  0 0.57001952E+03</rscale>
<asrwt>0</asrwt>
<pdfrwt beam="1">  1        2 0.55840033E+00 0.57001952E+03</pdfrwt>
<pdfrwt beam="2">  1       -2 0.34430797E-02 0.57001952E+03</pdfrwt>
<totfact> 0.26779856E+02</totfact>
</mgrwt>
</event>
<event>
 6    1  0.5196787E-004  0.2193396E+04  0.7818608E-02  0.8521182E-01
         -2   -1    0    0    0  501 -0.00000000000E+00  0.00000000000E+00  0.34567664616E+03  0.34567664616E+03  0.00000000000E+00 0. -1.
          2   -1    0    0  501    0  0.00000000000E+00 -0.00000000000E+00 -0.34793989747E+04  0.34793989747E+04  0.00000000000E+00 0.  1.
         23    2    1    2    0    0 -0.32670808628E+03 -0.10282972960E+04 -0.18938568863E+04  0.21814820527E+04  0.89646738622E+02 0.  0.
         11    1    3    3    0    0 -0.22931575738E+03 -0.68761462513E+03 -0.13522064628E+04  0.15342300699E+04  0.00000000000E+00 0. -1.
        -11    1    3    3    0    0 -0.97392328902E+02 -0.34068267084E+03 -0.54165042354E+03  0.64725198282E+03  0.00000000000E+00 0.  1.
         22    1    1    2    0    0  0.32670808628E+03  0.10282972960E+04 -0.12398654422E+04  0.16435935682E+04  0.00000000000E+00 0.  1.
<mgrwt>
<rscale>  0 0.21933964E+04</rscale>
<asrwt>0</asrwt>
<pdfrwt beam="1">  1        2 0.53529218E+00 0.21933964E+04</pdfrwt>
<pdfrwt beam="2">  1       -2 0.53181019E-01 0.21933964E+04</pdfrwt>
<totfact> 0.25709950E+00</totfact>
</mgrwt>
</event>
<event>
 6    1  0.5196787E-004  0.2314226E+04  0.7818608E-02  0.8472333E-01
         -2   -1    0    0    0  501 -0.00000000000E+00  0.00000000000E+00  0.58863857691E+03  0.58863857691E+03  0.00000000000E+00 0. -1.
          2   -1    0    0  501    0  0.00000000000E+00 -0.00000000000E+00 -0.22745878250E+04  0.22745878250E+04  0.00000000000E+00 0.  1.
         23    2    1    2    0    0  0.65283364119E+03  0.88090053116E+03 -0.12948706892E+04  0.16991302082E+04  0.90420428451E+02 0.  0.
         11    1    3    3    0    0  0.25748712544E+03  0.42277955463E+03 -0.57749449646E+03  0.76061952711E+03  0.00000000000E+00 0. -1.
        -11    1    3    3    0    0  0.39534651575E+03  0.45812097653E+03 -0.71737619275E+03  0.93851068112E+03  0.00000000000E+00 0.  1.
         22    1    1    2    0    0 -0.65283364119E+03 -0.88090053116E+03 -0.39107855884E+03  0.11640961936E+04  0.00000000000E+00 0. -1.
<mgrwt>
<rscale>  0 0.23142257E+04</rscale>
<asrwt>0</asrwt>
<pdfrwt beam="1">  1        2 0.34993659E+00 0.23142257E+04</pdfrwt>
<pdfrwt beam="2">  1       -2 0.90559780E-01 0.23142257E+04</pdfrwt>
<totfact> 0.44206670E+00</totfact>
</mgrwt>
</event>
<event>
 6    1  0.5196787E-004  0.1983378E+04  0.7818608E-02  0.8614431E-01
         -2   -1    0    0    0  501 -0.00000000000E+00  0.00000000000E+00  0.12296285681E+04  0.12296285681E+04  0.00000000000E+00 0. -1.
          2   -1    0    0  501    0  0.00000000000E+00 -0.00000000000E+00 -0.79979231786E+03  0.79979231786E+03  0.00000000000E+00 0.  1.
         23    2    1    2    0    0  0.11512603325E+03 -0.65838190265E+03  0.96209530165E+03  0.11750085551E+04  0.91087880272E+02 0.  0.
         11    1    3    3    0    0  0.84856921953E+02 -0.23201817796E+03  0.34459910468E+03  0.42400669223E+03  0.00000000000E+00 0. -1.
        -11    1    3    3    0    0  0.30269111297E+02 -0.42636372468E+03  0.61749619697E+03  0.75100186291E+03  0.00000000000E+00 0.  1.
         22    1    1    2    0    0 -0.11512603325E+03  0.65838190265E+03 -0.53225905140E+03  0.85441233082E+03  0.00000000000E+00 0.  1.
<mgrwt>
<rscale>  0 0.19833784E+04</rscale>
<asrwt>0</asrwt>
<pdfrwt beam="1">  1        2 0.12304497E+00 0.19833784E+04</pdfrwt>
<pdfrwt beam="2">  1       -2 0.18917363E+00 0.19833784E+04</pdfrwt>
<totfact> 0.50301380E+00</totfact>
</mgrwt>
</event>
<event>
 6    1  0.5196787E-004  0.3389183E+04  0.7818608E-02  0.8140566E-01
         -2   -1    0    0    0  501 -0.00000000000E+00  0.00000000000E+00  0.15243031396E+04  0.15243031396E+04  0.00000000000E+00 0. -1.
          2   -1    0    0  501    0  0.00000000000E+00 -0.00000000000E+00 -0.18839040887E+04  0.18839040887E+04  0.00000000000E+00 0.  1.
         23    2    1    2    0    0  0.15966170320E+04  0.17627409332E+03  0.35899755292E+03  0.16484793203E+04  0.91358216064E+02 0.  0.
         11    1    3    3    0    0  0.20003624777E+03  0.41786165630E+01  0.69946249558E+02  0.21195386075E+03  0.00000000000E+00 0. -1.
        -11    1    3    3    0    0  0.13965807843E+04  0.17209547676E+03  0.28905130336E+03  0.14365254596E+04  0.00000000000E+00 0.  1.
         22    1    1    2    0    0 -0.15966170320E+04 -0.17627409332E+03 -0.71859850205E+03  0.17597279080E+04  0.00000000000E+00 0.  1.
<mgrwt>
<rscale>  0 0.33891833E+04</rscale>
<asrwt>0</asrwt>
<pdfrwt beam="1">  1        2 0.28983140E+00 0.33891833E+04</pdfrwt>
<pdfrwt beam="2">  1       -2 0.23450818E+00 0.33891833E+04</pdfrwt>
<totfact> 0.51504311E-01</totfact>
</mgrwt>
</event>
<event>
 6    1  0.5196787E-004  0.1219363E+04  0.7818608E-02  0.9096075E-01
          2   -1    0    0  501    0  0.00000000000E+00  0.00000000000E+00  0.13539222365E+04  0.13539222365E+04  0.00000000000E+00 0.  1.
         -2   -1    0    0    0  501 -0.00000000000E+00 -0.00000000000E+00 -0.27454435961E+03  0.27454435961E+03  0.00000000000E+00 0. -1.
         23    2    1    2    0    0  0.58535729090E+03 -0.90386654288E+02  0.71587222277E+03  0.93352108325E+03  0.90419402038E+02 0.  0.
         13    1    3    3    0    0  0.23615947447E+03 -0.81501343802E+02  0.30209780858E+03  0.39201639299E+03  0.00000000000E+00 0. -1.
        -13    1    3    3    0    0  0.34919781643E+03 -0.88853104867E+01  0.41377441419E+03  0.54150469026E+03  0.00000000000E+00 0.  1.
         22    1    1    2    0    0 -0.58535729090E+03  0.90386654288E+02  0.36350565415E+03  0.69494551289E+03  0.00000000000E+00 0. -1.
<mgrwt>
<rscale>  0 0.12193633E+04</rscale>
<asrwt>0</asrwt>
<pdfrwt beam="1">  1        2 0.20829573E+00 0.12193633E+04</pdfrwt>
<pdfrwt beam="2">  1       -2 0.42237594E-01 0.12193633E+04</pdfrwt>
<totfact> 0.80491075E+01</totfact>
</mgrwt>
</event>
<event>
 6    1  0.5196787E-004  0.3420787E+04  0.7818608E-02  0.8132823E-01
         -2   -1    0    0    0  501 -0.00000000000E+00  0.00000000000E+00  0.20104310651E+04  0.20104310651E+04  0.00000000000E+00 0. -1.
          2   -1    0    0  501    0  0.00000000000E+00 -0.00000000000E+00 -0.14551334307E+04  0.14551334307E+04  0.00000000000E+00 0.  1.
         23    2    1    2    0    0  0.84163515020E+03 -0.12092463652E+04 -0.59986561226E+03  0.15933923285E+04  0.91836061466E+02 0.  0.
         13    1    3    3    0    0  0.22224372747E+03 -0.31972750702E+03 -0.20282137005E+03  0.43903810916E+03  0.00000000000E+00 0. -1.
        -13    1    3    3    0    0  0.61939142273E+03 -0.88951885815E+03 -0.39704424221E+03  0.11543542194E+04  0.00000000000E+00 0.  1.
         22    1    1    2    0    0 -0.84163515020E+03  0.12092463652E+04  0.11551632466E+04  0.18721721673E+04  0.00000000000E+00 0. -1.
<mgrwt>
<rscale>  0 0.34207867E+04</rscale>
<asrwt>0</asrwt>
<pdfrwt beam="1">  1        2 0.22386668E+00 0.34207867E+04</pdfrwt>
<pdfrwt beam="2">  1       -2 0.30929709E+00 0.34207867E+04</pdfrwt>
<totfact> 0.31019618E-01</totfact>
</mgrwt>
</event>
<event>
 6    1  0.5196787E-004  0.1481077E+04  0.7818608E-02  0.8897135E-01
         -2   -1    0    0    0  501 -0.00000000000E+00  0.00000000000E+00  0.47876062764E+03  0.47876062764E+03  0.00000000000E+00 0. -1.
          2   -1    0    0  501    0  0.00000000000E+00 -0.00000000000E+00 -0.11454517889E+04  0.11454517889E+04  0.00000000000E+00 0.  1.
         23    2    1    2    0    0  0.28880731403E+03  0.33267729858E+02 -0.10782527180E+04  0.11203281824E+04  0.89386272670E+02 0.  0.
         13    1    3    3    0    0  0.66344875346E+02 -0.24603226677E+02 -0.33280794924E+03  0.34024710480E+03  0.00000000000E+00 0.  1.
        -13    1    3    3    0    0  0.22246243868E+03  0.57870956535E+02 -0.74544476881E+03  0.78008107757E+03  0.00000000000E+00 0. -1.
         22    1    1    2    0    0 -0.28880731403E+03 -0.33267729858E+02  0.41156155675E+03  0.50388423420E+03  0.00000000000E+00 0. -1.
<mgrwt>
<rscale>  0 0.14810769E+04</rscale>
<asrwt>0</asrwt>
<pdfrwt beam="1">  1        2 0.17622335E+00 0.14810769E+04</pdfrwt>
<pdfrwt beam="2">  1       -2 0.73655482E-01 0.14810769E+04</pdfrwt>
<totfact> 0.32862929E+01</totfact>
</mgrwt>
</event>
<event>
 6    1  0.5196787E-004  0.1911453E+04  0.7818608E-02  0.8649176E-01
         -2   -1    0    0    0  501 -0.00000000000E+00  0.00000000000E+00  0.60852528792E+03  0.60852528792E+03  0.00000000000E+00 0. -1.
          2   -1    0    0  501    0  0.00000000000E+00 -0.00000000000E+00 -0.15010272005E+04  0.15010272005E+04  0.00000000000E+00 0.  1.
         23    2    1    2    0    0  0.54049514071E+02 -0.94438427261E+03 -0.31364971452E+03  0.10005651704E+04  0.89283326938E+02 0.  0.
         13    1    3    3    0    0  0.69546627718E+02 -0.45824912513E+03 -0.16464326484E+03  0.49187030686E+03  0.00000000000E+00 0. -1.
        -13    1    3    3    0    0 -0.15497113647E+02 -0.48613514748E+03 -0.14900644967E+03  0.50869486354E+03  0.00000000000E+00 0.  1.
         22    1    1    2    0    0 -0.54049514071E+02  0.94438427261E+03 -0.57885219803E+03  0.11089873180E+04  0.00000000000E+00 0. -1.
<mgrwt>
<rscale>  0 0.19114529E+04</rscale>
<asrwt>0</asrwt>
<pdfrwt beam="1">  1        2 0.23092726E+00 0.19114529E+04</pdfrwt>
<pdfrwt beam="2">  1       -2 0.93619276E-01 0.19114529E+04</pdfrwt>
<totfact> 0.11440623E+01</totfact>
</mgrwt>
</event>
<event>
 6    1  0.5196787E-004  0.1592077E+04  0.7818608E-02  0.8825430E-01
         -2   -1    0    0    0  501 -0.00000000000E+00  0.00000000000E+00  0.99105167955E+03  0.99105167955E+03  0.00000000000E+00 0. -1.
          2   -1    0    0  501    0  0.00000000000E+00 -0.00000000000E+00 -0.63939894885E+03  0.63939894885E+03  0.00000000000E+00 0.  1.
         23    2    1    2    0    0 -0.80480704534E+01  0.79205457330E+03  0.22475785348E+03  0.82825518563E+03  0.89862902766E+02 0.  0.
         13    1    3    3    0    0  0.17882370786E+02  0.34783805146E+03  0.58171468936E+02  0.35312180480E+03  0.00000000000E+00 0.  1.
        -13    1    3    3    0    0 -0.25930441240E+02  0.44421652184E+03  0.16658638455E+03  0.47513338083E+03  0.00000000000E+00 0. -1.
         22    1    1    2    0    0  0.80480704534E+01 -0.79205457330E+03  0.12689487722E+03  0.80219544276E+03  0.00000000000E+00 0. -1.
<mgrwt>
<rscale>  0 0.15920771E+04</rscale>
<asrwt>0</asrwt>
<pdfrwt beam="1">  1        2 0.98369069E-01 0.15920771E+04</pdfrwt>
<pdfrwt beam="2">  1       -2 0.15246949E+00 0.15920771E+04</pdfrwt>
<totfact> 0.12622085E+01</totfact>
</mgrwt>
</event>
<event>
 6    1  0.5196787E-004  0.2682848E+04  0.7818608E-02  0.8340592E-01
         -2   -1    0    0    0  501 -0.00000000000E+00  0.00000000000E+00  0.18112413528E+04  0.18112413528E+04  0.00000000000E+00 0. -1.
          2   -1    0    0  501    0  0.00000000000E+00 -0.00000000000E+00 -0.99347227080E+03  0.99347227080E+03  0.00000000000E+00 0.  1.
         23    2    1    2    0    0 -0.90326660289E+02  0.12261696443E+04  0.96598359783E+03  0.15663201300E+04  0.92647375402E+02 0.  0.
         11    1    3    3    0    0 -0.18442791751E+02  0.72918994134E+03  0.53520557038E+03  0.90471161686E+03  0.00000000000E+00 0. -1.
        -11    1    3    3    0    0 -0.71883868538E+02  0.49697970301E+03  0.43077802745E+03  0.66160851316E+03  0.00000000000E+00 0.  1.
         22    1    1    2    0    0  0.90326660289E+02 -0.12261696443E+04 -0.14821451582E+03  0.12383934936E+04  0.00000000000E+00 0.  1.
<mgrwt>
<rscale>  0 0.26828478E+04</rscale>
<asrwt>0</asrwt>
<pdfrwt beam="1">  1        2 0.15284189E+00 0.26828478E+04</pdfrwt>
<pdfrwt beam="2">  1       -2 0.27865252E+00 0.26828478E+04</pdfrwt>
<totfact> 0.95892415E-01</totfact>
</mgrwt>
</event>
<event>
 6    1  0.5196787E-004  0.2290744E+04  0.7818608E-02  0.8481580E-01
         -2   -1    0    0    0  501 -0.00000000000E+00  0.00000000000E+00  0.50746936376E+03  0.50746936376E+03  0.00000000000E+00 0. -1.
          2   -1    0    0  501    0  0.00000000000E+00 -0.00000000000E+00 -0.25851350091E+04  0.25851350091E+04  0.00000000000E+00 0.  1.
         23    2    1    2    0    0  0.45741176383E+03 -0.10431319147E+04 -0.90229721914E+03  0.14558879495E+04  0.90109581981E+02 0.  0.
         11    1    3    3    0    0  0.19949259012E+03 -0.34860512423E+03 -0.32373712096E+03  0.51587648681E+03  0.00000000000E+00 0.  1.
        -11    1    3    3    0    0  0.25791917371E+03 -0.69452679044E+03 -0.57856009818E+03  0.94001146271E+03  0.00000000000E+00 0. -1.
         22    1    1    2    0    0 -0.45741176383E+03  0.10431319147E+04 -0.11753684262E+04  0.16367164233E+04  0.00000000000E+00 0. -1.
<mgrwt>
<rscale>  0 0.22907438E+04</rscale>
<asrwt>0</asrwt>
<pdfrwt beam="1">  1        2 0.39771307E+00 0.22907438E+04</pdfrwt>
<pdfrwt beam="2">  1       -2 0.78072211E-01 0.22907438E+04</pdfrwt>
<totfact> 0.41136419E+00</totfact>
</mgrwt>
</event>
<event>
 6    1  0.5196787E-004  0.1804665E+04  0.7818608E-02  0.8703823E-01
          2   -1    0    0  501    0  0.00000000000E+00  0.00000000000E+00  0.89114611848E+03  0.89114611848E+03  0.00000000000E+00 0.  1.
         -2   -1    0    0    0  501 -0.00000000000E+00 -0.00000000000E+00 -0.91365897385E+03  0.91365897385E+03  0.00000000000E+00 0. -1.
         23    2    1    2    0    0  0.50819649680E+02  0.62016640533E+03  0.63915808704E+03  0.89651139361E+03  0.89557867127E+02 0.  0.
         13    1    3    3    0    0  0.37262290984E+02  0.80550993750E+02  0.84258955879E+02  0.12237856254E+03  0.00000000000E+00 0.  1.
        -13    1    3    3    0    0  0.13557358696E+02  0.53961541158E+03  0.55489913116E+03  0.77413283107E+03  0.00000000000E+00 0. -1.
         22    1    1    2    0    0 -0.50819649680E+02 -0.62016640533E+03 -0.66167094241E+03  0.90829369871E+03  0.00000000000E+00 0. -1.
<mgrwt>
<rscale>  0 0.18046647E+04</rscale>
<asrwt>0</asrwt>
<pdfrwt beam="1">  1        2 0.13709940E+00 0.18046647E+04</pdfrwt>
<pdfrwt beam="2">  1       -2 0.14056292E+00 0.18046647E+04</pdfrwt>
<totfact> 0.99705415E+00</totfact>
</mgrwt>
</event>
<event>
 6    1  0.5196787E-004  0.4139698E+04  0.7818608E-02  0.7976943E-01
          2   -1    0    0  501    0  0.00000000000E+00  0.00000000000E+00  0.36442104591E+04  0.36442104591E+04  0.00000000000E+00 0.  1.
         -2   -1    0    0    0  501 -0.00000000000E+00 -0.00000000000E+00 -0.11756387667E+04  0.11756387667E+04  0.00000000000E+00 0. -1.
         23    2    1    2    0    0 -0.20288122284E+04  0.37809944410E+03  0.10660864024E+04  0.23246531942E+04  0.91836857151E+02 0.  0.
         11    1    3    3    0    0 -0.72108044886E+03  0.10752106563E+03  0.41613063434E+03  0.83945369028E+03  0.00000000000E+00 0.  1.
        -11    1    3    3    0    0 -0.13077317795E+04  0.27057837848E+03  0.64995576810E+03  0.14851995039E+04  0.00000000000E+00 0. -1.
         22    1    1    2    0    0  0.20288122284E+04 -0.37809944410E+03  0.14024852899E+04  0.24951960316E+04  0.00000000000E+00 0.  1.
<mgrwt>
<rscale>  0 0.41396981E+04</rscale>
<asrwt>0</asrwt>
<pdfrwt beam="1">  1        2 0.56064776E+00 0.41396981E+04</pdfrwt>
<pdfrwt beam="2">  1       -2 0.18086750E+00 0.41396981E+04</pdfrwt>
<totfact> 0.89267149E-02</totfact>
</mgrwt>
</event>
<event>
 6    1  0.5196787E-004  0.4373425E+04  0.7818608E-02  0.7933179E-01
          2   -1    0    0  501    0  0.00000000000E+00  0.00000000000E+00  0.18735908155E+04  0.18735908155E+04  0.00000000000E+00 0.  1.
         -2   -1    0    0    0  501 -0.00000000000E+00 -0.00000000000E+00 -0.25521644092E+04  0.25521644092E+04  0.00000000000E+00 0. -1.
         23    2    1    2    0    0 -0.18824583520E+04  0.49638636655E+03 -0.13451080014E+04  0.23680096164E+04  0.90028527381E+02 0.  0.
         11    1    3    3    0    0 -0.90406420193E+03  0.26464034630E+03 -0.60553108857E+03  0.11198368155E+04  0.00000000000E+00 0.  1.
        -11    1    3    3    0    0 -0.97839415011E+03  0.23174602025E+03 -0.73957691286E+03  0.12481728009E+04  0.00000000000E+00 0. -1.
         22    1    1    2    0    0  0.18824583520E+04 -0.49638636655E+03  0.66653440775E+03  0.20577456084E+04  0.00000000000E+00 0.  1.
<mgrwt>
<rscale>  0 0.43734251E+04</rscale>
<asrwt>0</asrwt>
<pdfrwt beam="1">  1        2 0.28824474E+00 0.43734251E+04</pdfrwt>
<pdfrwt beam="2">  1       -2 0.39264068E+00 0.43734251E+04</pdfrwt>
<totfact> 0.49840876E-02</totfact>
</mgrwt>
</event>
<event>
 6    1  0.5196787E-004  0.1300674E+04  0.7818608E-02  0.9029031E-01
         -2   -1    0    0    0  501 -0.00000000000E+00  0.00000000000E+00  0.18668463408E+03  0.18668463408E+03  0.00000000000E+00 0. -1.
          2   -1    0    0  501    0  0.00000000000E+00 -0.00000000000E+00 -0.22655235564E+04  0.22655235564E+04  0.00000000000E+00 0.  1.
         23    2    1    2    0    0 -0.46762502453E+03 -0.26426680453E+03 -0.36465775931E+03  0.65584320331E+03  0.92978053097E+02 0.  0.
         11    1    3    3    0    0 -0.43688299876E+03 -0.23630608966E+03 -0.30408879304E+03  0.58238931710E+03  0.00000000000E+00 0. -1.
        -11    1    3    3    0    0 -0.30742025769E+02 -0.27960714862E+02 -0.60568966271E+02  0.73453886208E+02  0.00000000000E+00 0.  1.
         22    1    1    2    0    0  0.46762502453E+03  0.26426680453E+03 -0.17141811630E+04  0.17963649871E+04  0.00000000000E+00 0. -1.
<mgrwt>
<rscale>  0 0.13006743E+04</rscale>
<asrwt>0</asrwt>
<pdfrwt beam="1">  1        2 0.34854208E+00 0.13006743E+04</pdfrwt>
<pdfrwt beam="2">  1       -2 0.28720713E-01 0.13006743E+04</pdfrwt>
<totfact> 0.51826502E+01</totfact>
</mgrwt>
</event>
<event>
 6    1  0.5196787E-004  0.2664938E+04  0.7818608E-02  0.8346472E-01
         -2   -1    0    0    0  501 -0.00000000000E+00  0.00000000000E+00  0.18775158968E+04  0.18775158968E+04  0.00000000000E+00 0. -1.
          2   -1    0    0  501    0  0.00000000000E+00 -0.00000000000E+00 -0.94565063656E+03  0.94565063656E+03  0.00000000000E+00 0.  1.
         23    2    1    2    0    0 -0.86574058230E+03 -0.22945010780E+03 -0.57647027518E+03  0.10689629548E+04  0.90607464720E+02 0.  0.
         13    1    3    3    0    0 -0.26682070939E+03 -0.29049367477E+02 -0.16053704733E+03  0.31274478457E+03  0.00000000000E+00 0.  1.
        -13    1    3    3    0    0 -0.59891987291E+03 -0.20040074032E+03 -0.41593322785E+03  0.75621817019E+03  0.00000000000E+00 0. -1.
         22    1    1    2    0    0  0.86574058230E+03  0.22945010780E+03  0.15083355354E+04  0.17542035786E+04  0.00000000000E+00 0. -1.
<mgrwt>
<rscale>  0 0.26649384E+04</rscale>
<asrwt>0</asrwt>
<pdfrwt beam="1">  1        2 0.14548471E+00 0.26649384E+04</pdfrwt>
<pdfrwt beam="2">  1       -2 0.28884860E+00 0.26649384E+04</pdfrwt>
<totfact> 0.89420426E-01</totfact>
</mgrwt>
</event>
<event>
 6    1  0.5196787E-004  0.2037534E+04  0.7818608E-02  0.8589270E-01
          2   -1    0    0  501    0  0.00000000000E+00  0.00000000000E+00  0.16210493113E+04  0.16210493113E+04  0.00000000000E+00 0.  1.
         -2   -1    0    0    0  501 -0.00000000000E+00 -0.00000000000E+00 -0.64025602454E+03  0.64025602454E+03  0.00000000000E+00 0. -1.
         23    2    1    2    0    0  0.50035108713E+03  0.77903699816E+03  0.95759860510E+03  0.13351369666E+04  0.91355220396E+02 0.  0.
         13    1    3    3    0    0  0.98877499305E+02  0.22485827423E+03  0.27072305736E+03  0.36555297447E+03  0.00000000000E+00 0.  1.
        -13    1    3    3    0    0  0.40147358783E+03  0.55417872393E+03  0.68687554774E+03  0.96958399217E+03  0.00000000000E+00 0. -1.
         22    1    1    2    0    0 -0.50035108713E+03 -0.77903699816E+03  0.23194681682E+02  0.92616836922E+03  0.00000000000E+00 0.  1.
<mgrwt>
<rscale>  0 0.20375344E+04</rscale>
<asrwt>0</asrwt>
<pdfrwt beam="1">  1        2 0.24939220E+00 0.20375344E+04</pdfrwt>
<pdfrwt beam="2">  1       -2 0.98500928E-01 0.20375344E+04</pdfrwt>
<totfact> 0.86063565E+00</totfact>
</mgrwt>
</event>
<event>
 6    1  0.5196787E-004  0.2062035E+04  0.7818608E-02  0.8578154E-01
          2   -1    0    0  501    0  0.00000000000E+00  0.00000000000E+00  0.15030398634E+04  0.15030398634E+04  0.00000000000E+00 0.  1.
         -2   -1    0    0    0  501 -0.00000000000E+00 -0.00000000000E+00 -0.70723162846E+03  0.70723162846E+03  0.00000000000E+00 0. -1.
         23    2    1    2    0    0 -0.49597050109E+03 -0.40000699187E+03 -0.46738503780E+03  0.79547483658E+03  0.91318730737E+02 0.  0.
         11    1    3    3    0    0 -0.69421001852E+02 -0.83232815771E+02 -0.47757047175E+02  0.11843864519E+03  0.00000000000E+00 0. -1.
        -11    1    3    3    0    0 -0.42654949924E+03 -0.31677417610E+03 -0.41962799062E+03  0.67703619139E+03  0.00000000000E+00 0.  1.
         22    1    1    2    0    0  0.49597050109E+03  0.40000699187E+03  0.12631932727E+04  0.14147966553E+04  0.00000000000E+00 0.  1.
<mgrwt>
<rscale>  0 0.20620352E+04</rscale>
<asrwt>0</asrwt>
<pdfrwt beam="1">  1        2 0.23123690E+00 0.20620352E+04</pdfrwt>
<pdfrwt beam="2">  1       -2 0.10880487E+00 0.20620352E+04</pdfrwt>
<totfact> 0.78860735E+00</totfact>
</mgrwt>
</event>
<event>
 6    1  0.5196787E-004  0.2133707E+04  0.7818608E-02  0.8546539E-01
          2   -1    0    0  501    0  0.00000000000E+00  0.00000000000E+00  0.11332921235E+04  0.11332921235E+04  0.00000000000E+00 0.  1.
         -2   -1    0    0    0  501 -0.00000000000E+00 -0.00000000000E+00 -0.10043095275E+04  0.10043095275E+04  0.00000000000E+00 0. -1.
         23    2    1    2    0    0  0.45757442121E+03  0.34411449464E+03 -0.83493023382E+03  0.10164785177E+04  0.91274011577E+02 0.  0.
         11    1    3    3    0    0  0.14001392093E+03  0.15612768046E+03 -0.27405205943E+03  0.34508590515E+03  0.00000000000E+00 0.  1.
        -11    1    3    3    0    0  0.31756050027E+03  0.18798681418E+03 -0.56087817439E+03  0.67139261252E+03  0.00000000000E+00 0. -1.
         22    1    1    2    0    0 -0.45757442121E+03 -0.34411449464E+03  0.96391282982E+03  0.11211231332E+04  0.00000000000E+00 0.  1.
<mgrwt>
<rscale>  0 0.21337067E+04</rscale>
<asrwt>0</asrwt>
<pdfrwt beam="1">  1        2 0.17435263E+00 0.21337067E+04</pdfrwt>
<pdfrwt beam="2">  1       -2 0.15450916E+00 0.21337067E+04</pdfrwt>
<totfact> 0.52884635E+00</totfact>
</mgrwt>
</event>
<event>
 6    1  0.5196787E-004  0.4328752E+03  0.7818608E-02  0.1032956E+00
         -2   -1    0    0    0  501 -0.00000000000E+00  0.00000000000E+00  0.27287656639E+03  0.27287656639E+03  0.00000000000E+00 0. -1.
          2   -1    0    0  501    0  0.00000000000E+00 -0.00000000000E+00 -0.17167189615E+03  0.17167189615E+03  0.00000000000E+00 0.  1.
         23    2    1    2    0    0 -0.56699554557E+02 -0.19113184707E+03 -0.16645181812E+01  0.22020878176E+03  0.93503553369E+02 0.  0.
         11    1    3    3    0    0 -0.34826977831E+02 -0.21777761751E+02 -0.24655923452E+02  0.47907242177E+02  0.00000000000E+00 0.  1.
        -11    1    3    3    0    0 -0.21872576725E+02 -0.16935408532E+03  0.22991405271E+02  0.17230153958E+03  0.00000000000E+00 0. -1.
         22    1    1    2    0    0  0.56699554557E+02  0.19113184707E+03  0.10286918842E+03  0.22433968079E+03  0.00000000000E+00 0. -1.
<mgrwt>
<rscale>  0 0.43287521E+03</rscale>
<asrwt>0</asrwt>
<pdfrwt beam="1">  1        2 0.26411061E-01 0.43287521E+03</pdfrwt>
<pdfrwt beam="2">  1       -2 0.41981010E-01 0.43287521E+03</pdfrwt>
<totfact> 0.11052797E+03</totfact>
</mgrwt>
</event>
<event>
 6    1  0.5196787E-004  0.6587861E+03  0.7818608E-02  0.9790431E-01
          2   -1    0    0  501    0  0.00000000000E+00  0.00000000000E+00  0.12619883260E+04  0.12619883260E+04  0.00000000000E+00 0.  1.
         -2   -1    0    0    0  501 -0.00000000000E+00 -0.00000000000E+00 -0.85975260149E+02  0.85975260149E+02  0.00000000000E+00 0. -1.
         23    2    1    2    0    0 -0.25999964166E+03  0.10553975026E+01  0.99563582245E+03  0.10315194719E+04  0.71699388906E+02 0.  0.
         11    1    3    3    0    0 -0.15023781090E+03 -0.33334697816E+02  0.53026470608E+03  0.55214423877E+03  0.00000000000E+00 0.  1.
        -11    1    3    3    0    0 -0.10976183077E+03  0.34390095319E+02  0.46537111637E+03  0.47937523309E+03  0.00000000000E+00 0. -1.
         22    1    1    2    0    0  0.25999964166E+03 -0.10553975026E+01  0.18037724342E+03  0.31644411429E+03  0.00000000000E+00 0. -1.
<mgrwt>
<rscale>  0 0.65878608E+03</rscale>
<asrwt>0</asrwt>
<pdfrwt beam="1">  1        2 0.19415204E+00 0.65878608E+03</pdfrwt>
<pdfrwt beam="2">  1       -2 0.13226964E-01 0.65878608E+03</pdfrwt>
<totfact> 0.76218737E+02</totfact>
</mgrwt>
</event>
<event>
 6    1  0.5196787E-004  0.2528409E+04  0.7818608E-02  0.8392934E-01
          2   -1    0    0  501    0  0.00000000000E+00  0.00000000000E+00  0.19638498065E+04  0.19638498065E+04  0.00000000000E+00 0.  1.
         -2   -1    0    0    0  501 -0.00000000000E+00 -0.00000000000E+00 -0.81381657490E+03  0.81381657490E+03  0.00000000000E+00 0. -1.
         23    2    1    2    0    0  0.51942187265E+03 -0.10086802252E+04  0.11842611078E+04  0.16425864608E+04  0.91547973935E+02 0.  0.
         13    1    3    3    0    0  0.33511176524E+03 -0.69161447457E+03  0.74500069135E+03  0.10703534495E+04  0.00000000000E+00 0.  1.
        -13    1    3    3    0    0  0.18431010741E+03 -0.31706575062E+03  0.43926041640E+03  0.57223301139E+03  0.00000000000E+00 0. -1.
         22    1    1    2    0    0 -0.51942187265E+03  0.10086802252E+04 -0.34227876178E+02  0.11350799205E+04  0.00000000000E+00 0. -1.
<mgrwt>
<rscale>  0 0.25284094E+04</rscale>
<asrwt>0</asrwt>
<pdfrwt beam="1">  1        2 0.30213074E+00 0.25284094E+04</pdfrwt>
<pdfrwt beam="2">  1       -2 0.12520255E+00 0.25284094E+04</pdfrwt>
<totfact> 0.29735459E+00</totfact>
</mgrwt>
</event>
<event>
 6    1  0.5196787E-004  0.3100291E+04  0.7818608E-02  0.8215658E-01
         -2   -1    0    0    0  501 -0.00000000000E+00  0.00000000000E+00  0.11364189411E+04  0.11364189411E+04  0.00000000000E+00 0. -1.
          2   -1    0    0  501    0  0.00000000000E+00 -0.00000000000E+00 -0.21144936606E+04  0.21144936606E+04  0.00000000000E+00 0.  1.
         23    2    1    2    0    0  0.46604983082E+03  0.12678957173E+04 -0.12852349635E+04  0.18655933567E+04  0.62029560804E+02 0.  0.
         11    1    3    3    0    0  0.85528854825E+02  0.17150154714E+03 -0.17579581111E+03  0.26006178667E+03  0.00000000000E+00 0. -1.
        -11    1    3    3    0    0  0.38052097599E+03  0.10963941702E+04 -0.11094391524E+04  0.16055315701E+04  0.00000000000E+00 0.  1.
         22    1    1    2    0    0 -0.46604983082E+03 -0.12678957173E+04  0.30716024402E+03  0.13853192449E+04  0.00000000000E+00 0. -1.
<mgrwt>
<rscale>  0 0.31002907E+04</rscale>
<asrwt>0</asrwt>
<pdfrwt beam="1">  1        2 0.32530672E+00 0.31002907E+04</pdfrwt>
<pdfrwt beam="2">  1       -2 0.17483368E+00 0.31002907E+04</pdfrwt>
<totfact> 0.96465155E-01</totfact>
</mgrwt>
</event>
<event>
 6    1  0.5196787E-004  0.4392008E+04  0.7818608E-02  0.7929821E-01
          2   -1    0    0  501    0  0.00000000000E+00  0.00000000000E+00  0.21882064121E+04  0.21882064121E+04  0.00000000000E+00 0.  1.
         -2   -1    0    0    0  501 -0.00000000000E+00 -0.00000000000E+00 -0.22038295479E+04  0.22038295479E+04  0.00000000000E+00 0. -1.
         23    2    1    2    0    0 -0.61934581919E+03  0.20072604501E+04 -0.64461672809E+03  0.21992485336E+04  0.92084894935E+02 0.  0.
         13    1    3    3    0    0 -0.12164646097E+03  0.30150723545E+03 -0.79988285566E+02  0.33481726407E+03  0.00000000000E+00 0. -1.
        -13    1    3    3    0    0 -0.49769935821E+03  0.17057532147E+04 -0.56462844252E+03  0.18644312695E+04  0.00000000000E+00 0.  1.
         22    1    1    2    0    0  0.61934581919E+03 -0.20072604501E+04  0.62899359227E+03  0.21927874264E+04  0.00000000000E+00 0. -1.
<mgrwt>
<rscale>  0 0.43920082E+04</rscale>
<asrwt>0</asrwt>
<pdfrwt beam="1">  1        2 0.33664714E+00 0.43920082E+04</pdfrwt>
<pdfrwt beam="2">  1       -2 0.33905070E+00 0.43920082E+04</pdfrwt>
<totfact> 0.73052073E-02</totfact>
</mgrwt>
</event>
<event>
 6    1  0.5196787E-004  0.2737676E+04  0.7818608E-02  0.8322883E-01
          2   -1    0    0  501    0  0.00000000000E+00  0.00000000000E+00  0.11151670384E+04  0.11151670384E+04  0.00000000000E+00 0.  1.
         -2   -1    0    0    0  501 -0.00000000000E+00 -0.00000000000E+00 -0.16802127933E+04  0.16802127933E+04  0.00000000000E+00 0. -1.
         23    2    1    2    0    0 -0.11285433017E+03 -0.82758993897E+03 -0.13881569356E+04  0.16227105592E+04  0.92567132981E+02 0.  0.
         13    1    3    3    0    0 -0.10967424242E+03 -0.64073744609E+03 -0.11361483240E+04  0.13089713245E+04  0.00000000000E+00 0.  1.
        -13    1    3    3    0    0 -0.31800877562E+01 -0.18685249288E+03 -0.25200861167E+03  0.31373923473E+03  0.00000000000E+00 0. -1.
         22    1    1    2    0    0  0.11285433017E+03  0.82758993897E+03  0.82311118070E+03  0.11726692725E+04  0.00000000000E+00 0.  1.
<mgrwt>
<rscale>  0 0.27376763E+04</rscale>
<asrwt>0</asrwt>
<pdfrwt beam="1">  1        2 0.17156416E+00 0.27376763E+04</pdfrwt>
<pdfrwt beam="2">  1       -2 0.25849428E+00 0.27376763E+04</pdfrwt>
<totfact> 0.10627326E+00</totfact>
</mgrwt>
</event>
<event>
 6    1  0.5196787E-004  0.1452511E+04  0.7818608E-02  0.8916661E-01
          2   -1    0    0  501    0  0.00000000000E+00  0.00000000000E+00  0.17081948059E+04  0.17081948059E+04  0.00000000000E+00 0.  1.
         -2   -1    0    0    0  501 -0.00000000000E+00 -0.00000000000E+00 -0.30877463067E+03  0.30877463067E+03  0.00000000000E+00 0. -1.
         23    2    1    2    0    0  0.55948122733E+03 -0.36479561976E+03  0.10884878935E+04  0.12802374828E+04  0.90039047692E+02 0.  0.
         11    1    3    3    0    0  0.40401482415E+03 -0.30274529165E+03  0.77681641658E+03  0.92645908426E+03  0.00000000000E+00 0.  1.
        -11    1    3    3    0    0  0.15546640318E+03 -0.62050328109E+02  0.31167147690E+03  0.35377839851E+03  0.00000000000E+00 0. -1.
         22    1    1    2    0    0 -0.55948122733E+03  0.36479561976E+03  0.31093228177E+03  0.73673195382E+03  0.00000000000E+00 0. -1.
<mgrwt>
<rscale>  0 0.14525112E+04</rscale>
<asrwt>0</asrwt>
<pdfrwt beam="1">  1        2 0.26279919E+00 0.14525112E+04</pdfrwt>
<pdfrwt beam="2">  1       -2 0.47503790E-01 0.14525112E+04</pdfrwt>
<totfact> 0.39510737E+01</totfact>
</mgrwt>
</event>
<event>
 6    1  0.5196787E-004  0.6341384E+04  0.7818608E-02  0.7649457E-01
         -2   -1    0    0    0  501 -0.00000000000E+00  0.00000000000E+00  0.26618586219E+04  0.26618586219E+04  0.00000000000E+00 0. -1.
          2   -1    0    0  501    0  0.00000000000E+00 -0.00000000000E+00 -0.37767927086E+04  0.37767927086E+04  0.00000000000E+00 0.  1.
         23    2    1    2    0    0 -0.11238465598E+04 -0.24917445054E+04  0.10723861678E+04  0.29377669185E+04  0.92954851966E+02 0.  0.
         13    1    3    3    0    0 -0.47606033838E+03 -0.95983954907E+03  0.39587971842E+03  0.11422110826E+04  0.00000000000E+00 0.  1.
        -13    1    3    3    0    0 -0.64778622139E+03 -0.15319049563E+04  0.67650644935E+03  0.17955558359E+04  0.00000000000E+00 0. -1.
         22    1    1    2    0    0  0.11238465598E+04  0.24917445054E+04 -0.21873202545E+04  0.35008844120E+04  0.00000000000E+00 0.  1.
<mgrwt>
<rscale>  0 0.63413841E+04</rscale>
<asrwt>0</asrwt>
<pdfrwt beam="1">  1        2 0.58104503E+00 0.63413841E+04</pdfrwt>
<pdfrwt beam="2">  1       -2 0.40951671E+00 0.63413841E+04</pdfrwt>
<totfact> 0.21516753E-03</totfact>
</mgrwt>
</event>
<event>
 6    1  0.5196787E-004  0.9034566E+03  0.7818608E-02  0.9421271E-01
          2   -1    0    0  501    0  0.00000000000E+00  0.00000000000E+00  0.94390341531E+03  0.94390341531E+03  0.00000000000E+00 0.  1.
         -2   -1    0    0    0  501 -0.00000000000E+00 -0.00000000000E+00 -0.21618573955E+03  0.21618573955E+03  0.00000000000E+00 0. -1.
         23    2    1    2    0    0  0.48791214679E+02  0.14131089785E+03  0.90832982239E+03  0.92563212257E+03  0.96862828758E+02 0.  0.
         13    1    3    3    0    0 -0.11234991091E+02  0.81103207952E+02  0.60842213503E+03  0.61390671096E+03  0.00000000000E+00 0.  1.
        -13    1    3    3    0    0  0.60026205771E+02  0.60207689899E+02  0.29990768736E+03  0.31172541161E+03  0.00000000000E+00 0. -1.
         22    1    1    2    0    0 -0.48791214679E+02 -0.14131089785E+03 -0.18061214664E+03  0.23445703230E+03  0.00000000000E+00 0. -1.
<mgrwt>
<rscale>  0 0.90345660E+03</rscale>
<asrwt>0</asrwt>
<pdfrwt beam="1">  1        2 0.14521591E+00 0.90345660E+03</pdfrwt>
<pdfrwt beam="2">  1       -2 0.33259345E-01 0.90345660E+03</pdfrwt>
<totfact> 0.23167988E+02</totfact>
</mgrwt>
</event>
<event>
 6    1  0.5196787E-004  0.3798414E+04  0.7818608E-02  0.8046495E-01
         -2   -1    0    0    0  501 -0.00000000000E+00  0.00000000000E+00  0.88602796622E+03  0.88602796622E+03  0.00000000000E+00 0. -1.
          2   -1    0    0  501    0  0.00000000000E+00 -0.00000000000E+00 -0.40709636864E+04  0.40709636864E+04  0.00000000000E+00 0.  1.
         23    2    1    2    0    0  0.12048320456E+04 -0.14365638020E+04 -0.19791606155E+04  0.27278148049E+04  0.92525956343E+02 0.  0.
         11    1    3    3    0    0  0.55461092956E+03 -0.67584839095E+03 -0.85731519191E+03  0.12244809794E+04  0.00000000000E+00 0. -1.
        -11    1    3    3    0    0  0.65022111607E+03 -0.76071541101E+03 -0.11218454236E+04  0.15033338254E+04  0.00000000000E+00 0.  1.
         22    1    1    2    0    0 -0.12048320456E+04  0.14365638020E+04 -0.12057751047E+04  0.22291768477E+04  0.00000000000E+00 0.  1.
<mgrwt>
<rscale>  0 0.37984142E+04</rscale>
<asrwt>0</asrwt>
<pdfrwt beam="1">  1        2 0.62630211E+00 0.37984142E+04</pdfrwt>
<pdfrwt beam="2">  1       -2 0.13631199E+00 0.37984142E+04</pdfrwt>
<totfact> 0.92010614E-02</totfact>
</mgrwt>
</event>
<event>
 6    1  0.5196787E-004  0.4356736E+04  0.7818608E-02  0.7936210E-01
          2   -1    0    0  501    0  0.00000000000E+00  0.00000000000E+00  0.28374229996E+04  0.28374229996E+04  0.00000000000E+00 0.  1.
         -2   -1    0    0    0  501 -0.00000000000E+00 -0.00000000000E+00 -0.16723935684E+04  0.16723935684E+04  0.00000000000E+00 0. -1.
         23    2    1    2    0    0 -0.14052107627E+04 -0.56214786560E+03  0.22031753455E+04  0.26745033932E+04  0.91429137160E+02 0.  0.
         13    1    3    3    0    0 -0.12173230367E+04 -0.47241421978E+03  0.18475759837E+04  0.22624295760E+04  0.00000000000E+00 0. -1.
        -13    1    3    3    0    0 -0.18788772598E+03 -0.89733645820E+02  0.35559936172E+03  0.41207381720E+03  0.00000000000E+00 0.  1.
         22    1    1    2    0    0  0.14052107627E+04  0.56214786560E+03 -0.10381459142E+04  0.18353131748E+04  0.00000000000E+00 0. -1.
<mgrwt>
<rscale>  0 0.43567364E+04</rscale>
<asrwt>0</asrwt>
<pdfrwt beam="1">  1        2 0.43652661E+00 0.43567364E+04</pdfrwt>
<pdfrwt beam="2">  1       -2 0.25729132E+00 0.43567364E+04</pdfrwt>
<totfact> 0.97476370E-02</totfact>
</mgrwt>
</event>
<event>
 6    1  0.5196787E-004  0.1876166E+04  0.7818608E-02  0.8666812E-01
          2   -1    0    0  501    0  0.00000000000E+00  0.00000000000E+00  0.26463727038E+04  0.26463727038E+04  0.00000000000E+00 0.  1.
         -2   -1    0    0    0  501 -0.00000000000E+00 -0.00000000000E+00 -0.33253056775E+03  0.33253056775E+03  0.00000000000E+00 0. -1.
         23    2    1    2    0    0 -0.25475933254E+03  0.57044181715E+03  0.22659736996E+04  0.23523272015E+04  0.92196916735E+02 0.  0.
         11    1    3    3    0    0 -0.16876527254E+03  0.36867911406E+03  0.12999115657E+04  0.13616813449E+04  0.00000000000E+00 0. -1.
        -11    1    3    3    0    0 -0.85994060001E+02  0.20176270308E+03  0.96606213394E+03  0.99064585667E+03  0.00000000000E+00 0.  1.
         22    1    1    2    0    0  0.25475933254E+03 -0.57044181715E+03  0.47868436395E+02  0.62657606998E+03  0.00000000000E+00 0. -1.
<mgrwt>
<rscale>  0 0.18761661E+04</rscale>
<asrwt>0</asrwt>
<pdfrwt beam="1">  1        2 0.40713425E+00 0.18761661E+04</pdfrwt>
<pdfrwt beam="2">  1       -2 0.51158551E-01 0.18761661E+04</pdfrwt>
<totfact> 0.96959643E+00</totfact>
</mgrwt>
</event>
<event>
 6    1  0.5196787E-004  0.2310312E+04  0.7818608E-02  0.8473866E-01
         -2   -1    0    0    0  501 -0.00000000000E+00  0.00000000000E+00  0.88073203194E+03  0.88073203194E+03  0.00000000000E+00 0. -1.
          2   -1    0    0  501    0  0.00000000000E+00 -0.00000000000E+00 -0.15150870933E+04  0.15150870933E+04  0.00000000000E+00 0.  1.
         23    2    1    2    0    0 -0.58565487116E+03  0.58767178994E+03  0.51304713549E+03  0.97988072186E+03  0.92731359450E+02 0.  0.
         11    1    3    3    0    0 -0.37371427699E+03  0.39806725397E+03  0.28847520054E+03  0.61752557909E+03  0.00000000000E+00 0.  1.
        -11    1    3    3    0    0 -0.21194059418E+03  0.18960453597E+03  0.22457193496E+03  0.36235514277E+03  0.00000000000E+00 0. -1.
         22    1    1    2    0    0  0.58565487116E+03 -0.58767178994E+03 -0.11474021968E+04  0.14159384033E+04  0.00000000000E+00 0.  1.
<mgrwt>
<rscale>  0 0.23103123E+04</rscale>
<asrwt>0</asrwt>
<pdfrwt beam="1">  1        2 0.23309032E+00 0.23103123E+04</pdfrwt>
<pdfrwt beam="2">  1       -2 0.13549724E+00 0.23103123E+04</pdfrwt>
<totfact> 0.44073865E+00</totfact>
</mgrwt>
</event>
<event>
 6    1  0.5196787E-004  0.2669914E+04  0.7818608E-02  0.8344833E-01
         -2   -1    0    0    0  501 -0.00000000000E+00  0.00000000000E+00  0.87760357525E+03  0.87760357525E+03  0.00000000000E+00 0. -1.
          2   -1    0    0  501    0  0.00000000000E+00 -0.00000000000E+00 -0.20306554062E+04  0.20306554062E+04  0.00000000000E+00 0.  1.
         23    2    1    2    0    0 -0.57378229562E+03 -0.95492012149E+03  0.22095949547E+03  0.11393594121E+04  0.90654344397E+02 0.  0.
         11    1    3    3    0    0 -0.13884163164E+03 -0.26138748467E+03  0.96568345555E+02  0.31132918460E+03  0.00000000000E+00 0.  1.
        -11    1    3    3    0    0 -0.43494066397E+03 -0.69353263682E+03  0.12439114992E+03  0.82803022752E+03  0.00000000000E+00 0. -1.
         22    1    1    2    0    0  0.57378229562E+03  0.95492012149E+03 -0.13740113264E+04  0.17688995693E+04  0.00000000000E+00 0.  1.
<mgrwt>
<rscale>  0 0.26699142E+04</rscale>
<asrwt>0</asrwt>
<pdfrwt beam="1">  1        2 0.31240853E+00 0.26699142E+04</pdfrwt>
<pdfrwt beam="2">  1       -2 0.13501593E+00 0.26699142E+04</pdfrwt>
<totfact> 0.22281594E+00</totfact>
</mgrwt>
</event>
<event>
 6    1  0.5196787E-004  0.2531887E+04  0.7818608E-02  0.8391713E-01
          2   -1    0    0  501    0  0.00000000000E+00  0.00000000000E+00  0.24539648445E+04  0.24539648445E+04  0.00000000000E+00 0.  1.
         -2   -1    0    0    0  501 -0.00000000000E+00 -0.00000000000E+00 -0.65307090139E+03  0.65307090139E+03  0.00000000000E+00 0. -1.
         23    2    1    2    0    0 -0.12359830007E+04 -0.16161233966E+03  0.64224325322E+03  0.14052002816E+04  0.91317625543E+02 0.  0.
         11    1    3    3    0    0 -0.78027978617E+03 -0.73604489587E+02  0.44130242727E+03  0.89944538351E+03  0.00000000000E+00 0. -1.
        -11    1    3    3    0    0 -0.45570321453E+03 -0.88007850071E+02  0.20094082594E+03  0.50575489809E+03  0.00000000000E+00 0.  1.
         22    1    1    2    0    0  0.12359830007E+04  0.16161233966E+03  0.11586506899E+04  0.17018354643E+04  0.00000000000E+00 0. -1.
<mgrwt>
<rscale>  0 0.25318871E+04</rscale>
<asrwt>0</asrwt>
<pdfrwt beam="1">  1        2 0.37753305E+00 0.25318871E+04</pdfrwt>
<pdfrwt beam="2">  1       -2 0.10047245E+00 0.25318871E+04</pdfrwt>
<totfact> 0.26887896E+00</totfact>
</mgrwt>
</event>
<event>
 6    1  0.5196787E-004  0.1607841E+04  0.7818608E-02  0.8815745E-01
         -2   -1    0    0    0  501 -0.00000000000E+00  0.00000000000E+00  0.32711783617E+03  0.32711783617E+03  0.00000000000E+00 0. -1.
          2   -1    0    0  501    0  0.00000000000E+00 -0.00000000000E+00 -0.19757043278E+04  0.19757043278E+04  0.00000000000E+00 0.  1.
         23    2    1    2    0    0  0.26511760370E+03 -0.57012164127E+03 -0.11516884027E+03  0.64550634521E+03  0.89936368003E+02 0.  0.
         13    1    3    3    0    0  0.20288852736E+03 -0.35587752956E+03 -0.47631505820E+02  0.41240917900E+03  0.00000000000E+00 0. -1.
        -13    1    3    3    0    0  0.62229076344E+02 -0.21424411172E+03 -0.67537334453E+02  0.23309716620E+03  0.00000000000E+00 0.  1.
         22    1    1    2    0    0 -0.26511760370E+03  0.57012164127E+03 -0.15334176514E+04  0.16573158188E+04  0.00000000000E+00 0.  1.
<mgrwt>
<rscale>  0 0.16078409E+04</rscale>
<asrwt>0</asrwt>
<pdfrwt beam="1">  1        2 0.30395451E+00 0.16078409E+04</pdfrwt>
<pdfrwt beam="2">  1       -2 0.50325821E-01 0.16078409E+04</pdfrwt>
<totfact> 0.24671032E+01</totfact>
</mgrwt>
</event>
<event>
 6    1  0.5196787E-004  0.3354394E+04  0.7818608E-02  0.8149191E-01
          2   -1    0    0  501    0  0.00000000000E+00  0.00000000000E+00  0.21986179389E+04  0.21986179389E+04  0.00000000000E+00 0. -1.
         -2   -1    0    0    0  501 -0.00000000000E+00 -0.00000000000E+00 -0.12794354529E+04  0.12794354529E+04  0.00000000000E+00 0.  1.
         23    2    1    2    0    0 -0.10832766022E+04  0.29677324438E+03  0.17497025785E+04  0.20811546196E+04  0.90459283683E+02 0.  0.
         11    1    3    3    0    0 -0.46936149421E+03  0.14178964458E+03  0.84371484369E+03  0.97583771859E+03  0.00000000000E+00 0. -1.
        -11    1    3    3    0    0 -0.61391510802E+03  0.15498359981E+03  0.90598773480E+03  0.11053169010E+04  0.00000000000E+00 0.  1.
         22    1    1    2    0    0  0.10832766022E+04 -0.29677324438E+03 -0.83052009249E+03  0.13968987721E+04  0.00000000000E+00 0.  1.
<mgrwt>
<rscale>  0 0.33543940E+04</rscale>
<asrwt>0</asrwt>
<pdfrwt beam="1">  1        2 0.33824891E+00 0.33543940E+04</pdfrwt>
<pdfrwt beam="2">  1       -2 0.19683622E+00 0.33543940E+04</pdfrwt>
<totfact> 0.60027505E-01</totfact>
</mgrwt>
</event>
<event>
 6    1  0.5196787E-004  0.1652422E+04  0.7818608E-02  0.8788975E-01
          2   -1    0    0  501    0  0.00000000000E+00  0.00000000000E+00  0.81952293756E+03  0.81952293756E+03  0.00000000000E+00 0.  1.
         -2   -1    0    0    0  501 -0.00000000000E+00 -0.00000000000E+00 -0.83295367111E+03  0.83295367111E+03  0.00000000000E+00 0. -1.
         23    2    1    2    0    0  0.42495361735E+03  0.63612174052E+03 -0.31194232718E+03  0.83129111367E+03  0.92197909505E+02 0.  0.
         13    1    3    3    0    0  0.15414076983E+03  0.30615812319E+03 -0.11895273844E+03  0.36282492652E+03  0.00000000000E+00 0.  1.
        -13    1    3    3    0    0  0.27081284752E+03  0.32996361733E+03 -0.19298958874E+03  0.46846618715E+03  0.00000000000E+00 0. -1.
         22    1    1    2    0    0 -0.42495361735E+03 -0.63612174052E+03  0.29851159362E+03  0.82118549500E+03  0.00000000000E+00 0.  1.
<mgrwt>
<rscale>  0 0.16524220E+04</rscale>
<asrwt>0</asrwt>
<pdfrwt beam="1">  1        2 0.12608045E+00 0.16524220E+04</pdfrwt>
<pdfrwt beam="2">  1       -2 0.12814672E+00 0.16524220E+04</pdfrwt>
<totfact> 0.14343561E+01</totfact>
</mgrwt>
</event>
<event>
 6    1  0.5196787E-004  0.1844208E+04  0.7818608E-02  0.8683137E-01
          2   -1    0    0  501    0  0.00000000000E+00  0.00000000000E+00  0.21077074356E+04  0.21077074356E+04  0.00000000000E+00 0. -1.
         -2   -1    0    0    0  501 -0.00000000000E+00 -0.00000000000E+00 -0.40341254508E+03  0.40341254508E+03  0.00000000000E+00 0.  1.
         23    2    1    2    0    0  0.78036355547E+03  0.45715427888E+03  0.62612954942E+03  0.11038539020E+04  0.92184114348E+02 0.  0.
         13    1    3    3    0    0  0.54373965815E+03  0.30075176151E+03  0.38034691940E+03  0.72853841147E+03  0.00000000000E+00 0.  1.
        -13    1    3    3    0    0  0.23662389733E+03  0.15640251737E+03  0.24578263002E+03  0.37531549054E+03  0.00000000000E+00 0. -1.
         22    1    1    2    0    0 -0.78036355547E+03 -0.45715427888E+03  0.10781653411E+04  0.14072660787E+04  0.00000000000E+00 0. -1.
<mgrwt>
<rscale>  0 0.18442078E+04</rscale>
<asrwt>0</asrwt>
<pdfrwt beam="1">  1        2 0.32426268E+00 0.18442078E+04</pdfrwt>
<pdfrwt beam="2">  1       -2 0.62063470E-01 0.18442078E+04</pdfrwt>
<totfact> 0.13193226E+01</totfact>
</mgrwt>
</event>
<event>
 6    1  0.5196787E-004  0.2194889E+04  0.7818608E-02  0.8520558E-01
          2   -1    0    0  501    0  0.00000000000E+00  0.00000000000E+00  0.23291946362E+04  0.23291946362E+04  0.00000000000E+00 0.  1.
         -2   -1    0    0    0  501 -0.00000000000E+00 -0.00000000000E+00 -0.51708193834E+03  0.51708193834E+03  0.00000000000E+00 0. -1.
         23    2    1    2    0    0 -0.88902069414E+03 -0.62957885268E+03  0.10405728288E+04  0.15113604364E+04  0.12120738533E+03 0.  0.
         13    1    3    3    0    0 -0.46244155770E+03 -0.26721180305E+03  0.55692106100E+03  0.77163165446E+03  0.00000000000E+00 0. -1.
        -13    1    3    3    0    0 -0.42657913644E+03 -0.36236704963E+03  0.48365176781E+03  0.73972878193E+03  0.00000000000E+00 0.  1.
         22    1    1    2    0    0  0.88902069414E+03  0.62957885268E+03  0.77153986904E+03  0.13349161381E+04  0.00000000000E+00 0. -1.
<mgrwt>
<rscale>  0 0.21948890E+04</rscale>
<asrwt>0</asrwt>
<pdfrwt beam="1">  1        2 0.35833763E+00 0.21948890E+04</pdfrwt>
<pdfrwt beam="2">  1       -2 0.79551069E-01 0.21948890E+04</pdfrwt>
<totfact> 0.55855770E+00</totfact>
</mgrwt>
</event>
<event>
 6    1  0.5196787E-004  0.3348114E+04  0.7818608E-02  0.8150760E-01
         -2   -1    0    0    0  501 -0.00000000000E+00  0.00000000000E+00  0.10755061800E+04  0.10755061800E+04  0.00000000000E+00 0. -1.
          2   -1    0    0  501    0  0.00000000000E+00 -0.00000000000E+00 -0.26057188400E+04  0.26057188400E+04  0.00000000000E+00 0.  1.
         23    2    1    2    0    0  0.10540912755E+04  0.10281908924E+03 -0.21893519808E+04  0.24337696796E+04  0.91063577297E+02 0.  0.
         11    1    3    3    0    0  0.43315932887E+03  0.19138637149E+02 -0.80855391162E+03  0.91747082766E+03  0.00000000000E+00 0. -1.
        -11    1    3    3    0    0  0.62093194667E+03  0.83680452088E+02 -0.13807980692E+04  0.15162988519E+04  0.00000000000E+00 0.  1.
         22    1    1    2    0    0 -0.10540912755E+04 -0.10281908924E+03  0.65913932082E+03  0.12474553405E+04  0.00000000000E+00 0. -1.
<mgrwt>
<rscale>  0 0.33481139E+04</rscale>
<asrwt>0</asrwt>
<pdfrwt beam="1">  1        2 0.40087982E+00 0.33481139E+04</pdfrwt>
<pdfrwt beam="2">  1       -2 0.16546249E+00 0.33481139E+04</pdfrwt>
<totfact> 0.57701939E-01</totfact>
</mgrwt>
</event>
<event>
 6    1  0.5196787E-004  0.2017720E+04  0.7818608E-02  0.8598380E-01
         -2   -1    0    0    0  501 -0.00000000000E+00  0.00000000000E+00  0.11843426077E+04  0.11843426077E+04  0.00000000000E+00 0. -1.
          2   -1    0    0  501    0  0.00000000000E+00 -0.00000000000E+00 -0.85937850550E+03  0.85937850550E+03  0.00000000000E+00 0.  1.
         23    2    1    2    0    0 -0.94635324557E+03 -0.31196875362E+03  0.30890323740E+03  0.10471435096E+04  0.90439764477E+02 0.  0.
         11    1    3    3    0    0 -0.45307732965E+03 -0.18729392788E+03  0.12300929521E+03  0.50545956196E+03  0.00000000000E+00 0.  1.
        -11    1    3    3    0    0 -0.49327591592E+03 -0.12467482574E+03  0.18589394219E+03  0.54168394765E+03  0.00000000000E+00 0. -1.
         22    1    1    2    0    0  0.94635324557E+03  0.31196875362E+03  0.16060864827E+02  0.99657760361E+03  0.00000000000E+00 0.  1.
<mgrwt>
<rscale>  0 0.20177201E+04</rscale>
<asrwt>0</asrwt>
<pdfrwt beam="1">  1        2 0.13221208E+00 0.20177201E+04</pdfrwt>
<pdfrwt beam="2">  1       -2 0.18220655E+00 0.20177201E+04</pdfrwt>
<totfact> 0.50763285E+00</totfact>
</mgrwt>
</event>
<event>
 6    1  0.5196787E-004  0.1532558E+04  0.7818608E-02  0.8863086E-01
          2   -1    0    0  501    0  0.00000000000E+00  0.00000000000E+00  0.29253226533E+04  0.29253226533E+04  0.00000000000E+00 0.  1.
         -2   -1    0    0    0  501 -0.00000000000E+00 -0.00000000000E+00 -0.20072436998E+03  0.20072436998E+03  0.00000000000E+00 0. -1.
         23    2    1    2    0    0  0.27863143083E+03  0.55636987857E+03  0.22696524087E+04  0.23552301418E+04  0.92758008779E+02 0.  0.
         13    1    3    3    0    0  0.13500339344E+03  0.35609934463E+03  0.12887173133E+04  0.13438098723E+04  0.00000000000E+00 0. -1.
        -13    1    3    3    0    0  0.14362803739E+03  0.20027053395E+03  0.98093509549E+03  0.10114202694E+04  0.00000000000E+00 0.  1.
         22    1    1    2    0    0 -0.27863143083E+03 -0.55636987857E+03  0.45494587460E+03  0.77081688152E+03  0.00000000000E+00 0.  1.
<mgrwt>
<rscale>  0 0.15325581E+04</rscale>
<asrwt>0</asrwt>
<pdfrwt beam="1">  1        2 0.45004961E+00 0.15325581E+04</pdfrwt>
<pdfrwt beam="2">  1       -2 0.30880674E-01 0.15325581E+04</pdfrwt>
<totfact> 0.18254938E+01</totfact>
</mgrwt>
</event>
<event>
 6    1  0.5944390E-004  0.4385946E+04  0.7818608E-02  0.7930914E-01
          2   -1    0    0  501    0  0.00000000000E+00  0.00000000000E+00  0.21549623933E+04  0.21549623933E+04  0.00000000000E+00 0.  1.
         -2   -1    0    0    0  501 -0.00000000000E+00 -0.00000000000E+00 -0.22316539158E+04  0.22316539158E+04  0.00000000000E+00 0. -1.
         23    2    1    2    0    0 -0.34382419497E+03  0.11169009090E+04  0.18164834002E+04  0.21618030572E+04  0.89987762811E+02 0.  0.
         13    1    3    3    0    0 -0.16212819376E+03  0.53377139055E+03  0.78453425865E+03  0.96264814526E+03  0.00000000000E+00 0. -1.
        -13    1    3    3    0    0 -0.18169600121E+03  0.58312951848E+03  0.10319491415E+04  0.11991549119E+04  0.00000000000E+00 0.  1.
         22    1    1    2    0    0  0.34382419497E+03 -0.11169009090E+04 -0.18931749227E+04  0.22248132518E+04  0.00000000000E+00 0. -1.
<mgrwt>
<rscale>  0 0.43859459E+04</rscale>
<asrwt>0</asrwt>
<pdfrwt beam="1">  1        2 0.33153268E+00 0.43859459E+04</pdfrwt>
<pdfrwt beam="2">  1       -2 0.34333137E+00 0.43859459E+04</pdfrwt>
<totfact> 0.71727035E-02</totfact>
</mgrwt>
</event>
<event>
 6    1  0.5196787E-004  0.1856640E+04  0.7818608E-02  0.8676745E-01
         -2   -1    0    0    0  501 -0.00000000000E+00  0.00000000000E+00  0.51918032154E+03  0.51918032154E+03  0.00000000000E+00 0. -1.
          2   -1    0    0  501    0  0.00000000000E+00 -0.00000000000E+00 -0.16598824489E+04  0.16598824489E+04  0.00000000000E+00 0.  1.
         23    2    1    2    0    0 -0.48810751898E+03  0.76675151681E+03 -0.78042783389E+03  0.12013335620E+04  0.89319004501E+02 0.  0.
         11    1    3    3    0    0 -0.54962607446E+02  0.14627868942E+03 -0.14615547631E+03  0.21396206779E+03  0.00000000000E+00 0. -1.
        -11    1    3    3    0    0 -0.43314491153E+03  0.62047282739E+03 -0.63427235758E+03  0.98737149417E+03  0.00000000000E+00 0.  1.
         22    1    1    2    0    0  0.48810751898E+03 -0.76675151681E+03 -0.36027429350E+03  0.97772920851E+03  0.00000000000E+00 0.  1.
<mgrwt>
<rscale>  0 0.18566403E+04</rscale>
<asrwt>0</asrwt>
<pdfrwt beam="1">  1        2 0.25536653E+00 0.18566403E+04</pdfrwt>
<pdfrwt beam="2">  1       -2 0.79873897E-01 0.18566403E+04</pdfrwt>
<totfact> 0.13459965E+01</totfact>
</mgrwt>
</event>
<event>
 6    1  0.5196787E-004  0.2854982E+04  0.7818608E-02  0.8286399E-01
         -2   -1    0    0    0  501 -0.00000000000E+00  0.00000000000E+00  0.19617424231E+04  0.19617424231E+04  0.00000000000E+00 0. -1.
          2   -1    0    0  501    0  0.00000000000E+00 -0.00000000000E+00 -0.10387352359E+04  0.10387352359E+04  0.00000000000E+00 0.  1.
         23    2    1    2    0    0  0.56691649849E+03  0.11710219360E+04 -0.15157576911E+03  0.13130490766E+04  0.91847553174E+02 0.  0.
         11    1    3    3    0    0  0.50685123950E+03  0.11003618906E+04 -0.14364854072E+03  0.12199710540E+04  0.00000000000E+00 0. -1.
        -11    1    3    3    0    0  0.60065258984E+02  0.70660045361E+02 -0.79272283861E+01  0.93078022632E+02  0.00000000000E+00 0.  1.
         22    1    1    2    0    0 -0.56691649849E+03 -0.11710219360E+04  0.10745829562E+04  0.16874285824E+04  0.00000000000E+00 0. -1.
<mgrwt>
<rscale>  0 0.28549823E+04</rscale>
<asrwt>0</asrwt>
<pdfrwt beam="1">  1        2 0.15980542E+00 0.28549823E+04</pdfrwt>
<pdfrwt beam="2">  1       -2 0.30180653E+00 0.28549823E+04</pdfrwt>
<totfact> 0.63863589E-01</totfact>
</mgrwt>
</event>
<event>
 6    1  0.5196787E-004  0.1119941E+04  0.7818608E-02  0.9185971E-01
         -2   -1    0    0    0  501 -0.00000000000E+00  0.00000000000E+00  0.20898597431E+03  0.20898597431E+03  0.00000000000E+00 0. -1.
          2   -1    0    0  501    0  0.00000000000E+00 -0.00000000000E+00 -0.15004221999E+04  0.15004221999E+04  0.00000000000E+00 0.  1.
         23    2    1    2    0    0 -0.47203592342E+03 -0.28923458363E+03 -0.74370222878E+03  0.93063536482E+03  0.80713194606E+02 0.  0.
         11    1    3    3    0    0 -0.14577633127E+03 -0.12001231709E+03 -0.20738420884E+03  0.28046729771E+03  0.00000000000E+00 0. -1.
        -11    1    3    3    0    0 -0.32625959215E+03 -0.16922226655E+03 -0.53631801994E+03  0.65016806710E+03  0.00000000000E+00 0.  1.
         22    1    1    2    0    0  0.47203592342E+03  0.28923458363E+03 -0.54773399676E+03  0.77877280935E+03  0.00000000000E+00 0. -1.
<mgrwt>
<rscale>  0 0.11199414E+04</rscale>
<asrwt>0</asrwt>
<pdfrwt beam="1">  1        2 0.23083417E+00 0.11199414E+04</pdfrwt>
<pdfrwt beam="2">  1       -2 0.32151690E-01 0.11199414E+04</pdfrwt>
<totfact> 0.11319133E+02</totfact>
</mgrwt>
</event>
<event>
 6    1  0.5196787E-004  0.5194249E+04  0.7818608E-02  0.7799222E-01
         -2   -1    0    0    0  501 -0.00000000000E+00  0.00000000000E+00  0.23300209249E+04  0.23300209249E+04  0.00000000000E+00 0. -1.
          2   -1    0    0  501    0  0.00000000000E+00 -0.00000000000E+00 -0.28948471329E+04  0.28948471329E+04  0.00000000000E+00 0.  1.
         23    2    1    2    0    0  0.12781352594E+04 -0.17360438037E+04  0.11726185230E+04  0.24560791487E+04  0.99059346779E+02 0.  0.
         13    1    3    3    0    0  0.54392097721E+03 -0.82180602574E+03  0.53152914629E+03  0.11197046069E+04  0.00000000000E+00 0. -1.
        -13    1    3    3    0    0  0.73421428224E+03 -0.91423777800E+03  0.64108937671E+03  0.13363745418E+04  0.00000000000E+00 0.  1.
         22    1    1    2    0    0 -0.12781352594E+04  0.17360438037E+04 -0.17374447310E+04  0.27687889091E+04  0.00000000000E+00 0.  1.
<mgrwt>
<rscale>  0 0.51942485E+04</rscale>
<asrwt>0</asrwt>
<pdfrwt beam="1">  1        2 0.44536109E+00 0.51942485E+04</pdfrwt>
<pdfrwt beam="2">  1       -2 0.35846476E+00 0.51942485E+04</pdfrwt>
<totfact> 0.19951462E-02</totfact>
</mgrwt>
</event>
<event>
 6    1  0.5196787E-004  0.7796560E+03  0.7818608E-02  0.9589940E-01
          2   -1    0    0  501    0  0.00000000000E+00  0.00000000000E+00  0.20744484593E+04  0.20744484593E+04  0.00000000000E+00 0.  1.
         -2   -1    0    0    0  501 -0.00000000000E+00 -0.00000000000E+00 -0.73256041669E+02  0.73256041669E+02  0.00000000000E+00 0. -1.
         23    2    1    2    0    0 -0.33504911550E+03  0.36796837457E+02  0.50732630748E+03  0.61628428688E+03  0.93885158358E+02 0.  0.
         13    1    3    3    0    0 -0.25926170392E+03 -0.10566596788E+02  0.39743829112E+03  0.47464247527E+03  0.00000000000E+00 0.  1.
        -13    1    3    3    0    0 -0.75787411580E+02  0.47363434245E+02  0.10988801636E+03  0.14164181162E+03  0.00000000000E+00 0. -1.
         22    1    1    2    0    0  0.33504911550E+03 -0.36796837457E+02  0.14938661101E+04  0.15314202140E+04  0.00000000000E+00 0.  1.
<mgrwt>
<rscale>  0 0.77965603E+03</rscale>
<asrwt>0</asrwt>
<pdfrwt beam="1">  1        2 0.31914587E+00 0.77965603E+03</pdfrwt>
<pdfrwt beam="2">  1       -2 0.11270162E-01 0.77965603E+03</pdfrwt>
<totfact> 0.35067860E+02</totfact>
</mgrwt>
</event>
<event>
 6    1  0.5196787E-004  0.1850066E+04  0.7818608E-02  0.8680119E-01
         -2   -1    0    0    0  501 -0.00000000000E+00  0.00000000000E+00  0.47141576425E+03  0.47141576425E+03  0.00000000000E+00 0. -1.
          2   -1    0    0  501    0  0.00000000000E+00 -0.00000000000E+00 -0.18151411374E+04  0.18151411374E+04  0.00000000000E+00 0.  1.
         23    2    1    2    0    0 -0.77837182088E+03  0.39947653358E+03 -0.31003939366E+03  0.93232246971E+03  0.87501825645E+02 0.  0.
         13    1    3    3    0    0 -0.82784442972E+02  0.71690144737E+02 -0.52004237421E+02  0.12123193292E+03  0.00000000000E+00 0. -1.
        -13    1    3    3    0    0 -0.69558737791E+03  0.32778638884E+03 -0.25803515624E+03  0.81109053679E+03  0.00000000000E+00 0.  1.
         22    1    1    2    0    0  0.77837182088E+03 -0.39947653358E+03 -0.10336859794E+04  0.13542344319E+04  0.00000000000E+00 0.  1.
<mgrwt>
<rscale>  0 0.18500661E+04</rscale>
<asrwt>0</asrwt>
<pdfrwt beam="1">  1        2 0.27925248E+00 0.18500661E+04</pdfrwt>
<pdfrwt beam="2">  1       -2 0.72525504E-01 0.18500661E+04</pdfrwt>
<totfact> 0.13684821E+01</totfact>
</mgrwt>
</event>
<event>
 6    1  0.5196787E-004  0.2939539E+04  0.7818608E-02  0.8261210E-01
         -2   -1    0    0    0  501 -0.00000000000E+00  0.00000000000E+00  0.28691352309E+04  0.28691352309E+04  0.00000000000E+00 0. -1.
          2   -1    0    0  501    0  0.00000000000E+00 -0.00000000000E+00 -0.75291741447E+03  0.75291741447E+03  0.00000000000E+00 0.  1.
         23    2    1    2    0    0  0.79956138551E+03 -0.10341232569E+04  0.18833602592E+04  0.22942981644E+04  0.89715559074E+02 0.  0.
         11    1    3    3    0    0  0.38739727382E+03 -0.44433782957E+03  0.79912283234E+03  0.99303074258E+03  0.00000000000E+00 0.  1.
        -11    1    3    3    0    0  0.41216411169E+03 -0.58978542735E+03  0.10842374269E+04  0.13012674218E+04  0.00000000000E+00 0. -1.
         22    1    1    2    0    0 -0.79956138551E+03  0.10341232569E+04  0.23285755719E+03  0.13277544809E+04  0.00000000000E+00 0.  1.
<mgrwt>
<rscale>  0 0.29395387E+04</rscale>
<asrwt>0</asrwt>
<pdfrwt beam="1">  1        2 0.11583345E+00 0.29395387E+04</pdfrwt>
<pdfrwt beam="2">  1       -2 0.44140541E+00 0.29395387E+04</pdfrwt>
<totfact> 0.12683215E-01</totfact>
</mgrwt>
</event>
<event>
 6    1  0.5196787E-004  0.4084289E+04  0.7818608E-02  0.7987755E-01
         -2   -1    0    0    0  501 -0.00000000000E+00  0.00000000000E+00  0.20478687111E+04  0.20478687111E+04  0.00000000000E+00 0. -1.
          2   -1    0    0  501    0  0.00000000000E+00 -0.00000000000E+00 -0.20364366388E+04  0.20364366388E+04  0.00000000000E+00 0.  1.
         23    2    1    2    0    0 -0.19114835243E+04  0.70079996828E+03  0.15207782130E+03  0.20435527715E+04  0.89946691605E+02 0.  0.
         13    1    3    3    0    0 -0.13593414603E+04  0.45561364276E+03  0.98286009512E+02  0.14370292749E+04  0.00000000000E+00 0.  1.
        -13    1    3    3    0    0 -0.55214206394E+03  0.24518632551E+03  0.53791811783E+02  0.60652349666E+03  0.00000000000E+00 0. -1.
         22    1    1    2    0    0  0.19114835243E+04 -0.70079996828E+03 -0.14064574900E+03  0.20407525783E+04  0.00000000000E+00 0. -1.
<mgrwt>
<rscale>  0 0.40842894E+04</rscale>
<asrwt>0</asrwt>
<pdfrwt beam="1">  1        2 0.31329794E+00 0.40842894E+04</pdfrwt>
<pdfrwt beam="2">  1       -2 0.31505673E+00 0.40842894E+04</pdfrwt>
<totfact> 0.12832624E-01</totfact>
</mgrwt>
</event>
<event>
 6    1  0.5196787E-004  0.3285962E+04  0.7818608E-02  0.8166477E-01
         -2   -1    0    0    0  501 -0.00000000000E+00  0.00000000000E+00  0.10630887589E+04  0.10630887589E+04  0.00000000000E+00 0. -1.
          2   -1    0    0  501    0  0.00000000000E+00 -0.00000000000E+00 -0.25391916081E+04  0.25391916081E+04  0.00000000000E+00 0.  1.
         23    2    1    2    0    0 -0.84615640411E+02 -0.22577035097E+03 -0.25188166770E+04  0.25320541363E+04  0.93427183242E+02 0.  0.
         11    1    3    3    0    0 -0.13009825027E+02 -0.68258486966E+02 -0.11889618804E+04  0.11909906925E+04  0.00000000000E+00 0. -1.
        -11    1    3    3    0    0 -0.71605815384E+02 -0.15751186400E+03 -0.13298547967E+04  0.13410634438E+04  0.00000000000E+00 0.  1.
         22    1    1    2    0    0  0.84615640411E+02  0.22577035097E+03  0.10427138279E+04  0.10702262307E+04  0.00000000000E+00 0. -1.
<mgrwt>
<rscale>  0 0.32859617E+04</rscale>
<asrwt>0</asrwt>
<pdfrwt beam="1">  1        2 0.39064486E+00 0.32859617E+04</pdfrwt>
<pdfrwt beam="2">  1       -2 0.16355212E+00 0.32859617E+04</pdfrwt>
<totfact> 0.65500635E-01</totfact>
</mgrwt>
</event>
<event>
 6    1  0.5196787E-004  0.1857699E+04  0.7818608E-02  0.8676203E-01
          2   -1    0    0  501    0  0.00000000000E+00  0.00000000000E+00  0.21035472922E+04  0.21035472922E+04  0.00000000000E+00 0.  1.
         -2   -1    0    0    0  501 -0.00000000000E+00 -0.00000000000E+00 -0.41014614070E+03  0.41014614070E+03  0.00000000000E+00 0. -1.
         23    2    1    2    0    0  0.73212768742E+03  0.49244169037E+03  0.12320177602E+04  0.15180105502E+04  0.89322449698E+02 0.  0.
         13    1    3    3    0    0  0.33338403012E+03  0.20469622626E+03  0.47579795967E+03  0.61597820985E+03  0.00000000000E+00 0. -1.
        -13    1    3    3    0    0  0.39874365730E+03  0.28774546411E+03  0.75621980054E+03  0.90203234038E+03  0.00000000000E+00 0.  1.
         22    1    1    2    0    0 -0.73212768742E+03 -0.49244169037E+03  0.46138339130E+03  0.99568288268E+03  0.00000000000E+00 0.  1.
<mgrwt>
<rscale>  0 0.18576994E+04</rscale>
<asrwt>0</asrwt>
<pdfrwt beam="1">  1        2 0.32362265E+00 0.18576994E+04</pdfrwt>
<pdfrwt beam="2">  1       -2 0.63099407E-01 0.18576994E+04</pdfrwt>
<totfact> 0.12789459E+01</totfact>
</mgrwt>
</event>
<event>
 6    1  0.5196787E-004  0.2832745E+04  0.7818608E-02  0.8293174E-01
         -2   -1    0    0    0  501 -0.00000000000E+00  0.00000000000E+00  0.15552094926E+04  0.15552094926E+04  0.00000000000E+00 0.  1.
          2   -1    0    0  501    0  0.00000000000E+00 -0.00000000000E+00 -0.12899297309E+04  0.12899297309E+04  0.00000000000E+00 0. -1.
         23    2    1    2    0    0  0.26808351335E+03  0.89034693190E+03 -0.93838409910E+03  0.13241549635E+04  0.90748116938E+02 0.  0.
         13    1    3    3    0    0  0.98573878285E+02  0.42563551744E+03 -0.39018873716E+03  0.58577269806E+03  0.00000000000E+00 0.  1.
        -13    1    3    3    0    0  0.16950963507E+03  0.46471141446E+03 -0.54819536194E+03  0.73838226547E+03  0.00000000000E+00 0. -1.
         22    1    1    2    0    0 -0.26808351335E+03 -0.89034693190E+03  0.12036638608E+04  0.15209842600E+04  0.00000000000E+00 0.  1.
<mgrwt>
<rscale>  0 0.28327449E+04</rscale>
<asrwt>0</asrwt>
<pdfrwt beam="1">  1        2 0.19845073E+00 0.28327449E+04</pdfrwt>
<pdfrwt beam="2">  1       -2 0.23926300E+00 0.28327449E+04</pdfrwt>
<totfact> 0.10886200E+00</totfact>
</mgrwt>
</event>
<event>
 6    1  0.5196787E-004  0.1186461E+04  0.7818608E-02  0.9124790E-01
          2   -1    0    0  501    0  0.00000000000E+00  0.00000000000E+00  0.88358242847E+03  0.88358242847E+03  0.00000000000E+00 0.  1.
         -2   -1    0    0    0  501 -0.00000000000E+00 -0.00000000000E+00 -0.39829052608E+03  0.39829052608E+03  0.00000000000E+00 0. -1.
         23    2    1    2    0    0  0.23662993042E+03 -0.99701057917E+02  0.81777842735E+03  0.86177616309E+03  0.89233256807E+02 0.  0.
         11    1    3    3    0    0  0.15417642661E+03 -0.53301584630E+02  0.37407240057E+03  0.40809507509E+03  0.00000000000E+00 0.  1.
        -11    1    3    3    0    0  0.82453503813E+02 -0.46399473288E+02  0.44370602678E+03  0.45368108800E+03  0.00000000000E+00 0. -1.
         22    1    1    2    0    0 -0.23662993042E+03  0.99701057917E+02 -0.33248652495E+03  0.42009679146E+03  0.00000000000E+00 0. -1.
<mgrwt>
<rscale>  0 0.11864611E+04</rscale>
<asrwt>0</asrwt>
<pdfrwt beam="1">  1        2 0.13593576E+00 0.11864611E+04</pdfrwt>
<pdfrwt beam="2">  1       -2 0.61275466E-01 0.11864611E+04</pdfrwt>
<totfact> 0.73615399E+01</totfact>
</mgrwt>
</event>
<event>
 6    1  0.5196787E-004  0.7841862E+03  0.7818608E-02  0.9583193E-01
         -2   -1    0    0    0  501 -0.00000000000E+00  0.00000000000E+00  0.11896909847E+03  0.11896909847E+03  0.00000000000E+00 0. -1.
          2   -1    0    0  501    0  0.00000000000E+00 -0.00000000000E+00 -0.12922431186E+04  0.12922431186E+04  0.00000000000E+00 0.  1.
         23    2    1    2    0    0 -0.15215232581E+03 -0.23790178910E+03 -0.10704289905E+04  0.11106715515E+04  0.89585044351E+02 0.  0.
         11    1    3    3    0    0 -0.24583469062E+02 -0.98232055914E+02 -0.27474046593E+03  0.29280745786E+03  0.00000000000E+00 0.  1.
        -11    1    3    3    0    0 -0.12756885675E+03 -0.13966973319E+03 -0.79568852459E+03  0.81786409369E+03  0.00000000000E+00 0. -1.
         22    1    1    2    0    0  0.15215232581E+03  0.23790178910E+03 -0.10284502959E+03  0.30054066550E+03  0.00000000000E+00 0.  1.
<mgrwt>
<rscale>  0 0.78418620E+03</rscale>
<asrwt>0</asrwt>
<pdfrwt beam="1">  1        2 0.19880663E+00 0.78418620E+03</pdfrwt>
<pdfrwt beam="2">  1       -2 0.18302939E-01 0.78418620E+03</pdfrwt>
<totfact> 0.41931129E+02</totfact>
</mgrwt>
</event>
<event>
 6    1  0.5196787E-004  0.6274367E+03  0.7818608E-02  0.9850064E-01
         -2   -1    0    0    0  501 -0.00000000000E+00  0.00000000000E+00  0.13134833159E+03  0.13134833159E+03  0.00000000000E+00 0. -1.
          2   -1    0    0  501    0  0.00000000000E+00 -0.00000000000E+00 -0.74929923331E+03  0.74929923331E+03  0.00000000000E+00 0.  1.
         23    2    1    2    0    0  0.16817545924E+03  0.54048404925E+02  0.37270492220E+02  0.20203184873E+03  0.90683863754E+02 0.  0.
         13    1    3    3    0    0  0.49023577806E+02  0.61433094004E+02  0.72179331301E+01  0.78926768453E+02  0.00000000000E+00 0. -1.
        -13    1    3    3    0    0  0.11915188143E+03 -0.73846890790E+01  0.30052559090E+02  0.12310508028E+03  0.00000000000E+00 0.  1.
         22    1    1    2    0    0 -0.16817545924E+03 -0.54048404925E+02 -0.65522139394E+03  0.67861571617E+03  0.00000000000E+00 0.  1.
<mgrwt>
<rscale>  0 0.62743670E+03</rscale>
<asrwt>0</asrwt>
<pdfrwt beam="1">  1        2 0.11527681E+00 0.62743670E+03</pdfrwt>
<pdfrwt beam="2">  1       -2 0.20207435E-01 0.62743670E+03</pdfrwt>
<totfact> 0.79112829E+02</totfact>
</mgrwt>
</event>
<event>
 6    1  0.5196787E-004  0.5428670E+04  0.7818608E-02  0.7765581E-01
         -2   -1    0    0    0  501 -0.00000000000E+00  0.00000000000E+00  0.25880343034E+04  0.25880343034E+04  0.00000000000E+00 0. -1.
          2   -1    0    0  501    0  0.00000000000E+00 -0.00000000000E+00 -0.28467993278E+04  0.28467993278E+04  0.00000000000E+00 0.  1.
         23    2    1    2    0    0  0.11199572720E+04 -0.12813004510E+04 -0.22454004556E+04  0.28189675273E+04  0.93378677275E+02 0.  0.
         11    1    3    3    0    0  0.88707217100E+03 -0.10652997637E+04 -0.18019938463E+04  0.22735308322E+04  0.00000000000E+00 0.  1.
        -11    1    3    3    0    0  0.23288510098E+03 -0.21600068732E+03 -0.44340660932E+03  0.54543669511E+03  0.00000000000E+00 0. -1.
         22    1    1    2    0    0 -0.11199572720E+04  0.12813004510E+04  0.19866354312E+04  0.26158661039E+04  0.00000000000E+00 0. -1.
<mgrwt>
<rscale>  0 0.54286699E+04</rscale>
<asrwt>0</asrwt>
<pdfrwt beam="1">  1        2 0.43796913E+00 0.54286699E+04</pdfrwt>
<pdfrwt beam="2">  1       -2 0.39815912E+00 0.54286699E+04</pdfrwt>
<totfact> 0.11639481E-02</totfact>
</mgrwt>
</event>
<event>
 6    1  0.5196787E-004  0.3400360E+04  0.7818608E-02  0.8137818E-01
          1   -1    0    0  501    0  0.00000000000E+00  0.00000000000E+00  0.43427536342E+04  0.43427536342E+04  0.00000000000E+00 0.  1.
         -1   -1    0    0    0  501 -0.00000000000E+00 -0.00000000000E+00 -0.66561742350E+03  0.66561742350E+03  0.00000000000E+00 0. -1.
         23    2    1    2    0    0  0.44926115645E+03  0.10397223696E+04  0.37050120918E+04  0.38753947750E+04  0.93337392801E+02 0.  0.
         11    1    3    3    0    0  0.20602420357E+03  0.49131177936E+03  0.15857309196E+04  0.16728346560E+04  0.00000000000E+00 0. -1.
        -11    1    3    3    0    0  0.24323695287E+03  0.54841059020E+03  0.21192811722E+04  0.22025601190E+04  0.00000000000E+00 0.  1.
         22    1    1    2    0    0 -0.44926115645E+03 -0.10397223696E+04 -0.27875881139E+02  0.11329762827E+04  0.00000000000E+00 0. -1.
<mgrwt>
<rscale>  0 0.34003603E+04</rscale>
<asrwt>0</asrwt>
<pdfrwt beam="1">  1        1 0.66811593E+00 0.34003603E+04</pdfrwt>
<pdfrwt beam="2">  1       -1 0.10240268E+00 0.34003603E+04</pdfrwt>
<totfact> 0.34242161E-02</totfact>
</mgrwt>
</event>
<event>
 6    1  0.5196787E-004  0.5592861E+04  0.7818608E-02  0.7743039E-01
         -2   -1    0    0    0  501 -0.00000000000E+00  0.00000000000E+00  0.58868669915E+04  0.58868669915E+04  0.00000000000E+00 0. -1.
          2   -1    0    0  501    0  0.00000000000E+00 -0.00000000000E+00 -0.13283847694E+04  0.13283847694E+04  0.00000000000E+00 0.  1.
         23    2    1    2    0    0  0.13265205146E+04 -0.24603880747E+04  0.23475628770E+04  0.36513591553E+04  0.90587337272E+02 0.  0.
         13    1    3    3    0    0  0.49005902255E+03 -0.91073328257E+03  0.81181288898E+03  0.13147749329E+04  0.00000000000E+00 0. -1.
        -13    1    3    3    0    0  0.83646149205E+03 -0.15496547921E+04  0.15357499880E+04  0.23365842223E+04  0.00000000000E+00 0.  1.
         22    1    1    2    0    0 -0.13265205146E+04  0.24603880747E+04  0.22109193452E+04  0.35638926056E+04  0.00000000000E+00 0.  1.
<mgrwt>
<rscale>  0 0.55928613E+04</rscale>
<asrwt>0</asrwt>
<pdfrwt beam="1">  1        2 0.20436689E+00 0.55928613E+04</pdfrwt>
<pdfrwt beam="2">  1       -2 0.90567183E+00 0.55928613E+04</pdfrwt>
<totfact> 0.77893912E-05</totfact>
</mgrwt>
</event>
<event>
 6    1  0.5196787E-004  0.1681026E+04  0.7818608E-02  0.8772261E-01
         -2   -1    0    0    0  501 -0.00000000000E+00  0.00000000000E+00  0.98946225979E+03  0.98946225979E+03  0.00000000000E+00 0. -1.
          2   -1    0    0  501    0  0.00000000000E+00 -0.00000000000E+00 -0.71398570573E+03  0.71398570573E+03  0.00000000000E+00 0.  1.
         23    2    1    2    0    0  0.78676377062E+03 -0.25050135216E+03  0.28342635933E+03  0.87772927396E+03  0.91268937817E+02 0.  0.
         11    1    3    3    0    0  0.26743316507E+03 -0.11638832411E+03  0.66445126383E+02  0.29913491034E+03  0.00000000000E+00 0. -1.
        -11    1    3    3    0    0  0.51933060555E+03 -0.13411302805E+03  0.21698123295E+03  0.57859436362E+03  0.00000000000E+00 0.  1.
         22    1    1    2    0    0 -0.78676377062E+03  0.25050135216E+03 -0.79498052679E+01  0.82571869156E+03  0.00000000000E+00 0.  1.
<mgrwt>
<rscale>  0 0.16810258E+04</rscale>
<asrwt>0</asrwt>
<pdfrwt beam="1">  1        2 0.10984395E+00 0.16810258E+04</pdfrwt>
<pdfrwt beam="2">  1       -2 0.15222496E+00 0.16810258E+04</pdfrwt>
<totfact> 0.10963617E+01</totfact>
</mgrwt>
</event>
<event>
 6    1  0.5196787E-004  0.5163569E+04  0.7818608E-02  0.7803759E-01
          2   -1    0    0  501    0  0.00000000000E+00  0.00000000000E+00  0.28785537717E+04  0.28785537717E+04  0.00000000000E+00 0.  1.
         -2   -1    0    0    0  501 -0.00000000000E+00 -0.00000000000E+00 -0.23156108519E+04  0.23156108519E+04  0.00000000000E+00 0. -1.
         23    2    1    2    0    0  0.83806885883E+03 -0.19954471343E+04 -0.11329149947E+04  0.24446005228E+04  0.91687801354E+02 0.  0.
         13    1    3    3    0    0  0.16196203511E+03 -0.30427521309E+03 -0.16744984024E+03  0.38321606845E+03  0.00000000000E+00 0. -1.
        -13    1    3    3    0    0  0.67610682372E+03 -0.16911719212E+04 -0.96546515441E+03  0.20613844544E+04  0.00000000000E+00 0.  1.
         22    1    1    2    0    0 -0.83806885883E+03  0.19954471343E+04  0.16958579144E+04  0.27495641007E+04  0.00000000000E+00 0.  1.
<mgrwt>
<rscale>  0 0.51635687E+04</rscale>
<asrwt>0</asrwt>
<pdfrwt beam="1">  1        2 0.44285443E+00 0.51635687E+04</pdfrwt>
<pdfrwt beam="2">  1       -2 0.35624782E+00 0.51635687E+04</pdfrwt>
<totfact> 0.21140040E-02</totfact>
</mgrwt>
</event>
<event>
 6    1  0.5196787E-004  0.2022959E+04  0.7818608E-02  0.8595961E-01
          2   -1    0    0  501    0  0.00000000000E+00  0.00000000000E+00  0.20332964633E+04  0.20332964633E+04  0.00000000000E+00 0.  1.
         -2   -1    0    0    0  501 -0.00000000000E+00 -0.00000000000E+00 -0.50316837736E+03  0.50316837736E+03  0.00000000000E+00 0. -1.
         23    2    1    2    0    0 -0.15208528060E+02  0.47121745632E+03 -0.35013626920E+03  0.59799347496E+03  0.11279893003E+03 0.  0.
         13    1    3    3    0    0  0.34219144188E+02  0.20871969033E+03 -0.10807284086E+03  0.23751757386E+03  0.00000000000E+00 0.  1.
        -13    1    3    3    0    0 -0.49427672248E+02  0.26249776600E+03 -0.24206342834E+03  0.36047590110E+03  0.00000000000E+00 0. -1.
         22    1    1    2    0    0  0.15208528060E+02 -0.47121745632E+03  0.18802643551E+04  0.19384713657E+04  0.00000000000E+00 0.  1.
<mgrwt>
<rscale>  0 0.20229587E+04</rscale>
<asrwt>0</asrwt>
<pdfrwt beam="1">  1        2 0.31281483E+00 0.20229587E+04</pdfrwt>
<pdfrwt beam="2">  1       -2 0.77410521E-01 0.20229587E+04</pdfrwt>
<totfact> 0.88341769E+00</totfact>
</mgrwt>
</event>
<event>
 6    1  0.5196787E-004  0.1391853E+04  0.7818608E-02  0.8959737E-01
         -2   -1    0    0    0  501 -0.00000000000E+00  0.00000000000E+00  0.15592424295E+03  0.15592424295E+03  0.00000000000E+00 0. -1.
          2   -1    0    0  501    0  0.00000000000E+00 -0.00000000000E+00 -0.31060850234E+04  0.31060850234E+04  0.00000000000E+00 0.  1.
         23    2    1    2    0    0  0.36156803207E+03  0.59053768086E+03 -0.15327905838E+04  0.16845415270E+04  0.93632195735E+02 0.  0.
         11    1    3    3    0    0  0.17887796991E+03  0.37430639604E+03 -0.87097240816E+03  0.96472563043E+03  0.00000000000E+00 0. -1.
        -11    1    3    3    0    0  0.18269006216E+03  0.21623128481E+03 -0.66181817568E+03  0.71981589661E+03  0.00000000000E+00 0.  1.
         22    1    1    2    0    0 -0.36156803207E+03 -0.59053768086E+03 -0.14173701966E+04  0.15774677393E+04  0.00000000000E+00 0. -1.
<mgrwt>
<rscale>  0 0.13918534E+04</rscale>
<asrwt>0</asrwt>
<pdfrwt beam="1">  1        2 0.47785927E+00 0.13918534E+04</pdfrwt>
<pdfrwt beam="2">  1       -2 0.23988343E-01 0.13918534E+04</pdfrwt>
<totfact> 0.22699489E+01</totfact>
</mgrwt>
</event>
<event>
 6    1  0.5196787E-004  0.1384783E+04  0.7818608E-02  0.8964907E-01
         -2   -1    0    0    0  501 -0.00000000000E+00  0.00000000000E+00  0.45099841646E+03  0.45099841646E+03  0.00000000000E+00 0. -1.
          2   -1    0    0  501    0  0.00000000000E+00 -0.00000000000E+00 -0.10629884650E+04  0.10629884650E+04  0.00000000000E+00 0.  1.
         23    2    1    2    0    0 -0.30070158919E+03 -0.60059814206E+03 -0.47658128793E+03  0.82880434632E+03  0.92991109677E+02 0.  0.
         11    1    3    3    0    0 -0.13427060242E+03 -0.25940006788E+03 -0.15166746157E+03  0.32912005224E+03  0.00000000000E+00 0. -1.
        -11    1    3    3    0    0 -0.16643098677E+03 -0.34119807419E+03 -0.32491382636E+03  0.49968429407E+03  0.00000000000E+00 0.  1.
         22    1    1    2    0    0  0.30070158919E+03  0.60059814206E+03 -0.13540876059E+03  0.68518253512E+03  0.00000000000E+00 0.  1.
<mgrwt>
<rscale>  0 0.13847832E+04</rscale>
<asrwt>0</asrwt>
<pdfrwt beam="1">  1        2 0.16353669E+00 0.13847832E+04</pdfrwt>
<pdfrwt beam="2">  1       -2 0.69384372E-01 0.13847832E+04</pdfrwt>
<totfact> 0.42428260E+01</totfact>
</mgrwt>
</event>
<event>
 6    1  0.5224226E-004  0.3934311E+04  0.7818608E-02  0.8017931E-01
         -2   -1    0    0    0  501 -0.00000000000E+00  0.00000000000E+00  0.24335608503E+04  0.24335608503E+04  0.00000000000E+00 0. -1.
          2   -1    0    0  501    0  0.00000000000E+00 -0.00000000000E+00 -0.15901389269E+04  0.15901389269E+04  0.00000000000E+00 0.  1.
         23    2    1    2    0    0 -0.18568550314E+04  0.26037671696E+03  0.10269083028E+04  0.21397215677E+04  0.90338710694E+02 0.  0.
         13    1    3    3    0    0 -0.12875172699E+04  0.20200486831E+03  0.75397628942E+03  0.15056516636E+04  0.00000000000E+00 0. -1.
        -13    1    3    3    0    0 -0.56933776142E+03  0.58371848653E+02  0.27293201340E+03  0.63406990406E+03  0.00000000000E+00 0.  1.
         22    1    1    2    0    0  0.18568550314E+04 -0.26037671696E+03 -0.18348637937E+03  0.18839782094E+04  0.00000000000E+00 0.  1.
<mgrwt>
<rscale>  0 0.39343105E+04</rscale>
<asrwt>0</asrwt>
<pdfrwt beam="1">  1        2 0.24463676E+00 0.39343105E+04</pdfrwt>
<pdfrwt beam="2">  1       -2 0.37439398E+00 0.39343105E+04</pdfrwt>
<totfact> 0.97416201E-02</totfact>
</mgrwt>
</event>
<event>
 6    1  0.5196787E-004  0.3765932E+03  0.7818608E-02  0.1052200E+00
         -2   -1    0    0    0  501 -0.00000000000E+00  0.00000000000E+00  0.29703557031E+02  0.29703557031E+02  0.00000000000E+00 0. -1.
          2   -1    0    0  501    0  0.00000000000E+00 -0.00000000000E+00 -0.11936485210E+04  0.11936485210E+04  0.00000000000E+00 0.  1.
         23    2    1    2    0    0 -0.11838021225E+03 -0.11080511699E+03 -0.84785652646E+03  0.86810068966E+03  0.91904675282E+02 0.  0.
         13    1    3    3    0    0 -0.26004673744E+02 -0.73836338676E+02 -0.50738802190E+03  0.51339132515E+03  0.00000000000E+00 0. -1.
        -13    1    3    3    0    0 -0.92375538502E+02 -0.36968778315E+02 -0.34046850455E+03  0.35470936452E+03  0.00000000000E+00 0.  1.
         22    1    1    2    0    0  0.11838021225E+03  0.11080511699E+03 -0.31608843746E+03  0.35525138832E+03  0.00000000000E+00 0. -1.
<mgrwt>
<rscale>  0 0.37659319E+03</rscale>
<asrwt>0</asrwt>
<pdfrwt beam="1">  1        2 0.18363826E+00 0.37659319E+03</pdfrwt>
<pdfrwt beam="2">  1       -2 0.45697774E-02 0.37659319E+03</pdfrwt>
<totfact> 0.45427148E+03</totfact>
</mgrwt>
</event>
<event>
 6    1  0.5196787E-004  0.3569613E+04  0.7818608E-02  0.8097488E-01
         -2   -1    0    0    0  501 -0.00000000000E+00  0.00000000000E+00  0.11122972252E+04  0.11122972252E+04  0.00000000000E+00 0. -1.
          2   -1    0    0  501    0  0.00000000000E+00 -0.00000000000E+00 -0.28639243235E+04  0.28639243235E+04  0.00000000000E+00 0.  1.
         23    2    1    2    0    0 -0.53661742647E+03  0.16305771101E+04 -0.14157964273E+04  0.22270725516E+04  0.92912065962E+02 0.  0.
         11    1    3    3    0    0 -0.18940616184E+03  0.72215684018E+03 -0.60908117256E+03  0.96351703188E+03  0.00000000000E+00 0. -1.
        -11    1    3    3    0    0 -0.34721126463E+03  0.90842026995E+03 -0.80671525471E+03  0.12635555197E+04  0.00000000000E+00 0.  1.
         22    1    1    2    0    0  0.53661742647E+03 -0.16305771101E+04 -0.33583067098E+03  0.17491489971E+04  0.00000000000E+00 0. -1.
<mgrwt>
<rscale>  0 0.35696135E+04</rscale>
<asrwt>0</asrwt>
<pdfrwt beam="1">  1        2 0.44060374E+00 0.35696135E+04</pdfrwt>
<pdfrwt beam="2">  1       -2 0.17112265E+00 0.35696135E+04</pdfrwt>
<totfact> 0.36129203E-01</totfact>
</mgrwt>
</event>
<event>
 6    1  0.5196787E-004  0.1824133E+04  0.7818608E-02  0.8693570E-01
          1   -1    0    0  501    0  0.00000000000E+00  0.00000000000E+00  0.12524332190E+04  0.12524332190E+04  0.00000000000E+00 0.  1.
         -1   -1    0    0    0  501 -0.00000000000E+00 -0.00000000000E+00 -0.66419956863E+03  0.66419956863E+03  0.00000000000E+00 0. -1.
         23    2    1    2    0    0  0.25007118503E+03  0.65428695424E+03 -0.31538553016E+03  0.77332415060E+03  0.89079701302E+02 0.  0.
         13    1    3    3    0    0  0.10138919156E+03  0.37227929023E+03 -0.14799018410E+03  0.41324657614E+03  0.00000000000E+00 0. -1.
        -13    1    3    3    0    0  0.14868199347E+03  0.28200766401E+03 -0.16739534606E+03  0.36007757446E+03  0.00000000000E+00 0.  1.
         22    1    1    2    0    0 -0.25007118503E+03 -0.65428695424E+03  0.90361918055E+03  0.11433086370E+04  0.00000000000E+00 0.  1.
<mgrwt>
<rscale>  0 0.18241333E+04</rscale>
<asrwt>0</asrwt>
<pdfrwt beam="1">  1        1 0.19268203E+00 0.18241333E+04</pdfrwt>
<pdfrwt beam="2">  1       -1 0.10218455E+00 0.18241333E+04</pdfrwt>
<totfact> 0.83582419E+00</totfact>
</mgrwt>
</event>
<event>
 6    1  0.5196787E-004  0.1103561E+04  0.7818608E-02  0.9201728E-01
          2   -1    0    0  501    0  0.00000000000E+00  0.00000000000E+00  0.49920751664E+03  0.49920751664E+03  0.00000000000E+00 0.  1.
         -2   -1    0    0    0  501 -0.00000000000E+00 -0.00000000000E+00 -0.60989050240E+03  0.60989050240E+03  0.00000000000E+00 0. -1.
         23    2    1    2    0    0 -0.50376265912E+03 -0.95995543148E+02  0.14028399787E+03  0.53815459986E+03  0.83299533394E+02 0.  0.
         13    1    3    3    0    0 -0.60169063600E+02  0.99645509382E+01 -0.17734153912E-01  0.60988595691E+02  0.00000000000E+00 0. -1.
        -13    1    3    3    0    0 -0.44359359552E+03 -0.10596009409E+03  0.14030173202E+03  0.47716600417E+03  0.00000000000E+00 0.  1.
         22    1    1    2    0    0  0.50376265912E+03  0.95995543148E+02 -0.25096698362E+03  0.57094341917E+03  0.00000000000E+00 0. -1.
<mgrwt>
<rscale>  0 0.11035614E+04</rscale>
<asrwt>0</asrwt>
<pdfrwt beam="1">  1        2 0.76801156E-01 0.11035614E+04</pdfrwt>
<pdfrwt beam="2">  1       -2 0.93829309E-01 0.11035614E+04</pdfrwt>
<totfact> 0.58777729E+01</totfact>
</mgrwt>
</event>
<event>
 6    1  0.5196787E-004  0.1937896E+04  0.7818608E-02  0.8636220E-01
         -2   -1    0    0    0  501 -0.00000000000E+00  0.00000000000E+00  0.27030816692E+03  0.27030816692E+03  0.00000000000E+00 0. -1.
          2   -1    0    0  501    0  0.00000000000E+00 -0.00000000000E+00 -0.34732946708E+04  0.34732946708E+04  0.00000000000E+00 0.  1.
         23    2    1    2    0    0  0.56940300868E+03  0.62701479264E+02 -0.31096447962E+04  0.31632030305E+04  0.88382079906E+02 0.  0.
         13    1    3    3    0    0  0.25320538942E+03  0.45578886277E+02 -0.11772365868E+04  0.12050213216E+04  0.00000000000E+00 0. -1.
        -13    1    3    3    0    0  0.31619761926E+03  0.17122592987E+02 -0.19324082094E+04  0.19581817090E+04  0.00000000000E+00 0.  1.
         22    1    1    2    0    0 -0.56940300868E+03 -0.62701479264E+02 -0.93341707695E+02  0.58039980719E+03  0.00000000000E+00 0. -1.
<mgrwt>
<rscale>  0 0.19378957E+04</rscale>
<asrwt>0</asrwt>
<pdfrwt beam="1">  1        2 0.53435302E+00 0.19378957E+04</pdfrwt>
<pdfrwt beam="2">  1       -2 0.41585873E-01 0.19378957E+04</pdfrwt>
<totfact> 0.43680975E+00</totfact>
</mgrwt>
</event>
<event>
 6    1  0.5196787E-004  0.1449881E+04  0.7818608E-02  0.8918483E-01
         -1   -1    0    0    0  501 -0.00000000000E+00  0.00000000000E+00  0.13691123410E+04  0.13691123410E+04  0.00000000000E+00 0. -1.
          1   -1    0    0  501    0  0.00000000000E+00 -0.00000000000E+00 -0.38385353157E+03  0.38385353157E+03  0.00000000000E+00 0.  1.
         23    2    1    2    0    0  0.32486539002E+03 -0.32842436742E+03  0.11655950853E+04  0.12570613866E+04  0.90506023011E+02 0.  0.
         13    1    3    3    0    0  0.32507198767E+02 -0.35260138770E+02  0.21383877819E+03  0.21915067514E+03  0.00000000000E+00 0. -1.
        -13    1    3    3    0    0  0.29235819126E+03 -0.29316422865E+03  0.95175630710E+03  0.10379107115E+04  0.00000000000E+00 0.  1.
         22    1    1    2    0    0 -0.32486539002E+03  0.32842436742E+03 -0.18033627587E+03  0.49590448591E+03  0.00000000000E+00 0.  1.
<mgrwt>
<rscale>  0 0.14498808E+04</rscale>
<asrwt>0</asrwt>
<pdfrwt beam="1">  1        1 0.59054390E-01 0.14498808E+04</pdfrwt>
<pdfrwt beam="2">  1       -1 0.21063266E+00 0.14498808E+04</pdfrwt>
<totfact> 0.78357255E+00</totfact>
</mgrwt>
</event>
<event>
 6    1  0.5196787E-004  0.3313977E+04  0.7818608E-02  0.8159348E-01
         -2   -1    0    0    0  501 -0.00000000000E+00  0.00000000000E+00  0.76704823201E+03  0.76704823201E+03  0.00000000000E+00 0. -1.
          2   -1    0    0  501    0  0.00000000000E+00 -0.00000000000E+00 -0.35794491762E+04  0.35794491762E+04  0.00000000000E+00 0.  1.
         23    2    1    2    0    0  0.83968851160E+03  0.64796213003E+03  0.25904595384E+03  0.10970793425E+04  0.10745491627E+03 0.  0.
         13    1    3    3    0    0  0.63345217875E+03  0.43361568617E+03  0.16574808166E+03  0.78533855924E+03  0.00000000000E+00 0.  1.
        -13    1    3    3    0    0  0.20623633285E+03  0.21434644385E+03  0.93297872180E+02  0.31174078324E+03  0.00000000000E+00 0. -1.
         22    1    1    2    0    0 -0.83968851160E+03 -0.64796213003E+03 -0.30714468980E+04  0.32494180657E+04  0.00000000000E+00 0.  1.
<mgrwt>
<rscale>  0 0.33139766E+04</rscale>
<asrwt>0</asrwt>
<pdfrwt beam="1">  1        2 0.55068448E+00 0.33139766E+04</pdfrwt>
<pdfrwt beam="2">  1       -2 0.11800742E+00 0.33139766E+04</pdfrwt>
<totfact> 0.32930048E-01</totfact>
</mgrwt>
</event>
<event>
 6    1  0.5196787E-004  0.2617145E+04  0.7818608E-02  0.8362401E-01
         -2   -1    0    0    0  501 -0.00000000000E+00  0.00000000000E+00  0.62879740792E+03  0.62879740792E+03  0.00000000000E+00 0. -1.
          2   -1    0    0  501    0  0.00000000000E+00 -0.00000000000E+00 -0.27232323042E+04  0.27232323042E+04  0.00000000000E+00 0.  1.
         23    2    1    2    0    0 -0.31951718771E+03 -0.63233078084E+03  0.35856057726E+03  0.79877292071E+03  0.86827654912E+02 0.  0.
         11    1    3    3    0    0 -0.15727903026E+03 -0.40366509554E+03  0.20897425661E+03  0.48099110454E+03  0.00000000000E+00 0. -1.
        -11    1    3    3    0    0 -0.16223815744E+03 -0.22866568529E+03  0.14958632065E+03  0.31778181617E+03  0.00000000000E+00 0.  1.
         22    1    1    2    0    0  0.31951718771E+03  0.63233078084E+03 -0.24529954735E+04  0.25532567914E+04  0.00000000000E+00 0.  1.
<mgrwt>
<rscale>  0 0.26171446E+04</rscale>
<asrwt>0</asrwt>
<pdfrwt beam="1">  1        2 0.41895882E+00 0.26171446E+04</pdfrwt>
<pdfrwt beam="2">  1       -2 0.96738062E-01 0.26171446E+04</pdfrwt>
<totfact> 0.20288269E+00</totfact>
</mgrwt>
</event>
<event>
 6    1  0.5196787E-004  0.2244568E+04  0.7818608E-02  0.8500103E-01
         -2   -1    0    0    0  501 -0.00000000000E+00  0.00000000000E+00  0.93200274904E+03  0.93200274904E+03  0.00000000000E+00 0. -1.
          2   -1    0    0  501    0  0.00000000000E+00 -0.00000000000E+00 -0.13514141450E+04  0.13514141450E+04  0.00000000000E+00 0.  1.
         23    2    1    2    0    0  0.54424530782E+02  0.49811846590E+03  0.80944495679E+03  0.95632534809E+03  0.90956020725E+02 0.  0.
         13    1    3    3    0    0  0.48453895469E+02  0.14914908757E+03  0.20171571616E+03  0.25550432570E+03  0.00000000000E+00 0.  1.
        -13    1    3    3    0    0  0.59706353127E+01  0.34896937834E+03  0.60772924063E+03  0.70082102239E+03  0.00000000000E+00 0. -1.
         22    1    1    2    0    0 -0.54424530782E+02 -0.49811846590E+03 -0.12288563527E+04  0.13270915459E+04  0.00000000000E+00 0.  1.
<mgrwt>
<rscale>  0 0.22445683E+04</rscale>
<asrwt>0</asrwt>
<pdfrwt beam="1">  1        2 0.20790987E+00 0.22445683E+04</pdfrwt>
<pdfrwt beam="2">  1       -2 0.14338504E+00 0.22445683E+04</pdfrwt>
<totfact> 0.47435831E+00</totfact>
</mgrwt>
</event>
<event>
 6    1  0.5196787E-004  0.2869402E+04  0.7818608E-02  0.8282040E-01
         -2   -1    0    0    0  501 -0.00000000000E+00  0.00000000000E+00  0.62599385712E+03  0.62599385712E+03  0.00000000000E+00 0. -1.
          2   -1    0    0  501    0  0.00000000000E+00 -0.00000000000E+00 -0.32881588386E+04  0.32881588386E+04  0.00000000000E+00 0.  1.
         23    2    1    2    0    0  0.10013306857E+03  0.87893477932E+03 -0.28707813428E+04  0.30052666941E+04  0.87689262477E+02 0.  0.
         11    1    3    3    0    0  0.68939359098E+01  0.42585494712E+03 -0.14250811013E+04  0.14873654922E+04  0.00000000000E+00 0.  1.
        -11    1    3    3    0    0  0.93239132660E+02  0.45307983220E+03 -0.14457002415E+04  0.15179012018E+04  0.00000000000E+00 0. -1.
         22    1    1    2    0    0 -0.10013306857E+03 -0.87893477932E+03  0.20861636133E+03  0.90888600161E+03  0.00000000000E+00 0. -1.
<mgrwt>
<rscale>  0 0.28694022E+04</rscale>
<asrwt>0</asrwt>
<pdfrwt beam="1">  1        2 0.50587059E+00 0.28694022E+04</pdfrwt>
<pdfrwt beam="2">  1       -2 0.96306747E-01 0.28694022E+04</pdfrwt>
<totfact> 0.88543858E-01</totfact>
</mgrwt>
</event>
<event>
 6    1  0.5196787E-004  0.3403877E+04  0.7818608E-02  0.8136955E-01
          2   -1    0    0  501    0  0.00000000000E+00  0.00000000000E+00  0.11480330684E+04  0.11480330684E+04  0.00000000000E+00 0.  1.
         -2   -1    0    0    0  501 -0.00000000000E+00 -0.00000000000E+00 -0.25230933415E+04  0.25230933415E+04  0.00000000000E+00 0. -1.
         23    2    1    2    0    0 -0.24262223182E+03  0.61603152927E+03  0.10014647107E+04  0.12040975508E+04  0.92514607426E+02 0.  0.
         13    1    3    3    0    0 -0.49543797345E+02  0.24546171058E+03  0.35925557901E+03  0.43791621375E+03  0.00000000000E+00 0. -1.
        -13    1    3    3    0    0 -0.19307843448E+03  0.37056981869E+03  0.64220913173E+03  0.76618133706E+03  0.00000000000E+00 0.  1.
         22    1    1    2    0    0  0.24262223182E+03 -0.61603152927E+03 -0.23765249839E+04  0.24670288591E+04  0.00000000000E+00 0. -1.
<mgrwt>
<rscale>  0 0.34038770E+04</rscale>
<asrwt>0</asrwt>
<pdfrwt beam="1">  1        2 0.17662048E+00 0.34038770E+04</pdfrwt>
<pdfrwt beam="2">  1       -2 0.38816820E+00 0.34038770E+04</pdfrwt>
<totfact> 0.14934152E-01</totfact>
</mgrwt>
</event>
<event>
 6    1  0.5196787E-004  0.2259278E+04  0.7818608E-02  0.8494153E-01
         -2   -1    0    0    0  501 -0.00000000000E+00  0.00000000000E+00  0.92698303819E+03  0.92698303819E+03  0.00000000000E+00 0.  1.
          2   -1    0    0  501    0  0.00000000000E+00 -0.00000000000E+00 -0.13765988465E+04  0.13765988465E+04  0.00000000000E+00 0. -1.
         23    2    1    2    0    0  0.71342818103E+03  0.75011935923E+03  0.23067952161E+03  0.10648484354E+04  0.95028027550E+02 0.  0.
         11    1    3    3    0    0  0.43848389747E+03  0.44775471229E+03  0.92777414720E+02  0.63352984097E+03  0.00000000000E+00 0. -1.
        -11    1    3    3    0    0  0.27494428357E+03  0.30236464694E+03  0.13790210689E+03  0.43131859439E+03  0.00000000000E+00 0.  1.
         22    1    1    2    0    0 -0.71342818103E+03 -0.75011935923E+03 -0.68029532992E+03  0.12387334493E+04  0.00000000000E+00 0. -1.
<mgrwt>
<rscale>  0 0.22592776E+04</rscale>
<asrwt>0</asrwt>
<pdfrwt beam="1">  1        2 0.21178444E+00 0.22592776E+04</pdfrwt>
<pdfrwt beam="2">  1       -2 0.14261278E+00 0.22592776E+04</pdfrwt>
<totfact> 0.46473478E+00</totfact>
</mgrwt>
</event>
<event>
 6    1  0.5196787E-004  0.8360904E+03  0.7818608E-02  0.9509198E-01
         -2   -1    0    0    0  501 -0.00000000000E+00  0.00000000000E+00  0.57693062352E+03  0.57693062352E+03  0.00000000000E+00 0. -1.
          2   -1    0    0  501    0  0.00000000000E+00 -0.00000000000E+00 -0.30291646434E+03  0.30291646434E+03  0.00000000000E+00 0.  1.
         23    2    1    2    0    0 -0.21590892210E+03 -0.59070012611E+02  0.50404078091E+03  0.55888264164E+03  0.90480767416E+02 0.  0.
         13    1    3    3    0    0 -0.16493748921E+03 -0.63047916362E+02  0.45490188641E+03  0.48797043083E+03  0.00000000000E+00 0.  1.
        -13    1    3    3    0    0 -0.50971432892E+02  0.39779037516E+01  0.49138894502E+02  0.70912210812E+02  0.00000000000E+00 0. -1.
         22    1    1    2    0    0  0.21590892210E+03  0.59070012611E+02 -0.23002662173E+03  0.32096444622E+03  0.00000000000E+00 0.  1.
<mgrwt>
<rscale>  0 0.83609039E+03</rscale>
<asrwt>0</asrwt>
<pdfrwt beam="1">  1        2 0.46602533E-01 0.83609039E+03</pdfrwt>
<pdfrwt beam="2">  1       -2 0.88758557E-01 0.83609039E+03</pdfrwt>
<totfact> 0.11925457E+02</totfact>
</mgrwt>
</event>
<event>
 6    1  0.5196787E-004  0.1437260E+04  0.7818608E-02  0.8927281E-01
          2   -1    0    0  501    0  0.00000000000E+00  0.00000000000E+00  0.29124932617E+03  0.29124932617E+03  0.00000000000E+00 0.  1.
         -2   -1    0    0    0  501 -0.00000000000E+00 -0.00000000000E+00 -0.17731499767E+04  0.17731499767E+04  0.00000000000E+00 0. -1.
         23    2    1    2    0    0  0.14195891892E+03 -0.52099026604E+03 -0.69662432136E+02  0.55244693012E+03  0.93603227402E+02 0.  0.
         11    1    3    3    0    0  0.55055787327E+02 -0.21165574487E+03  0.17868715701E+02  0.21942785843E+03  0.00000000000E+00 0.  1.
        -11    1    3    3    0    0  0.86903131591E+02 -0.30933452117E+03 -0.87531147836E+02  0.33301907169E+03  0.00000000000E+00 0. -1.
         22    1    1    2    0    0 -0.14195891892E+03  0.52099026604E+03 -0.14122382184E+04  0.15119523727E+04  0.00000000000E+00 0. -1.
<mgrwt>
<rscale>  0 0.14372595E+04</rscale>
<asrwt>0</asrwt>
<pdfrwt beam="1">  1        2 0.44807589E-01 0.14372595E+04</pdfrwt>
<pdfrwt beam="2">  1       -2 0.27279230E+00 0.14372595E+04</pdfrwt>
<totfact> 0.51453529E+00</totfact>
</mgrwt>
</event>
<event>
 6    1  0.5196787E-004  0.1560395E+04  0.7818608E-02  0.8845255E-01
          2   -1    0    0  501    0  0.00000000000E+00  0.00000000000E+00  0.15732932624E+04  0.15732932624E+04  0.00000000000E+00 0.  1.
         -2   -1    0    0    0  501 -0.00000000000E+00 -0.00000000000E+00 -0.38690069340E+03  0.38690069340E+03  0.00000000000E+00 0. -1.
         23    2    1    2    0    0 -0.44468051123E+02  0.62543548492E+03  0.17534979957E+02  0.63377960997E+03  0.90676155200E+02 0.  0.
         11    1    3    3    0    0 -0.54255206529E+02  0.39604433647E+03  0.46170876971E+02  0.40240091174E+03  0.00000000000E+00 0. -1.
        -11    1    3    3    0    0  0.97871554055E+01  0.22939114845E+03 -0.28635897013E+02  0.23137869823E+03  0.00000000000E+00 0.  1.
         22    1    1    2    0    0  0.44468051123E+02 -0.62543548492E+03  0.11688575891E+04  0.13264143459E+04  0.00000000000E+00 0.  1.
<mgrwt>
<rscale>  0 0.15603951E+04</rscale>
<asrwt>0</asrwt>
<pdfrwt beam="1">  1        2 0.24204511E+00 0.15603951E+04</pdfrwt>
<pdfrwt beam="2">  1       -2 0.59523185E-01 0.15603951E+04</pdfrwt>
<totfact> 0.29239796E+01</totfact>
</mgrwt>
</event>
<event>
 6    1  0.5196787E-004  0.7854844E+03  0.7818608E-02  0.9581269E-01
          2   -1    0    0  501    0  0.00000000000E+00  0.00000000000E+00  0.15014443131E+04  0.15014443131E+04  0.00000000000E+00 0.  1.
         -2   -1    0    0    0  501 -0.00000000000E+00 -0.00000000000E+00 -0.10273204434E+03  0.10273204434E+03  0.00000000000E+00 0. -1.
         23    2    1    2    0    0 -0.32604605328E+03 -0.84472074873E+02  0.32043494991E+03  0.47451997755E+03  0.95126713810E+02 0.  0.
         13    1    3    3    0    0 -0.14625586565E+03 -0.96830348923E+01  0.86693431716E+02  0.17029471661E+03  0.00000000000E+00 0. -1.
        -13    1    3    3    0    0 -0.17979018762E+03 -0.74789039981E+02  0.23374151819E+03  0.30422526094E+03  0.00000000000E+00 0.  1.
         22    1    1    2    0    0  0.32604605328E+03  0.84472074873E+02  0.10782773188E+04  0.11296563799E+04  0.00000000000E+00 0.  1.
<mgrwt>
<rscale>  0 0.78548442E+03</rscale>
<asrwt>0</asrwt>
<pdfrwt beam="1">  1        2 0.23099142E+00 0.78548442E+03</pdfrwt>
<pdfrwt beam="2">  1       -2 0.15804931E-01 0.78548442E+03</pdfrwt>
<totfact> 0.41047270E+02</totfact>
</mgrwt>
</event>
<event>
 6    1  0.5196787E-004  0.1294131E+04  0.7818608E-02  0.9034233E-01
         -2   -1    0    0    0  501 -0.00000000000E+00  0.00000000000E+00  0.20582906952E+03  0.20582906952E+03  0.00000000000E+00 0. -1.
          2   -1    0    0  501    0  0.00000000000E+00 -0.00000000000E+00 -0.20341809651E+04  0.20341809651E+04  0.00000000000E+00 0.  1.
         23    2    1    2    0    0 -0.13827751851E+03 -0.51496444334E+03 -0.29375739737E+03  0.61542106385E+03  0.90225424830E+02 0.  0.
         13    1    3    3    0    0 -0.10093624603E+03 -0.30629892626E+03 -0.22240637797E+03  0.39175471274E+03  0.00000000000E+00 0. -1.
        -13    1    3    3    0    0 -0.37341272484E+02 -0.20866551708E+03 -0.71351019402E+02  0.22366635111E+03  0.00000000000E+00 0.  1.
         22    1    1    2    0    0  0.13827751851E+03  0.51496444334E+03 -0.15345944982E+04  0.16245889707E+04  0.00000000000E+00 0.  1.
<mgrwt>
<rscale>  0 0.12941307E+04</rscale>
<asrwt>0</asrwt>
<pdfrwt beam="1">  1        2 0.31295093E+00 0.12941307E+04</pdfrwt>
<pdfrwt beam="2">  1       -2 0.31666009E-01 0.12941307E+04</pdfrwt>
<totfact> 0.58162476E+01</totfact>
</mgrwt>
</event>
<event>
 6    1  0.5196787E-004  0.5129305E+04  0.7818608E-02  0.7808865E-01
         -2   -1    0    0    0  501 -0.00000000000E+00  0.00000000000E+00  0.13244520696E+04  0.13244520696E+04  0.00000000000E+00 0. -1.
          2   -1    0    0  501    0  0.00000000000E+00 -0.00000000000E+00 -0.49661609850E+04  0.49661609850E+04  0.00000000000E+00 0.  1.
         23    2    1    2    0    0  0.11479486644E+04 -0.22616987295E+04 -0.22803560875E+04  0.34120111716E+04  0.93429494468E+02 0.  0.
         11    1    3    3    0    0  0.44795428241E+03 -0.93559065878E+03 -0.87998797614E+03  0.13602837050E+04  0.00000000000E+00 0. -1.
        -11    1    3    3    0    0  0.69999438198E+03 -0.13261080707E+04 -0.14003681113E+04  0.20517274666E+04  0.00000000000E+00 0.  1.
         22    1    1    2    0    0 -0.11479486644E+04  0.22616987295E+04 -0.13613528280E+04  0.28786018831E+04  0.00000000000E+00 0. -1.
<mgrwt>
<rscale>  0 0.51293049E+04</rscale>
<asrwt>0</asrwt>
<pdfrwt beam="1">  1        2 0.76402476E+00 0.51293049E+04</pdfrwt>
<pdfrwt beam="2">  1       -2 0.20376186E+00 0.51293049E+04</pdfrwt>
<totfact> 0.33690422E-03</totfact>
</mgrwt>
</event>
<event>
 6    1  0.5196787E-004  0.2113112E+04  0.7818608E-02  0.8555489E-01
         -2   -1    0    0    0  501 -0.00000000000E+00  0.00000000000E+00  0.56367131629E+03  0.56367131629E+03  0.00000000000E+00 0. -1.
          2   -1    0    0  501    0  0.00000000000E+00 -0.00000000000E+00 -0.19804287105E+04  0.19804287105E+04  0.00000000000E+00 0.  1.
         23    2    1    2    0    0  0.10282362493E+04  0.22669349037E+03 -0.78069366961E+03  0.13139631300E+04  0.91415416260E+02 0.  0.
         11    1    3    3    0    0  0.53439550114E+03  0.16115245613E+03 -0.43372057083E+03  0.70686787968E+03  0.00000000000E+00 0.  1.
        -11    1    3    3    0    0  0.49384074819E+03  0.65541034243E+02 -0.34697309878E+03  0.60709525037E+03  0.00000000000E+00 0. -1.
         22    1    1    2    0    0 -0.10282362493E+04 -0.22669349037E+03 -0.63606372462E+03  0.12301368968E+04  0.00000000000E+00 0.  1.
<mgrwt>
<rscale>  0 0.21131123E+04</rscale>
<asrwt>0</asrwt>
<pdfrwt beam="1">  1        2 0.30468135E+00 0.21131123E+04</pdfrwt>
<pdfrwt beam="2">  1       -2 0.86718662E-01 0.21131123E+04</pdfrwt>
<totfact> 0.72586129E+00</totfact>
</mgrwt>
</event>
<event>
 6    1  0.5196787E-004  0.2343513E+04  0.7818608E-02  0.8460960E-01
         -2   -1    0    0    0  501 -0.00000000000E+00  0.00000000000E+00  0.39412528507E+04  0.39412528507E+04  0.00000000000E+00 0. -1.
          2   -1    0    0  501    0  0.00000000000E+00 -0.00000000000E+00 -0.34836963494E+03  0.34836963494E+03  0.00000000000E+00 0.  1.
         23    2    1    2    0    0 -0.10611131807E+03 -0.76418227179E+03  0.18925772269E+03  0.79965104543E+03  0.91592316940E+02 0.  0.
         11    1    3    3    0    0 -0.73521755204E+02 -0.24067909255E+03  0.44904498118E+02  0.25563311216E+03  0.00000000000E+00 0. -1.
        -11    1    3    3    0    0 -0.32589562862E+02 -0.52350317924E+03  0.14435322458E+03  0.54401793328E+03  0.00000000000E+00 0.  1.
         22    1    1    2    0    0  0.10611131807E+03  0.76418227179E+03  0.34036254931E+04  0.34899714402E+04  0.00000000000E+00 0. -1.
<mgrwt>
<rscale>  0 0.23435126E+04</rscale>
<asrwt>0</asrwt>
<pdfrwt beam="1">  1        2 0.53595331E-01 0.23435126E+04</pdfrwt>
<pdfrwt beam="2">  1       -2 0.60634656E+00 0.23435126E+04</pdfrwt>
<totfact> 0.39484974E-02</totfact>
</mgrwt>
</event>
<event>
 6    1  0.5196787E-004  0.2981385E+04  0.7818608E-02  0.8249067E-01
          2   -1    0    0  501    0  0.00000000000E+00  0.00000000000E+00  0.21860228360E+04  0.21860228360E+04  0.00000000000E+00 0.  1.
         -2   -1    0    0    0  501 -0.00000000000E+00 -0.00000000000E+00 -0.10165325622E+04  0.10165325622E+04  0.00000000000E+00 0. -1.
         23    2    1    2    0    0 -0.11690053961E+04 -0.15746240169E+03 -0.39128023638E+03  0.12461882012E+04  0.92286430566E+02 0.  0.
         11    1    3    3    0    0 -0.44148422538E+03 -0.29769658463E+02 -0.11136042115E+03  0.45628466687E+03  0.00000000000E+00 0.  1.
        -11    1    3    3    0    0 -0.72752117073E+03 -0.12769274323E+03 -0.27991981523E+03  0.78990353429E+03  0.00000000000E+00 0. -1.
         22    1    1    2    0    0  0.11690053961E+04  0.15746240169E+03  0.15607705102E+04  0.19563671971E+04  0.00000000000E+00 0.  1.
<mgrwt>
<rscale>  0 0.29813845E+04</rscale>
<asrwt>0</asrwt>
<pdfrwt beam="1">  1        2 0.33631120E+00 0.29813845E+04</pdfrwt>
<pdfrwt beam="2">  1       -2 0.15638963E+00 0.29813845E+04</pdfrwt>
<totfact> 0.12080874E+00</totfact>
</mgrwt>
</event>
<event>
 6    1  0.5196787E-004  0.3852695E+04  0.7818608E-02  0.8034940E-01
          2   -1    0    0  501    0  0.00000000000E+00  0.00000000000E+00  0.19714034169E+04  0.19714034169E+04  0.00000000000E+00 0.  1.
         -2   -1    0    0    0  501 -0.00000000000E+00 -0.00000000000E+00 -0.18823210604E+04  0.18823210604E+04  0.00000000000E+00 0. -1.
         23    2    1    2    0    0 -0.51536179351E+03 -0.57378954376E+02 -0.18101026381E+04  0.18850209022E+04  0.89118565254E+02 0.  0.
         13    1    3    3    0    0 -0.14155946780E+03 -0.46944616388E+02 -0.42882711009E+03  0.45402155266E+03  0.00000000000E+00 0. -1.
        -13    1    3    3    0    0 -0.37380232572E+03 -0.10434337988E+02 -0.13812755281E+04  0.14309993496E+04  0.00000000000E+00 0.  1.
         22    1    1    2    0    0  0.51536179351E+03  0.57378954376E+02  0.18991849946E+04  0.19687035751E+04  0.00000000000E+00 0.  1.
<mgrwt>
<rscale>  0 0.38526947E+04</rscale>
<asrwt>0</asrwt>
<pdfrwt beam="1">  1        2 0.30329283E+00 0.38526947E+04</pdfrwt>
<pdfrwt beam="2">  1       -2 0.28958786E+00 0.38526947E+04</pdfrwt>
<totfact> 0.20363764E-01</totfact>
</mgrwt>
</event>
<event>
 6    1  0.5196787E-004  0.2271116E+04  0.7818608E-02  0.8489398E-01
         -2   -1    0    0    0  501 -0.00000000000E+00  0.00000000000E+00  0.85726515059E+03  0.85726515059E+03  0.00000000000E+00 0. -1.
          2   -1    0    0  501    0  0.00000000000E+00 -0.00000000000E+00 -0.15041923647E+04  0.15041923647E+04  0.00000000000E+00 0.  1.
         23    2    1    2    0    0 -0.70513604731E+01 -0.93128739009E+03  0.34697917423E+03  0.99940177729E+03  0.10518289062E+03 0.  0.
         13    1    3    3    0    0  0.39888812882E+02 -0.32383891708E+03  0.92614785675E+02  0.33917585429E+03  0.00000000000E+00 0. -1.
        -13    1    3    3    0    0 -0.46940173355E+02 -0.60744847301E+03  0.25436438855E+03  0.66022592300E+03  0.00000000000E+00 0.  1.
         22    1    1    2    0    0  0.70513604731E+01  0.93128739009E+03 -0.99390638831E+03  0.13620557380E+04  0.00000000000E+00 0.  1.
<mgrwt>
<rscale>  0 0.22711158E+04</rscale>
<asrwt>0</asrwt>
<pdfrwt beam="1">  1        2 0.23141421E+00 0.22711158E+04</pdfrwt>
<pdfrwt beam="2">  1       -2 0.13188695E+00 0.22711158E+04</pdfrwt>
<totfact> 0.48044830E+00</totfact>
</mgrwt>
</event>
<event>
 6    1  0.5196787E-004  0.3491407E+04  0.7818608E-02  0.8115829E-01
         -1   -1    0    0    0  501 -0.00000000000E+00  0.00000000000E+00  0.10233264960E+04  0.10233264960E+04  0.00000000000E+00 0. -1.
          1   -1    0    0  501    0  0.00000000000E+00 -0.00000000000E+00 -0.29780138814E+04  0.29780138814E+04  0.00000000000E+00 0.  1.
         23    2    1    2    0    0 -0.27037498727E+03 -0.17045556852E+04 -0.12694367836E+04  0.21444125098E+04  0.91774435288E+02 0.  0.
         13    1    3    3    0    0 -0.13481402177E+03 -0.11044724498E+04 -0.79446994822E+03  0.13671930044E+04  0.00000000000E+00 0. -1.
        -13    1    3    3    0    0 -0.13556096551E+03 -0.60008323546E+03 -0.47496683539E+03  0.77721950540E+03  0.00000000000E+00 0.  1.
         22    1    1    2    0    0  0.27037498727E+03  0.17045556852E+04 -0.68525060182E+03  0.18569278675E+04  0.00000000000E+00 0. -1.
<mgrwt>
<rscale>  0 0.34914069E+04</rscale>
<asrwt>0</asrwt>
<pdfrwt beam="1">  1        1 0.45815598E+00 0.34914069E+04</pdfrwt>
<pdfrwt beam="2">  1       -1 0.15743485E+00 0.34914069E+04</pdfrwt>
<totfact> 0.15467632E-01</totfact>
</mgrwt>
</event>
<event>
 6    1  0.5196787E-004  0.7471011E+03  0.7818608E-02  0.9639909E-01
         -2   -1    0    0    0  501 -0.00000000000E+00  0.00000000000E+00  0.52988029638E+02  0.52988029638E+02  0.00000000000E+00 0. -1.
          2   -1    0    0  501    0  0.00000000000E+00 -0.00000000000E+00 -0.26334255185E+04  0.26334255185E+04  0.00000000000E+00 0.  1.
         23    2    1    2    0    0  0.34968807832E+02 -0.33695447708E+03 -0.18208193561E+04  0.18546799100E+04  0.98454578122E+02 0.  0.
         11    1    3    3    0    0  0.69653866146E+02 -0.22961058967E+03 -0.12273065790E+04  0.12505415318E+04  0.00000000000E+00 0. -1.
        -11    1    3    3    0    0 -0.34685058314E+02 -0.10734388741E+03 -0.59351277708E+03  0.60413837818E+03  0.00000000000E+00 0.  1.
         22    1    1    2    0    0 -0.34968807832E+02  0.33695447708E+03 -0.75961813275E+03  0.83173363810E+03  0.00000000000E+00 0. -1.
<mgrwt>
<rscale>  0 0.74710114E+03</rscale>
<asrwt>0</asrwt>
<pdfrwt beam="1">  1        2 0.40514251E+00 0.74710114E+03</pdfrwt>
<pdfrwt beam="2">  1       -2 0.81520021E-02 0.74710114E+03</pdfrwt>
<totfact> 0.28948711E+02</totfact>
</mgrwt>
</event>
<event>
 6    1  0.5196787E-004  0.2506910E+04  0.7818608E-02  0.8400528E-01
         -2   -1    0    0    0  501 -0.00000000000E+00  0.00000000000E+00  0.97023631842E+03  0.97023631842E+03  0.00000000000E+00 0. -1.
          2   -1    0    0  501    0  0.00000000000E+00 -0.00000000000E+00 -0.16193477526E+04  0.16193477526E+04  0.00000000000E+00 0.  1.
         23    2    1    2    0    0 -0.63802902822E+02  0.78597539273E+03  0.67915982647E+03  0.10448728779E+04  0.93129654964E+02 0.  0.
         13    1    3    3    0    0 -0.46192986817E+02  0.75532322301E+03  0.63201216162E+03  0.98594438772E+03  0.00000000000E+00 0. -1.
        -13    1    3    3    0    0 -0.17609916005E+02  0.30652169725E+02  0.47147664854E+02  0.58928490153E+02  0.00000000000E+00 0.  1.
         22    1    1    2    0    0  0.63802902822E+02 -0.78597539273E+03 -0.13282712606E+04  0.15447111931E+04  0.00000000000E+00 0.  1.
<mgrwt>
<rscale>  0 0.25069105E+04</rscale>
<asrwt>0</asrwt>
<pdfrwt beam="1">  1        2 0.24913042E+00 0.25069105E+04</pdfrwt>
<pdfrwt beam="2">  1       -2 0.14926713E+00 0.25069105E+04</pdfrwt>
<totfact> 0.29434965E+00</totfact>
</mgrwt>
</event>
<event>
 6    1  0.5196787E-004  0.1509151E+04  0.7818608E-02  0.8878390E-01
          2   -1    0    0  501    0  0.00000000000E+00  0.00000000000E+00  0.23356900360E+04  0.23356900360E+04  0.00000000000E+00 0.  1.
         -2   -1    0    0    0  501 -0.00000000000E+00 -0.00000000000E+00 -0.24377555277E+03  0.24377555277E+03  0.00000000000E+00 0. -1.
         23    2    1    2    0    0  0.20601661222E+03 -0.70291903846E+03  0.75315472948E+03  0.10534198170E+04  0.76897628281E+02 0.  0.
         11    1    3    3    0    0  0.49126181490E+02 -0.24146268522E+03  0.29643674410E+03  0.38547678700E+03  0.00000000000E+00 0. -1.
        -11    1    3    3    0    0  0.15689043073E+03 -0.46145635324E+03  0.45671798538E+03  0.66794303003E+03  0.00000000000E+00 0.  1.
         22    1    1    2    0    0 -0.20601661222E+03  0.70291903846E+03  0.13387597537E+04  0.15260457717E+04  0.00000000000E+00 0.  1.
<mgrwt>
<rscale>  0 0.15091509E+04</rscale>
<asrwt>0</asrwt>
<pdfrwt beam="1">  1        2 0.35933691E+00 0.15091509E+04</pdfrwt>
<pdfrwt beam="2">  1       -2 0.37503933E-01 0.15091509E+04</pdfrwt>
<totfact> 0.28061171E+01</totfact>
</mgrwt>
</event>
<event>
 6    1  0.7784969E-004  0.2657817E+04  0.7818608E-02  0.8348823E-01
         -2   -1    0    0    0  501 -0.00000000000E+00  0.00000000000E+00  0.11281522757E+04  0.11281522757E+04  0.00000000000E+00 0. -1.
          2   -1    0    0  501    0  0.00000000000E+00 -0.00000000000E+00 -0.15653900898E+04  0.15653900898E+04  0.00000000000E+00 0.  1.
         23    2    1    2    0    0 -0.12803335412E+04 -0.19811626467E+02  0.13491236158E+03  0.12910437734E+04  0.94584366618E+02 0.  0.
         11    1    3    3    0    0 -0.74268253736E+03 -0.53872617890E+02  0.58588006029E+02  0.74693518106E+03  0.00000000000E+00 0.  1.
        -11    1    3    3    0    0 -0.53765100383E+03  0.34060991423E+02  0.76324355554E+02  0.54410859239E+03  0.00000000000E+00 0. -1.
         22    1    1    2    0    0  0.12803335412E+04  0.19811626467E+02 -0.57215017565E+03  0.14024985921E+04  0.00000000000E+00 0.  1.
<mgrwt>
<rscale>  0 0.26578174E+04</rscale>
<asrwt>0</asrwt>
<pdfrwt beam="1">  1        2 0.24082925E+00 0.26578174E+04</pdfrwt>
<pdfrwt beam="2">  1       -2 0.17356189E+00 0.26578174E+04</pdfrwt>
<totfact> 0.20650146E+00</totfact>
</mgrwt>
</event>
<event>
 6    1  0.5196787E-004  0.2118777E+04  0.7818608E-02  0.8553017E-01
         -2   -1    0    0    0  501 -0.00000000000E+00  0.00000000000E+00  0.50460177926E+03  0.50460177926E+03  0.00000000000E+00 0. -1.
          2   -1    0    0  501    0  0.00000000000E+00 -0.00000000000E+00 -0.22241372558E+04  0.22241372558E+04  0.00000000000E+00 0.  1.
         23    2    1    2    0    0  0.25663025326E+03 -0.89589447581E+03 -0.15049366881E+04  0.17724238994E+04  0.90366172833E+02 0.  0.
         11    1    3    3    0    0  0.13540451660E+03 -0.61807276657E+03 -0.10428973816E+04  0.12198291997E+04  0.00000000000E+00 0. -1.
        -11    1    3    3    0    0  0.12122573666E+03 -0.27782170924E+03 -0.46203930655E+03  0.55259469971E+03  0.00000000000E+00 0.  1.
         22    1    1    2    0    0 -0.25663025326E+03  0.89589447581E+03 -0.21459878838E+03  0.95631513564E+03  0.00000000000E+00 0. -1.
<mgrwt>
<rscale>  0 0.21187766E+04</rscale>
<asrwt>0</asrwt>
<pdfrwt beam="1">  1        2 0.34217496E+00 0.21187766E+04</pdfrwt>
<pdfrwt beam="2">  1       -2 0.77631044E-01 0.21187766E+04</pdfrwt>
<totfact> 0.68091138E+00</totfact>
</mgrwt>
</event>
<event>
 6    1  0.5196787E-004  0.8320234E+03  0.7818608E-02  0.9514787E-01
          2   -1    0    0  501    0  0.00000000000E+00  0.00000000000E+00  0.98602215126E+03  0.98602215126E+03  0.00000000000E+00 0.  1.
         -2   -1    0    0    0  501 -0.00000000000E+00 -0.00000000000E+00 -0.17551910457E+03  0.17551910457E+03  0.00000000000E+00 0. -1.
         23    2    1    2    0    0  0.12026374715E+03  0.20738439756E+03 -0.56076870708E+02  0.26241256067E+03  0.90796912597E+02 0.  0.
         13    1    3    3    0    0 -0.11902433591E+02  0.47202373148E+02 -0.11101606626E+02  0.49929726876E+02  0.00000000000E+00 0. -1.
        -13    1    3    3    0    0  0.13216618074E+03  0.16018202441E+03 -0.44975264082E+02  0.21248283379E+03  0.00000000000E+00 0.  1.
         22    1    1    2    0    0 -0.12026374715E+03 -0.20738439756E+03  0.86657991740E+03  0.89912869517E+03  0.00000000000E+00 0.  1.
<mgrwt>
<rscale>  0 0.83202338E+03</rscale>
<asrwt>0</asrwt>
<pdfrwt beam="1">  1        2 0.15169571E+00 0.83202338E+03</pdfrwt>
<pdfrwt beam="2">  1       -2 0.27002940E-01 0.83202338E+03</pdfrwt>
<totfact> 0.32149980E+02</totfact>
</mgrwt>
</event>
<event>
 6    1  0.5196787E-004  0.2770495E+04  0.7818608E-02  0.8312488E-01
         -1   -1    0    0    0  501 -0.00000000000E+00  0.00000000000E+00  0.13598008842E+04  0.13598008842E+04  0.00000000000E+00 0. -1.
          1   -1    0    0  501    0  0.00000000000E+00 -0.00000000000E+00 -0.14111698439E+04  0.14111698439E+04  0.00000000000E+00 0.  1.
         23    2    1    2    0    0 -0.93069342026E+03 -0.89042257528E+03 -0.53145842178E+03  0.13963695144E+04  0.91417511954E+02 0.  0.
         13    1    3    3    0    0 -0.83751294080E+03 -0.79711440532E+03 -0.50592112101E+03  0.12620520916E+04  0.00000000000E+00 0.  1.
        -13    1    3    3    0    0 -0.93180479465E+02 -0.93308169960E+02 -0.25537300766E+02  0.13431742279E+03  0.00000000000E+00 0. -1.
         22    1    1    2    0    0  0.93069342026E+03  0.89042257528E+03  0.48008946205E+03  0.13746012137E+04  0.00000000000E+00 0. -1.
<mgrwt>
<rscale>  0 0.27704945E+04</rscale>
<asrwt>0</asrwt>
<pdfrwt beam="1">  1        1 0.21710305E+00 0.27704945E+04</pdfrwt>
<pdfrwt beam="2">  1       -1 0.20920014E+00 0.27704945E+04</pdfrwt>
<totfact> 0.85252076E-01</totfact>
</mgrwt>
</event>
<event>
 6    1  0.5196787E-004  0.2152754E+04  0.7818608E-02  0.8538354E-01
          2   -1    0    0  501    0  0.00000000000E+00  0.00000000000E+00  0.26638684044E+04  0.26638684044E+04  0.00000000000E+00 0. -1.
         -2   -1    0    0    0  501 -0.00000000000E+00 -0.00000000000E+00 -0.43492675292E+03  0.43492675292E+03  0.00000000000E+00 0.  1.
         23    2    1    2    0    0 -0.53444180868E+03  0.37684367545E+03 -0.11004505816E+03  0.67011279224E+03  0.96447067901E+02 0.  0.
         13    1    3    3    0    0 -0.40336921786E+03  0.32542068505E+03 -0.10743446145E+03  0.52928962930E+03  0.00000000000E+00 0.  1.
        -13    1    3    3    0    0 -0.13107259082E+03  0.51422990399E+02 -0.26105967114E+01  0.14082316294E+03  0.00000000000E+00 0. -1.
         22    1    1    2    0    0  0.53444180868E+03 -0.37684367545E+03  0.23389867096E+04  0.24286823651E+04  0.00000000000E+00 0. -1.
<mgrwt>
<rscale>  0 0.21527542E+04</rscale>
<asrwt>0</asrwt>
<pdfrwt beam="1">  1        2 0.40982590E+00 0.21527542E+04</pdfrwt>
<pdfrwt beam="2">  1       -2 0.66911810E-01 0.21527542E+04</pdfrwt>
<totfact> 0.52528761E+00</totfact>
</mgrwt>
</event>
<event>
 6    1  0.5196787E-004  0.2882575E+04  0.7818608E-02  0.8278081E-01
         -2   -1    0    0    0  501 -0.00000000000E+00  0.00000000000E+00  0.56211622000E+03  0.56211622000E+03  0.00000000000E+00 0. -1.
          2   -1    0    0  501    0  0.00000000000E+00 -0.00000000000E+00 -0.36955154971E+04  0.36955154971E+04  0.00000000000E+00 0.  1.
         23    2    1    2    0    0 -0.39484236459E+03 -0.12414475688E+04 -0.24741691291E+04  0.27976053656E+04  0.89388721745E+02 0.  0.
         13    1    3    3    0    0 -0.36184972155E+03 -0.10805288862E+04 -0.21079409197E+04  0.23962247006E+04  0.00000000000E+00 0. -1.
        -13    1    3    3    0    0 -0.32992643032E+02 -0.16091868262E+03 -0.36622820939E+03  0.40138066504E+03  0.00000000000E+00 0.  1.
         22    1    1    2    0    0  0.39484236459E+03  0.12414475688E+04 -0.65923014802E+03  0.14600263515E+04  0.00000000000E+00 0. -1.
<mgrwt>
<rscale>  0 0.28825747E+04</rscale>
<asrwt>0</asrwt>
<pdfrwt beam="1">  1        2 0.56854086E+00 0.28825747E+04</pdfrwt>
<pdfrwt beam="2">  1       -2 0.86479416E-01 0.28825747E+04</pdfrwt>
<totfact> 0.58868338E-01</totfact>
</mgrwt>
</event>
<event>
 6    1  0.5196787E-004  0.3559554E+04  0.7818608E-02  0.8099820E-01
          2   -1    0    0  501    0  0.00000000000E+00  0.00000000000E+00  0.16789524554E+04  0.16789524554E+04  0.00000000000E+00 0.  1.
         -2   -1    0    0    0  501 -0.00000000000E+00 -0.00000000000E+00 -0.18866567945E+04  0.18866567945E+04  0.00000000000E+00 0. -1.
         23    2    1    2    0    0  0.47245768907E+03 -0.17835519835E+03  0.16042590408E+04  0.16845887464E+04  0.95735729361E+02 0.  0.
         11    1    3    3    0    0  0.20312603783E+03 -0.30002897033E+02  0.58717131606E+03  0.62203739074E+03  0.00000000000E+00 0. -1.
        -11    1    3    3    0    0  0.26933165124E+03 -0.14835230132E+03  0.10170877247E+04  0.10625513557E+04  0.00000000000E+00 0.  1.
         22    1    1    2    0    0 -0.47245768907E+03  0.17835519835E+03 -0.18119633799E+04  0.18810205035E+04  0.00000000000E+00 0. -1.
<mgrwt>
<rscale>  0 0.35595545E+04</rscale>
<asrwt>0</asrwt>
<pdfrwt beam="1">  1        2 0.25830038E+00 0.35595545E+04</pdfrwt>
<pdfrwt beam="2">  1       -2 0.29025489E+00 0.35595545E+04</pdfrwt>
<totfact> 0.30036486E-01</totfact>
</mgrwt>
</event>
<event>
 6    1  0.5196787E-004  0.2968297E+04  0.7818608E-02  0.8252842E-01
          2   -1    0    0  501    0  0.00000000000E+00  0.00000000000E+00  0.20345856639E+04  0.20345856639E+04  0.00000000000E+00 0.  1.
         -2   -1    0    0    0  501 -0.00000000000E+00 -0.00000000000E+00 -0.10826265077E+04  0.10826265077E+04  0.00000000000E+00 0. -1.
         23    2    1    2    0    0 -0.67946051432E+02  0.42861637475E+03  0.19653897320E+04  0.20147738764E+04  0.90710043575E+02 0.  0.
         13    1    3    3    0    0 -0.40241900172E+02  0.11170770156E+03  0.70068220198E+03  0.71067121040E+03  0.00000000000E+00 0. -1.
        -13    1    3    3    0    0 -0.27704151260E+02  0.31690867319E+03  0.12647075300E+04  0.13041026660E+04  0.00000000000E+00 0.  1.
         22    1    1    2    0    0  0.67946051432E+02 -0.42861637475E+03 -0.10134305758E+04  0.11024382951E+04  0.00000000000E+00 0. -1.
<mgrwt>
<rscale>  0 0.29682967E+04</rscale>
<asrwt>0</asrwt>
<pdfrwt beam="1">  1        2 0.31301318E+00 0.29682967E+04</pdfrwt>
<pdfrwt beam="2">  1       -2 0.16655792E+00 0.29682967E+04</pdfrwt>
<totfact> 0.12375102E+00</totfact>
</mgrwt>
</event>
<event>
 6    1  0.5196787E-004  0.1581341E+04  0.7818608E-02  0.8832094E-01
         -2   -1    0    0    0  501 -0.00000000000E+00  0.00000000000E+00  0.21516478775E+04  0.21516478775E+04  0.00000000000E+00 0. -1.
          2   -1    0    0  501    0  0.00000000000E+00 -0.00000000000E+00 -0.29054920106E+03  0.29054920106E+03  0.00000000000E+00 0.  1.
         23    2    1    2    0    0  0.70310756041E+03 -0.31446612009E+03  0.67684743457E+03  0.10295045479E+04  0.92238724778E+02 0.  0.
         11    1    3    3    0    0  0.35504415202E+03 -0.10866892554E+03  0.33119760228E+03  0.49755114010E+03  0.00000000000E+00 0. -1.
        -11    1    3    3    0    0  0.34806340839E+03 -0.20579719454E+03  0.34564983229E+03  0.53195340783E+03  0.00000000000E+00 0.  1.
         22    1    1    2    0    0 -0.70310756041E+03  0.31446612009E+03  0.11842512419E+04  0.14126925306E+04  0.00000000000E+00 0.  1.
<mgrwt>
<rscale>  0 0.15813407E+04</rscale>
<asrwt>0</asrwt>
<pdfrwt beam="1">  1        2 0.44699879E-01 0.15813407E+04</pdfrwt>
<pdfrwt beam="2">  1       -2 0.33102274E+00 0.15813407E+04</pdfrwt>
<totfact> 0.22462525E+00</totfact>
</mgrwt>
</event>
<event>
 6    1  0.5196787E-004  0.4826273E+04  0.7818608E-02  0.7855880E-01
          2   -1    0    0  501    0  0.00000000000E+00  0.00000000000E+00  0.30436919646E+04  0.30436919646E+04  0.00000000000E+00 0.  1.
         -2   -1    0    0    0  501 -0.00000000000E+00 -0.00000000000E+00 -0.19132121802E+04  0.19132121802E+04  0.00000000000E+00 0. -1.
         23    2    1    2    0    0 -0.21521171072E+04 -0.63573335286E+03  0.14744374786E+04  0.26866460462E+04  0.91302572681E+02 0.  0.
         11    1    3    3    0    0 -0.19556432324E+04 -0.59779860619E+03  0.13216855939E+04  0.24349037835E+04  0.00000000000E+00 0.  1.
        -11    1    3    3    0    0 -0.19647387482E+03 -0.37934746671E+02  0.15275188479E+03  0.25174226264E+03  0.00000000000E+00 0. -1.
         22    1    1    2    0    0  0.21521171072E+04  0.63573335286E+03 -0.34395769431E+03  0.22702580987E+04  0.00000000000E+00 0. -1.
<mgrwt>
<rscale>  0 0.48262733E+04</rscale>
<asrwt>0</asrwt>
<pdfrwt beam="1">  1        2 0.46826030E+00 0.48262733E+04</pdfrwt>
<pdfrwt beam="2">  1       -2 0.29434033E+00 0.48262733E+04</pdfrwt>
<totfact> 0.41496791E-02</totfact>
</mgrwt>
</event>
<event>
 6    1  0.5196787E-004  0.1566937E+04  0.7818608E-02  0.8841122E-01
         -2   -1    0    0    0  501 -0.00000000000E+00  0.00000000000E+00  0.40506540126E+03  0.40506540126E+03  0.00000000000E+00 0. -1.
          2   -1    0    0  501    0  0.00000000000E+00 -0.00000000000E+00 -0.15153664284E+04  0.15153664284E+04  0.00000000000E+00 0.  1.
         23    2    1    2    0    0  0.17264109467E+03  0.20543476783E+03  0.34177420564E+03  0.44376975829E+03  0.90075520130E+02 0.  0.
         13    1    3    3    0    0  0.11895955198E+03  0.88248820620E+02  0.22774295518E+03  0.27167274980E+03  0.00000000000E+00 0. -1.
        -13    1    3    3    0    0  0.53681542689E+02  0.11718594721E+03  0.11403125045E+03  0.17209700849E+03  0.00000000000E+00 0.  1.
         22    1    1    2    0    0 -0.17264109467E+03 -0.20543476783E+03 -0.14520752328E+04  0.14766620714E+04  0.00000000000E+00 0.  1.
<mgrwt>
<rscale>  0 0.15669365E+04</rscale>
<asrwt>0</asrwt>
<pdfrwt beam="1">  1        2 0.23313329E+00 0.15669365E+04</pdfrwt>
<pdfrwt beam="2">  1       -2 0.62317755E-01 0.15669365E+04</pdfrwt>
<totfact> 0.28578992E+01</totfact>
</mgrwt>
</event>
<event>
 6    1  0.5196787E-004  0.3038815E+04  0.7818608E-02  0.8232733E-01
          2   -1    0    0  501    0  0.00000000000E+00  0.00000000000E+00  0.13207174613E+04  0.13207174613E+04  0.00000000000E+00 0.  1.
         -2   -1    0    0    0  501 -0.00000000000E+00 -0.00000000000E+00 -0.17479888677E+04  0.17479888677E+04  0.00000000000E+00 0. -1.
         23    2    1    2    0    0  0.65788911889E+03  0.13680931377E+04 -0.23536814220E+03  0.15385678422E+04  0.85416137560E+02 0.  0.
         11    1    3    3    0    0  0.41075486391E+03  0.85262885496E+03 -0.10476741046E+03  0.95219311740E+03  0.00000000000E+00 0.  1.
        -11    1    3    3    0    0  0.24713425498E+03  0.51546428272E+03 -0.13060073174E+03  0.58637472479E+03  0.00000000000E+00 0. -1.
         22    1    1    2    0    0 -0.65788911889E+03 -0.13680931377E+04 -0.19190326422E+03  0.15301384868E+04  0.00000000000E+00 0. -1.
<mgrwt>
<rscale>  0 0.30388152E+04</rscale>
<asrwt>0</asrwt>
<pdfrwt beam="1">  1        2 0.20318730E+00 0.30388152E+04</pdfrwt>
<pdfrwt beam="2">  1       -2 0.26892136E+00 0.30388152E+04</pdfrwt>
<totfact> 0.67509602E-01</totfact>
</mgrwt>
</event>
<event>
 6    1  0.5196787E-004  0.7171303E+04  0.7818608E-02  0.7560022E-01
         -2   -1    0    0    0  501 -0.00000000000E+00  0.00000000000E+00  0.50170286638E+04  0.50170286638E+04  0.00000000000E+00 0. -1.
          2   -1    0    0  501    0  0.00000000000E+00 -0.00000000000E+00 -0.25626513815E+04  0.25626513815E+04  0.00000000000E+00 0.  1.
         23    2    1    2    0    0  0.19603159914E+04 -0.18906461628E+03 -0.19386691790E+04  0.27653845177E+04  0.10163232662E+03 0.  0.
         13    1    3    3    0    0  0.12267991623E+04 -0.73810125577E+02 -0.11782703986E+04  0.17025878102E+04  0.00000000000E+00 0.  1.
        -13    1    3    3    0    0  0.73351682910E+03 -0.11525449071E+03 -0.76039878043E+03  0.10627967075E+04  0.00000000000E+00 0. -1.
         22    1    1    2    0    0 -0.19603159914E+04  0.18906461628E+03  0.43930464614E+04  0.48142955276E+04  0.00000000000E+00 0. -1.
<mgrwt>
<rscale>  0 0.71713027E+04</rscale>
<asrwt>0</asrwt>
<pdfrwt beam="1">  1        2 0.39425406E+00 0.71713027E+04</pdfrwt>
<pdfrwt beam="2">  1       -2 0.77185056E+00 0.71713027E+04</pdfrwt>
<totfact> 0.22516520E-04</totfact>
</mgrwt>
</event>
<event>
 6    1  0.5196787E-004  0.2528406E+04  0.7818608E-02  0.8392935E-01
          2   -1    0    0  501    0  0.00000000000E+00  0.00000000000E+00  0.13824756263E+04  0.13824756263E+04  0.00000000000E+00 0.  1.
         -2   -1    0    0    0  501 -0.00000000000E+00 -0.00000000000E+00 -0.11560491811E+04  0.11560491811E+04  0.00000000000E+00 0. -1.
         23    2    1    2    0    0 -0.91831441909E+02 -0.10670200642E+04 -0.55789319062E+03  0.12110753273E+04  0.92161842247E+02 0.  0.
         11    1    3    3    0    0 -0.11672955488E+02 -0.15922196481E+03 -0.12164028320E+03  0.20070936816E+03  0.00000000000E+00 0.  1.
        -11    1    3    3    0    0 -0.80158486421E+02 -0.90779809941E+03 -0.43625290742E+03  0.10103659592E+04  0.00000000000E+00 0. -1.
         22    1    1    2    0    0  0.91831441909E+02  0.10670200642E+04  0.78431963583E+03  0.13274494801E+04  0.00000000000E+00 0.  1.
<mgrwt>
<rscale>  0 0.25284065E+04</rscale>
<asrwt>0</asrwt>
<pdfrwt beam="1">  1        2 0.21268856E+00 0.25284065E+04</pdfrwt>
<pdfrwt beam="2">  1       -2 0.17785372E+00 0.25284065E+04</pdfrwt>
<totfact> 0.24730852E+00</totfact>
</mgrwt>
</event>
<event>
 6    1  0.5196787E-004  0.2231143E+04  0.7818608E-02  0.8505576E-01
         -2   -1    0    0    0  501 -0.00000000000E+00  0.00000000000E+00  0.34398184946E+03  0.34398184946E+03  0.00000000000E+00 0. -1.
          2   -1    0    0  501    0  0.00000000000E+00 -0.00000000000E+00 -0.36179236317E+04  0.36179236317E+04  0.00000000000E+00 0.  1.
         23    2    1    2    0    0 -0.99607021942E+02 -0.10801125613E+04 -0.11910932920E+04  0.16135395520E+04  0.90785195393E+02 0.  0.
         11    1    3    3    0    0 -0.76051656162E+02 -0.37248381880E+03 -0.39818380322E+03  0.55052555873E+03  0.00000000000E+00 0.  1.
        -11    1    3    3    0    0 -0.23555365780E+02 -0.70762874251E+03 -0.79290948875E+03  0.10630139932E+04  0.00000000000E+00 0. -1.
         22    1    1    2    0    0  0.99607021942E+02  0.10801125613E+04 -0.20828484903E+04  0.23483659292E+04  0.00000000000E+00 0.  1.
<mgrwt>
<rscale>  0 0.22311433E+04</rscale>
<asrwt>0</asrwt>
<pdfrwt beam="1">  1        2 0.55660366E+00 0.22311433E+04</pdfrwt>
<pdfrwt beam="2">  1       -2 0.52920282E-01 0.22311433E+04</pdfrwt>
<totfact> 0.20657204E+00</totfact>
</mgrwt>
</event>
<event>
 6    1  0.5196787E-004  0.2583669E+04  0.7818608E-02  0.8373770E-01
         -2   -1    0    0    0  501 -0.00000000000E+00  0.00000000000E+00  0.63065367097E+03  0.63065367097E+03  0.00000000000E+00 0. -1.
          2   -1    0    0  501    0  0.00000000000E+00 -0.00000000000E+00 -0.26462014601E+04  0.26462014601E+04  0.00000000000E+00 0.  1.
         23    2    1    2    0    0  0.39997313260E+02  0.39897606532E+03 -0.25643907271E+04  0.25971417678E+04  0.90905858510E+02 0.  0.
         13    1    3    3    0    0 -0.18225454759E+02  0.31219663760E+02 -0.32554799880E+03  0.32754897974E+03  0.00000000000E+00 0. -1.
        -13    1    3    3    0    0  0.58222768019E+02  0.36775640156E+03 -0.22388427283E+04  0.22695927880E+04  0.00000000000E+00 0.  1.
         22    1    1    2    0    0 -0.39997313260E+02 -0.39897606532E+03  0.54884293792E+03  0.67971336332E+03  0.00000000000E+00 0. -1.
<mgrwt>
<rscale>  0 0.25836692E+04</rscale>
<asrwt>0</asrwt>
<pdfrwt beam="1">  1        2 0.40710792E+00 0.25836692E+04</pdfrwt>
<pdfrwt beam="2">  1       -2 0.97023640E-01 0.25836692E+04</pdfrwt>
<totfact> 0.22452685E+00</totfact>
</mgrwt>
</event>
<event>
 6    1  0.9163946E-004  0.2820790E+04  0.7818608E-02  0.8296843E-01
          2   -1    0    0  501    0  0.00000000000E+00  0.00000000000E+00  0.13041143941E+04  0.13041143941E+04  0.00000000000E+00 0.  1.
         -2   -1    0    0    0  501 -0.00000000000E+00 -0.00000000000E+00 -0.15253369592E+04  0.15253369592E+04  0.00000000000E+00 0. -1.
         23    2    1    2    0    0  0.12262035659E+04  0.69393819648E+03 -0.11223331416E+03  0.14162974118E+04  0.90424754897E+02 0.  0.
         13    1    3    3    0    0  0.48490810759E+03  0.30394809233E+03 -0.81914133569E+02  0.57812649214E+03  0.00000000000E+00 0. -1.
        -13    1    3    3    0    0  0.74129545831E+03  0.38999010415E+03 -0.30319180593E+02  0.83817091965E+03  0.00000000000E+00 0.  1.
         22    1    1    2    0    0 -0.12262035659E+04 -0.69393819648E+03 -0.10898925099E+03  0.14131539415E+04  0.00000000000E+00 0.  1.
<mgrwt>
<rscale>  0 0.28207899E+04</rscale>
<asrwt>0</asrwt>
<pdfrwt beam="1">  1        2 0.20063298E+00 0.28207899E+04</pdfrwt>
<pdfrwt beam="2">  1       -2 0.23466722E+00 0.28207899E+04</pdfrwt>
<totfact> 0.11417702E+00</totfact>
</mgrwt>
</event>
<event>
 6    1  0.5196787E-004  0.2918517E+04  0.7818608E-02  0.8267389E-01
         -2   -1    0    0    0  501 -0.00000000000E+00  0.00000000000E+00  0.10795633724E+04  0.10795633724E+04  0.00000000000E+00 0. -1.
          2   -1    0    0  501    0  0.00000000000E+00 -0.00000000000E+00 -0.19724964124E+04  0.19724964124E+04  0.00000000000E+00 0.  1.
         23    2    1    2    0    0 -0.10787311047E+04  0.48832797334E+03 -0.13360009219E+04  0.17877678274E+04  0.95343250409E+02 0.  0.
         13    1    3    3    0    0 -0.39947424476E+03  0.13303254046E+03 -0.49409744547E+03  0.64916070019E+03  0.00000000000E+00 0. -1.
        -13    1    3    3    0    0 -0.67925685995E+03  0.35529543289E+03 -0.84190347643E+03  0.11386071272E+04  0.00000000000E+00 0.  1.
         22    1    1    2    0    0  0.10787311047E+04 -0.48832797334E+03  0.44306788187E+03  0.12642919575E+04  0.00000000000E+00 0. -1.
<mgrwt>
<rscale>  0 0.29185167E+04</rscale>
<asrwt>0</asrwt>
<pdfrwt beam="1">  1        2 0.30346099E+00 0.29185167E+04</pdfrwt>
<pdfrwt beam="2">  1       -2 0.16608667E+00 0.29185167E+04</pdfrwt>
<totfact> 0.13561220E+00</totfact>
</mgrwt>
</event>
<event>
 6    1  0.5196787E-004  0.2085554E+04  0.7818608E-02  0.8567634E-01
          2   -1    0    0  501    0  0.00000000000E+00  0.00000000000E+00  0.15589363631E+04  0.15589363631E+04  0.00000000000E+00 0.  1.
         -2   -1    0    0    0  501 -0.00000000000E+00 -0.00000000000E+00 -0.69751659524E+03  0.69751659524E+03  0.00000000000E+00 0. -1.
         23    2    1    2    0    0  0.51401478979E+03  0.65483750350E+03  0.11074032613E+04  0.13883911868E+04  0.90910638933E+02 0.  0.
         11    1    3    3    0    0  0.49043397061E+03  0.64523091492E+03  0.10573153328E+04  0.13322027346E+04  0.00000000000E+00 0. -1.
        -11    1    3    3    0    0  0.23580819177E+02  0.96065885839E+01  0.50087928475E+02  0.56188452160E+02  0.00000000000E+00 0.  1.
         22    1    1    2    0    0 -0.51401478979E+03 -0.65483750350E+03 -0.24598349348E+03  0.86806177152E+03  0.00000000000E+00 0. -1.
<mgrwt>
<rscale>  0 0.20855541E+04</rscale>
<asrwt>0</asrwt>
<pdfrwt beam="1">  1        2 0.23983636E+00 0.20855541E+04</pdfrwt>
<pdfrwt beam="2">  1       -2 0.10731025E+00 0.20855541E+04</pdfrwt>
<totfact> 0.75690471E+00</totfact>
</mgrwt>
</event>
<event>
 6    1  0.5196787E-004  0.1894605E+04  0.7818608E-02  0.8657546E-01
          2   -1    0    0  501    0  0.00000000000E+00  0.00000000000E+00  0.16947070534E+04  0.16947070534E+04  0.00000000000E+00 0.  1.
         -2   -1    0    0    0  501 -0.00000000000E+00 -0.00000000000E+00 -0.52952044952E+03  0.52952044952E+03  0.00000000000E+00 0. -1.
         23    2    1    2    0    0 -0.29122882665E+03  0.38499387201E+03 -0.36996973328E+03  0.61496074739E+03  0.90909880226E+02 0.  0.
         11    1    3    3    0    0 -0.19873717441E+03  0.24672522539E+03 -0.18791565743E+03  0.36835050651E+03  0.00000000000E+00 0.  1.
        -11    1    3    3    0    0 -0.92491652241E+02  0.13826864662E+03 -0.18205407585E+03  0.24661024088E+03  0.00000000000E+00 0. -1.
         22    1    1    2    0    0  0.29122882665E+03 -0.38499387201E+03  0.15351563372E+04  0.16092667555E+04  0.00000000000E+00 0.  1.
<mgrwt>
<rscale>  0 0.18946050E+04</rscale>
<asrwt>0</asrwt>
<pdfrwt beam="1">  1        2 0.26072416E+00 0.18946050E+04</pdfrwt>
<pdfrwt beam="2">  1       -2 0.81464686E-01 0.18946050E+04</pdfrwt>
<totfact> 0.12274613E+01</totfact>
</mgrwt>
</event>
<event>
 6    1  0.5196787E-004  0.8649236E+03  0.7818608E-02  0.9470523E-01
          2   -1    0    0  501    0  0.00000000000E+00  0.00000000000E+00  0.15354160087E+04  0.15354160087E+04  0.00000000000E+00 0.  1.
         -2   -1    0    0    0  501 -0.00000000000E+00 -0.00000000000E+00 -0.12180620722E+03  0.12180620722E+03  0.00000000000E+00 0. -1.
         23    2    1    2    0    0 -0.26464646924E+03 -0.33102746574E+03  0.81687457680E+03  0.92530018105E+03  0.96329715432E+02 0.  0.
         13    1    3    3    0    0 -0.23530750935E+03 -0.25285519071E+03  0.71102849468E+03  0.79048522546E+03  0.00000000000E+00 0.  1.
        -13    1    3    3    0    0 -0.29338959889E+02 -0.78172275025E+02  0.10584608212E+03  0.13481495559E+03  0.00000000000E+00 0. -1.
         22    1    1    2    0    0  0.26464646924E+03  0.33102746574E+03  0.59673522473E+03  0.73192203491E+03  0.00000000000E+00 0. -1.
<mgrwt>
<rscale>  0 0.86492358E+03</rscale>
<asrwt>0</asrwt>
<pdfrwt beam="1">  1        2 0.23621783E+00 0.86492358E+03</pdfrwt>
<pdfrwt beam="2">  1       -2 0.18739418E-01 0.86492358E+03</pdfrwt>
<totfact> 0.29179929E+02</totfact>
</mgrwt>
</event>
<event>
 6    1  0.5196787E-004  0.1062997E+04  0.7818608E-02  0.9242028E-01
         -2   -1    0    0    0  501 -0.00000000000E+00  0.00000000000E+00  0.31124304193E+03  0.31124304193E+03  0.00000000000E+00 0. -1.
          2   -1    0    0  501    0  0.00000000000E+00 -0.00000000000E+00 -0.90762036565E+03  0.90762036565E+03  0.00000000000E+00 0.  1.
         23    2    1    2    0    0  0.79010852420E+02  0.25858682516E+03 -0.82099052663E+03  0.86735102961E+03  0.71850558802E+02 0.  0.
         13    1    3    3    0    0  0.12089803775E+02  0.15720553995E+03 -0.49222138946E+03  0.51685746719E+03  0.00000000000E+00 0. -1.
        -13    1    3    3    0    0  0.66921048645E+02  0.10138128521E+03 -0.32876913717E+03  0.35049356242E+03  0.00000000000E+00 0.  1.
         22    1    1    2    0    0 -0.79010852420E+02 -0.25858682516E+03  0.22461320291E+03  0.35151237797E+03  0.00000000000E+00 0. -1.
<mgrwt>
<rscale>  0 0.10629968E+04</rscale>
<asrwt>0</asrwt>
<pdfrwt beam="1">  1        2 0.13963390E+00 0.10629968E+04</pdfrwt>
<pdfrwt beam="2">  1       -2 0.47883544E-01 0.10629968E+04</pdfrwt>
<totfact> 0.11910997E+02</totfact>
</mgrwt>
</event>
<event>
 6    1  0.5196787E-004  0.3772126E+04  0.7818608E-02  0.8052163E-01
          2   -1    0    0  501    0  0.00000000000E+00  0.00000000000E+00  0.18707610341E+04  0.18707610341E+04  0.00000000000E+00 0.  1.
         -2   -1    0    0    0  501 -0.00000000000E+00 -0.00000000000E+00 -0.19014903540E+04  0.19014903540E+04  0.00000000000E+00 0. -1.
         23    2    1    2    0    0  0.18513822904E+03  0.95667092348E+03  0.15982379169E+04  0.18740865696E+04  0.91326950515E+02 0.  0.
         11    1    3    3    0    0  0.14423877821E+03  0.75906409332E+03  0.11923575389E+04  0.14208094958E+04  0.00000000000E+00 0. -1.
        -11    1    3    3    0    0  0.40899450833E+02  0.19760683016E+03  0.40588037802E+03  0.45327707383E+03  0.00000000000E+00 0.  1.
         22    1    1    2    0    0 -0.18513822904E+03 -0.95667092348E+03 -0.16289672368E+04  0.18981648185E+04  0.00000000000E+00 0. -1.
<mgrwt>
<rscale>  0 0.37721262E+04</rscale>
<asrwt>0</asrwt>
<pdfrwt beam="1">  1        2 0.28780939E+00 0.37721262E+04</pdfrwt>
<pdfrwt beam="2">  1       -2 0.29253698E+00 0.37721262E+04</pdfrwt>
<totfact> 0.22366209E-01</totfact>
</mgrwt>
</event>
<event>
 6    1  0.5196787E-004  0.3172389E+04  0.7818608E-02  0.8196147E-01
         -1   -1    0    0    0  501 -0.00000000000E+00  0.00000000000E+00  0.15348660736E+04  0.15348660736E+04  0.00000000000E+00 0. -1.
          1   -1    0    0  501    0  0.00000000000E+00 -0.00000000000E+00 -0.16392396162E+04  0.16392396162E+04  0.00000000000E+00 0.  1.
         23    2    1    2    0    0  0.13692862059E+04 -0.30218432240E+03  0.68697586456E+03  0.15639833458E+04  0.88588876452E+02 0.  0.
         13    1    3    3    0    0  0.80142490627E+03 -0.18564557595E+03  0.35515277793E+03  0.89603552158E+03  0.00000000000E+00 0. -1.
        -13    1    3    3    0    0  0.56786129964E+03 -0.11653874645E+03  0.33182308662E+03  0.66794782421E+03  0.00000000000E+00 0.  1.
         22    1    1    2    0    0 -0.13692862059E+04  0.30218432240E+03 -0.79134940716E+03  0.16101223440E+04  0.00000000000E+00 0.  1.
<mgrwt>
<rscale>  0 0.31723892E+04</rscale>
<asrwt>0</asrwt>
<pdfrwt beam="1">  1        1 0.25219071E+00 0.31723892E+04</pdfrwt>
<pdfrwt beam="2">  1       -1 0.23613324E+00 0.31723892E+04</pdfrwt>
<totfact> 0.37813689E-01</totfact>
</mgrwt>
</event>
<event>
 6    1  0.5196787E-004  0.2446467E+04  0.7818608E-02  0.8422309E-01
         -2   -1    0    0    0  501 -0.00000000000E+00  0.00000000000E+00  0.10843862895E+04  0.10843862895E+04  0.00000000000E+00 0.  1.
          2   -1    0    0  501    0  0.00000000000E+00 -0.00000000000E+00 -0.13798591263E+04  0.13798591263E+04  0.00000000000E+00 0. -1.
         23    2    1    2    0    0  0.26645131912E+03  0.64353895540E+03  0.86295626785E+03  0.11125440126E+04  0.89005433778E+02 0.  0.
         13    1    3    3    0    0  0.49332754191E+02  0.64770678588E+02  0.71988116073E+02  0.10867957626E+03  0.00000000000E+00 0. -1.
        -13    1    3    3    0    0  0.21711856493E+03  0.57876827681E+03  0.79096815178E+03  0.10038644364E+04  0.00000000000E+00 0.  1.
         22    1    1    2    0    0 -0.26645131912E+03 -0.64353895540E+03 -0.11584291048E+04  0.13517014032E+04  0.00000000000E+00 0. -1.
<mgrwt>
<rscale>  0 0.24464671E+04</rscale>
<asrwt>0</asrwt>
<pdfrwt beam="1">  1        2 0.21228602E+00 0.24464671E+04</pdfrwt>
<pdfrwt beam="2">  1       -2 0.16682866E+00 0.24464671E+04</pdfrwt>
<totfact> 0.29900889E+00</totfact>
</mgrwt>
</event>
<event>
 6    1  0.5196787E-004  0.1531912E+04  0.7818608E-02  0.8863505E-01
         -2   -1    0    0    0  501 -0.00000000000E+00  0.00000000000E+00  0.19392237335E+03  0.19392237335E+03  0.00000000000E+00 0. -1.
          2   -1    0    0  501    0  0.00000000000E+00 -0.00000000000E+00 -0.30253795205E+04  0.30253795205E+04  0.00000000000E+00 0.  1.
         23    2    1    2    0    0 -0.40662168181E+03 -0.39391072958E+03 -0.34550838979E+03  0.66970426301E+03  0.92848788215E+02 0.  0.
         13    1    3    3    0    0 -0.19096276712E+03 -0.23691213786E+03 -0.15192491825E+03  0.34011074707E+03  0.00000000000E+00 0. -1.
        -13    1    3    3    0    0 -0.21565891469E+03 -0.15699859173E+03 -0.19358347155E+03  0.32959351594E+03  0.00000000000E+00 0.  1.
         22    1    1    2    0    0  0.40662168181E+03  0.39391072958E+03 -0.24859487574E+04  0.25495976308E+04  0.00000000000E+00 0.  1.
<mgrwt>
<rscale>  0 0.15319122E+04</rscale>
<asrwt>0</asrwt>
<pdfrwt beam="1">  1        2 0.46544300E+00 0.15319122E+04</pdfrwt>
<pdfrwt beam="2">  1       -2 0.29834212E-01 0.15319122E+04</pdfrwt>
<totfact> 0.16881108E+01</totfact>
</mgrwt>
</event>
<event>
 6    1  0.5196787E-004  0.2504246E+04  0.7818608E-02  0.8401474E-01
         -2   -1    0    0    0  501 -0.00000000000E+00  0.00000000000E+00  0.76084280978E+03  0.76084280978E+03  0.00000000000E+00 0. -1.
          2   -1    0    0  501    0  0.00000000000E+00 -0.00000000000E+00 -0.20606252403E+04  0.20606252403E+04  0.00000000000E+00 0.  1.
         23    2    1    2    0    0  0.66271464843E+03 -0.10450116717E+04 -0.44975320857E+03  0.13202053225E+04  0.97077524078E+02 0.  0.
         13    1    3    3    0    0  0.57023994552E+03 -0.95176067049E+03 -0.41224627006E+03  0.11836253447E+04  0.00000000000E+00 0.  1.
        -13    1    3    3    0    0  0.92474702909E+02 -0.93251001170E+02 -0.37506938509E+02  0.13657997779E+03  0.00000000000E+00 0. -1.
         22    1    1    2    0    0 -0.66271464843E+03  0.10450116717E+04 -0.85002922193E+03  0.15012627276E+04  0.00000000000E+00 0.  1.
<mgrwt>
<rscale>  0 0.25042459E+04</rscale>
<asrwt>0</asrwt>
<pdfrwt beam="1">  1        2 0.31701926E+00 0.25042459E+04</pdfrwt>
<pdfrwt beam="2">  1       -2 0.11705274E+00 0.25042459E+04</pdfrwt>
<totfact> 0.31116482E+00</totfact>
</mgrwt>
</event>
<event>
 6    1  0.5196787E-004  0.1677125E+04  0.7818608E-02  0.8774520E-01
         -2   -1    0    0    0  501 -0.00000000000E+00  0.00000000000E+00  0.91144158209E+03  0.91144158209E+03  0.00000000000E+00 0. -1.
          2   -1    0    0  501    0  0.00000000000E+00 -0.00000000000E+00 -0.77151068034E+03  0.77151068034E+03  0.00000000000E+00 0.  1.
         23    2    1    2    0    0 -0.18122616804E+03  0.69237505548E+03  0.50393650115E+03  0.88000380965E+03  0.90711445720E+02 0.  0.
         11    1    3    3    0    0 -0.13948100130E+03  0.54351571486E+03  0.34724602194E+03  0.65988186956E+03  0.00000000000E+00 0.  1.
        -11    1    3    3    0    0 -0.41745166737E+02  0.14885934062E+03  0.15669047921E+03  0.22012194009E+03  0.00000000000E+00 0. -1.
         22    1    1    2    0    0  0.18122616804E+03 -0.69237505548E+03 -0.36400559940E+03  0.80294845278E+03  0.00000000000E+00 0.  1.
<mgrwt>
<rscale>  0 0.16771248E+04</rscale>
<asrwt>0</asrwt>
<pdfrwt beam="1">  1        2 0.11869395E+00 0.16771248E+04</pdfrwt>
<pdfrwt beam="2">  1       -2 0.14022178E+00 0.16771248E+04</pdfrwt>
<totfact> 0.12318034E+01</totfact>
</mgrwt>
</event>
<event>
 6    1  0.5196787E-004  0.1788636E+04  0.7818608E-02  0.8712366E-01
         -2   -1    0    0    0  501 -0.00000000000E+00  0.00000000000E+00  0.41756264921E+03  0.41756264921E+03  0.00000000000E+00 0. -1.
          2   -1    0    0  501    0  0.00000000000E+00 -0.00000000000E+00 -0.19154118161E+04  0.19154118161E+04  0.00000000000E+00 0.  1.
         23    2    1    2    0    0 -0.85165794400E+02  0.60736944152E+03 -0.15956466280E+04  0.17119147303E+04  0.91722577605E+02 0.  0.
         13    1    3    3    0    0 -0.10497639386E+03  0.51969633805E+03 -0.13561478167E+04  0.14561048135E+04  0.00000000000E+00 0. -1.
        -13    1    3    3    0    0  0.19810599463E+02  0.87673103478E+02 -0.23949881126E+03  0.25580991677E+03  0.00000000000E+00 0.  1.
         22    1    1    2    0    0  0.85165794400E+02 -0.60736944152E+03  0.97797461150E+02  0.62105973500E+03  0.00000000000E+00 0. -1.
<mgrwt>
<rscale>  0 0.17886357E+04</rscale>
<asrwt>0</asrwt>
<pdfrwt beam="1">  1        2 0.29467874E+00 0.17886357E+04</pdfrwt>
<pdfrwt beam="2">  1       -2 0.64240407E-01 0.17886357E+04</pdfrwt>
<totfact> 0.15751036E+01</totfact>
</mgrwt>
</event>
<event>
 6    1  0.5196787E-004  0.1318949E+04  0.7818608E-02  0.9014672E-01
          1   -1    0    0  501    0  0.00000000000E+00  0.00000000000E+00  0.10037754529E+04  0.10037754529E+04  0.00000000000E+00 0.  1.
         -1   -1    0    0    0  501 -0.00000000000E+00 -0.00000000000E+00 -0.43327086552E+03  0.43327086552E+03  0.00000000000E+00 0. -1.
         23    2    1    2    0    0 -0.10798375834E+03 -0.56199527337E+03  0.63718011752E+03  0.86089980437E+03  0.87468803918E+02 0.  0.
         13    1    3    3    0    0 -0.70809698110E+02 -0.18597917478E+03  0.25510101957E+03  0.32354102829E+03  0.00000000000E+00 0.  1.
        -13    1    3    3    0    0 -0.37174060230E+02 -0.37601609859E+03  0.38207909794E+03  0.53735877609E+03  0.00000000000E+00 0. -1.
         22    1    1    2    0    0  0.10798375834E+03  0.56199527337E+03 -0.66675530123E+02  0.57614651407E+03  0.00000000000E+00 0. -1.
<mgrwt>
<rscale>  0 0.13189491E+04</rscale>
<asrwt>0</asrwt>
<pdfrwt beam="1">  1        1 0.15442699E+00 0.13189491E+04</pdfrwt>
<pdfrwt beam="2">  1       -1 0.66657056E-01 0.13189491E+04</pdfrwt>
<totfact> 0.33627952E+01</totfact>
</mgrwt>
</event>
<event>
 6    1  0.5196787E-004  0.2829518E+04  0.7818608E-02  0.8294162E-01
          2   -1    0    0  501    0  0.00000000000E+00  0.00000000000E+00  0.20542031702E+04  0.20542031702E+04  0.00000000000E+00 0.  1.
         -2   -1    0    0    0  501 -0.00000000000E+00 -0.00000000000E+00 -0.97436477505E+03  0.97436477505E+03  0.00000000000E+00 0. -1.
         23    2    1    2    0    0  0.12685652481E+04  0.49236341749E+03  0.13171147189E+03  0.13700673615E+04  0.89761571446E+02 0.  0.
         13    1    3    3    0    0  0.83392228430E+03  0.33100442874E+03  0.12894351130E+03  0.90643076801E+03  0.00000000000E+00 0.  1.
        -13    1    3    3    0    0  0.43464296381E+03  0.16135898875E+03  0.27679605815E+01  0.46363659351E+03  0.00000000000E+00 0. -1.
         22    1    1    2    0    0 -0.12685652481E+04 -0.49236341749E+03  0.94812692324E+03  0.16585005837E+04  0.00000000000E+00 0. -1.
<mgrwt>
<rscale>  0 0.28295181E+04</rscale>
<asrwt>0</asrwt>
<pdfrwt beam="1">  1        2 0.31603126E+00 0.28295181E+04</pdfrwt>
<pdfrwt beam="2">  1       -2 0.14990227E+00 0.28295181E+04</pdfrwt>
<totfact> 0.16238247E+00</totfact>
</mgrwt>
</event>
<event>
 6    1  0.5196787E-004  0.2567893E+04  0.7818608E-02  0.8379190E-01
          2   -1    0    0  501    0  0.00000000000E+00  0.00000000000E+00  0.22115390320E+04  0.22115390320E+04  0.00000000000E+00 0.  1.
         -2   -1    0    0    0  501 -0.00000000000E+00 -0.00000000000E+00 -0.74541710918E+03  0.74541710918E+03  0.00000000000E+00 0. -1.
         23    2    1    2    0    0 -0.90688425075E+03  0.19444758056E+03  0.17536510087E+04  0.19859144937E+04  0.91189966071E+02 0.  0.
         11    1    3    3    0    0 -0.16089162499E+03  0.12769246128E+02  0.24987352223E+03  0.29746587325E+03  0.00000000000E+00 0. -1.
        -11    1    3    3    0    0 -0.74599262577E+03  0.18167833443E+03  0.15037774865E+04  0.16884486204E+04  0.00000000000E+00 0.  1.
         22    1    1    2    0    0  0.90688425075E+03 -0.19444758056E+03 -0.28752908595E+03  0.97104164747E+03  0.00000000000E+00 0. -1.
<mgrwt>
<rscale>  0 0.25678933E+04</rscale>
<asrwt>0</asrwt>
<pdfrwt beam="1">  1        2 0.34023677E+00 0.25678933E+04</pdfrwt>
<pdfrwt beam="2">  1       -2 0.11467956E+00 0.25678933E+04</pdfrwt>
<totfact> 0.26782788E+00</totfact>
</mgrwt>
</event>
<event>
 6    1  0.5196787E-004  0.3723635E+04  0.7818608E-02  0.8062744E-01
          2   -1    0    0  501    0  0.00000000000E+00  0.00000000000E+00  0.30402971588E+04  0.30402971588E+04  0.00000000000E+00 0.  1.
         -2   -1    0    0    0  501 -0.00000000000E+00 -0.00000000000E+00 -0.11401400104E+04  0.11401400104E+04  0.00000000000E+00 0. -1.
         23    2    1    2    0    0  0.13639232777E+04 -0.67116749028E+03 -0.25404332806E+03  0.15438992499E+04  0.91292791316E+02 0.  0.
         13    1    3    3    0    0  0.56155991839E+03 -0.23673409150E+03 -0.74216543556E+02  0.61392236265E+03  0.00000000000E+00 0. -1.
        -13    1    3    3    0    0  0.80236335933E+03 -0.43443339878E+03 -0.17982678451E+03  0.92997688724E+03  0.00000000000E+00 0.  1.
         22    1    1    2    0    0 -0.13639232777E+04  0.67116749028E+03  0.21542004764E+04  0.26365379194E+04  0.00000000000E+00 0.  1.
<mgrwt>
<rscale>  0 0.37236350E+04</rscale>
<asrwt>0</asrwt>
<pdfrwt beam="1">  1        2 0.46773802E+00 0.37236350E+04</pdfrwt>
<pdfrwt beam="2">  1       -2 0.17540616E+00 0.37236350E+04</pdfrwt>
<totfact> 0.25845848E-01</totfact>
</mgrwt>
</event>
<event>
 6    1  0.5196787E-004  0.1742672E+04  0.7818608E-02  0.8737394E-01
         -2   -1    0    0    0  501 -0.00000000000E+00  0.00000000000E+00  0.25868061269E+03  0.25868061269E+03  0.00000000000E+00 0. -1.
          2   -1    0    0  501    0  0.00000000000E+00 -0.00000000000E+00 -0.29349950214E+04  0.29349950214E+04  0.00000000000E+00 0.  1.
         23    2    1    2    0    0 -0.74152548116E+03  0.26470349892E+03 -0.66812973580E+03  0.10366560092E+04  0.91270784227E+02 0.  0.
         13    1    3    3    0    0 -0.20978506553E+03  0.32065775347E+02 -0.18003621690E+03  0.27830024625E+03  0.00000000000E+00 0.  1.
        -13    1    3    3    0    0 -0.53174041563E+03  0.23263772357E+03 -0.48809351891E+03  0.75835576298E+03  0.00000000000E+00 0. -1.
         22    1    1    2    0    0  0.74152548116E+03 -0.26470349892E+03 -0.20081846729E+04  0.21570196249E+04  0.00000000000E+00 0. -1.
<mgrwt>
<rscale>  0 0.17426719E+04</rscale>
<asrwt>0</asrwt>
<pdfrwt beam="1">  1        2 0.45153770E+00 0.17426719E+04</pdfrwt>
<pdfrwt beam="2">  1       -2 0.39797017E-01 0.17426719E+04</pdfrwt>
<totfact> 0.10871363E+01</totfact>
</mgrwt>
</event>
<event>
 6    1  0.5196787E-004  0.9933763E+03  0.7818608E-02  0.9315840E-01
         -2   -1    0    0    0  501 -0.00000000000E+00  0.00000000000E+00  0.30876817730E+03  0.30876817730E+03  0.00000000000E+00 0. -1.
          2   -1    0    0  501    0  0.00000000000E+00 -0.00000000000E+00 -0.79897838368E+03  0.79897838368E+03  0.00000000000E+00 0.  1.
         23    2    1    2    0    0 -0.45467061179E+03  0.94406570819E+02 -0.43034605948E+03  0.63953540998E+03  0.90387188615E+02 0.  0.
         11    1    3    3    0    0 -0.32449703047E+03  0.61189479837E+02 -0.35765728452E+03  0.48678661485E+03  0.00000000000E+00 0. -1.
        -11    1    3    3    0    0 -0.13017358133E+03  0.33217090982E+02 -0.72688774952E+02  0.15274879513E+03  0.00000000000E+00 0.  1.
         22    1    1    2    0    0  0.45467061179E+03 -0.94406570819E+02 -0.59864146906E+02  0.46821115101E+03  0.00000000000E+00 0. -1.
<mgrwt>
<rscale>  0 0.99337626E+03</rscale>
<asrwt>0</asrwt>
<pdfrwt beam="1">  1        2 0.12291975E+00 0.99337626E+03</pdfrwt>
<pdfrwt beam="2">  1       -2 0.47502797E-01 0.99337626E+03</pdfrwt>
<totfact> 0.14470297E+02</totfact>
</mgrwt>
</event>
<event>
 6    1  0.5196787E-004  0.1935145E+04  0.7818608E-02  0.8637558E-01
          2   -1    0    0  501    0  0.00000000000E+00  0.00000000000E+00  0.12965407549E+04  0.12965407549E+04  0.00000000000E+00 0.  1.
         -2   -1    0    0    0  501 -0.00000000000E+00 -0.00000000000E+00 -0.72207236111E+03  0.72207236111E+03  0.00000000000E+00 0. -1.
         23    2    1    2    0    0 -0.44786870818E+01 -0.88604503801E+03 -0.11192894216E+03  0.89779325052E+03  0.91699316071E+02 0.  0.
         11    1    3    3    0    0 -0.28887031734E+02 -0.81596606858E+03 -0.10637606297E+03  0.82337777019E+03  0.00000000000E+00 0. -1.
        -11    1    3    3    0    0  0.24408344653E+02 -0.70078969432E+02 -0.55528791911E+01  0.74415480329E+02  0.00000000000E+00 0.  1.
         22    1    1    2    0    0  0.44786870818E+01  0.88604503801E+03  0.68639733590E+03  0.11208198654E+04  0.00000000000E+00 0.  1.
<mgrwt>
<rscale>  0 0.19351447E+04</rscale>
<asrwt>0</asrwt>
<pdfrwt beam="1">  1        2 0.19946781E+00 0.19351447E+04</pdfrwt>
<pdfrwt beam="2">  1       -2 0.11108806E+00 0.19351447E+04</pdfrwt>
<totfact> 0.99524239E+00</totfact>
</mgrwt>
</event>
<event>
 6    1  0.5196787E-004  0.2395385E+04  0.7818608E-02  0.8441234E-01
         -2   -1    0    0    0  501 -0.00000000000E+00  0.00000000000E+00  0.88696311610E+03  0.88696311610E+03  0.00000000000E+00 0. -1.
          2   -1    0    0  501    0  0.00000000000E+00 -0.00000000000E+00 -0.16172790487E+04  0.16172790487E+04  0.00000000000E+00 0.  1.
         23    2    1    2    0    0  0.51655103249E+02 -0.73640429453E+03 -0.13494413423E+04  0.15407714556E+04  0.89583523079E+02 0.  0.
         11    1    3    3    0    0  0.68796193858E+02 -0.38510077150E+03 -0.67688498704E+03  0.78179844345E+03  0.00000000000E+00 0. -1.
        -11    1    3    3    0    0 -0.17141090610E+02 -0.35130352303E+03 -0.67255635522E+03  0.75897301218E+03  0.00000000000E+00 0.  1.
         22    1    1    2    0    0 -0.51655103249E+02  0.73640429453E+03  0.61912540961E+03  0.96347070922E+03  0.00000000000E+00 0. -1.
<mgrwt>
<rscale>  0 0.23953846E+04</rscale>
<asrwt>0</asrwt>
<pdfrwt beam="1">  1        2 0.24881216E+00 0.23953846E+04</pdfrwt>
<pdfrwt beam="2">  1       -2 0.13645586E+00 0.23953846E+04</pdfrwt>
<totfact> 0.37663170E+00</totfact>
</mgrwt>
</event>
<event>
 6    1  0.5196787E-004  0.1566585E+04  0.7818608E-02  0.8841343E-01
          2   -1    0    0  501    0  0.00000000000E+00  0.00000000000E+00  0.12444408057E+04  0.12444408057E+04  0.00000000000E+00 0.  1.
         -2   -1    0    0    0  501 -0.00000000000E+00 -0.00000000000E+00 -0.49303049534E+03  0.49303049534E+03  0.00000000000E+00 0. -1.
         23    2    1    2    0    0 -0.77515246863E+03 -0.90760590118E+02  0.37376060366E+03  0.87045449885E+03  0.94314428215E+02 0.  0.
         11    1    3    3    0    0 -0.45247069942E+03 -0.37586972070E+02  0.26554493664E+03  0.52598158492E+03  0.00000000000E+00 0.  1.
        -11    1    3    3    0    0 -0.32268176921E+03 -0.53173618048E+02  0.10821566702E+03  0.34447291392E+03  0.00000000000E+00 0. -1.
         22    1    1    2    0    0  0.77515246863E+03  0.90760590118E+02  0.37764970674E+03  0.86701680223E+03  0.00000000000E+00 0. -1.
<mgrwt>
<rscale>  0 0.15665852E+04</rscale>
<asrwt>0</asrwt>
<pdfrwt beam="1">  1        2 0.19145243E+00 0.15665852E+04</pdfrwt>
<pdfrwt beam="2">  1       -2 0.75850846E-01 0.15665852E+04</pdfrwt>
<totfact> 0.26684106E+01</totfact>
</mgrwt>
</event>
<event>
 6    1  0.5196787E-004  0.2749253E+04  0.7818608E-02  0.8319199E-01
         -2   -1    0    0    0  501 -0.00000000000E+00  0.00000000000E+00  0.53752951513E+03  0.53752951513E+03  0.00000000000E+00 0. -1.
          2   -1    0    0  501    0  0.00000000000E+00 -0.00000000000E+00 -0.35153384909E+04  0.35153384909E+04  0.00000000000E+00 0.  1.
         23    2    1    2    0    0  0.71120939094E+03  0.18974524632E+03  0.21762379085E+03  0.77375034692E+03  0.97506044707E+02 0.  0.
         11    1    3    3    0    0  0.25084177218E+03  0.10948532106E+03  0.56690471820E+02  0.27950391731E+03  0.00000000000E+00 0. -1.
        -11    1    3    3    0    0  0.46036761877E+03  0.80259925253E+02  0.16093331903E+03  0.49424642961E+03  0.00000000000E+00 0.  1.
         22    1    1    2    0    0 -0.71120939094E+03 -0.18974524632E+03 -0.31954327666E+04  0.32791176591E+04  0.00000000000E+00 0.  1.
<mgrwt>
<rscale>  0 0.27492531E+04</rscale>
<asrwt>0</asrwt>
<pdfrwt beam="1">  1        2 0.54082130E+00 0.27492531E+04</pdfrwt>
<pdfrwt beam="2">  1       -2 0.82696849E-01 0.27492531E+04</pdfrwt>
<totfact> 0.88878519E-01</totfact>
</mgrwt>
</event>
<event>
 6    1  0.5196787E-004  0.2064500E+04  0.7818608E-02  0.8577045E-01
         -2   -1    0    0    0  501 -0.00000000000E+00  0.00000000000E+00  0.53185031504E+03  0.53185031504E+03  0.00000000000E+00 0. -1.
          2   -1    0    0  501    0  0.00000000000E+00 -0.00000000000E+00 -0.20034582607E+04  0.20034582607E+04  0.00000000000E+00 0.  1.
         23    2    1    2    0    0 -0.17266271767E+03 -0.92613677372E+03 -0.12493797629E+04  0.15673586272E+04  0.90119568819E+02 0.  0.
         11    1    3    3    0    0 -0.11245002610E+03 -0.37511998744E+03 -0.54209668064E+03  0.66875169122E+03  0.00000000000E+00 0. -1.
        -11    1    3    3    0    0 -0.60212691572E+02 -0.55101678627E+03 -0.70728308221E+03  0.89860693597E+03  0.00000000000E+00 0.  1.
         22    1    1    2    0    0  0.17266271767E+03  0.92613677372E+03 -0.22222818283E+03  0.96794994858E+03  0.00000000000E+00 0. -1.
<mgrwt>
<rscale>  0 0.20644998E+04</rscale>
<asrwt>0</asrwt>
<pdfrwt beam="1">  1        2 0.30822435E+00 0.20644998E+04</pdfrwt>
<pdfrwt beam="2">  1       -2 0.81823126E-01 0.20644998E+04</pdfrwt>
<totfact> 0.80757380E+00</totfact>
</mgrwt>
</event>
<event>
 6    1  0.5196787E-004  0.5757909E+03  0.7818608E-02  0.9956946E-01
          2   -1    0    0  501    0  0.00000000000E+00  0.00000000000E+00  0.22727934662E+03  0.22727934662E+03  0.00000000000E+00 0.  1.
         -2   -1    0    0    0  501 -0.00000000000E+00 -0.00000000000E+00 -0.36467801623E+03  0.36467801623E+03  0.00000000000E+00 0. -1.
         23    2    1    2    0    0  0.13574617550E+02 -0.10382886622E+03  0.19804541003E+03  0.24054957372E+03  0.87620826751E+02 0.  0.
         13    1    3    3    0    0  0.32631423611E+02 -0.68656892874E+02  0.60053128521E+02  0.96875987691E+02  0.00000000000E+00 0.  1.
        -13    1    3    3    0    0 -0.19056806061E+02 -0.35171973347E+02  0.13799228150E+03  0.14367358602E+03  0.00000000000E+00 0. -1.
         22    1    1    2    0    0 -0.13574617550E+02  0.10382886622E+03 -0.33544407964E+03  0.35140778914E+03  0.00000000000E+00 0. -1.
<mgrwt>
<rscale>  0 0.57579087E+03</rscale>
<asrwt>0</asrwt>
<pdfrwt beam="1">  1        2 0.34966054E-01 0.57579087E+03</pdfrwt>
<pdfrwt beam="2">  1       -2 0.56104310E-01 0.57579087E+03</pdfrwt>
<totfact> 0.45066275E+02</totfact>
</mgrwt>
</event>
<event>
 6    1  0.5196787E-004  0.3192965E+04  0.7818608E-02  0.8190678E-01
          2   -1    0    0  501    0  0.00000000000E+00  0.00000000000E+00  0.13244804952E+04  0.13244804952E+04  0.00000000000E+00 0.  1.
         -2   -1    0    0    0  501 -0.00000000000E+00 -0.00000000000E+00 -0.19243440873E+04  0.19243440873E+04  0.00000000000E+00 0. -1.
         23    2    1    2    0    0  0.73820674594E+03  0.14050533655E+04 -0.13776521305E+03  0.15957489425E+04  0.91166188682E+02 0.  0.
         11    1    3    3    0    0  0.14518123709E+03  0.22317111175E+03 -0.46658618094E+02  0.27029606613E+03  0.00000000000E+00 0. -1.
        -11    1    3    3    0    0  0.59302550885E+03  0.11818822538E+04 -0.91106594961E+02  0.13254528764E+04  0.00000000000E+00 0.  1.
         22    1    1    2    0    0 -0.73820674594E+03 -0.14050533655E+04 -0.46209837909E+03  0.16530756400E+04  0.00000000000E+00 0.  1.
<mgrwt>
<rscale>  0 0.31929649E+04</rscale>
<asrwt>0</asrwt>
<pdfrwt beam="1">  1        2 0.20376623E+00 0.31929649E+04</pdfrwt>
<pdfrwt beam="2">  1       -2 0.29605294E+00 0.31929649E+04</pdfrwt>
<totfact> 0.45285997E-01</totfact>
</mgrwt>
</event>
<event>
 6    1  0.5196787E-004  0.1028289E+04  0.7818608E-02  0.9278051E-01
          2   -1    0    0  501    0  0.00000000000E+00  0.00000000000E+00  0.91267604325E+03  0.91267604325E+03  0.00000000000E+00 0.  1.
         -2   -1    0    0    0  501 -0.00000000000E+00 -0.00000000000E+00 -0.28963667300E+03  0.28963667300E+03  0.00000000000E+00 0. -1.
         23    2    1    2    0    0 -0.49302091389E+03 -0.78164601688E+02  0.43735472259E+03  0.66971707707E+03  0.89791332859E+02 0.  0.
         13    1    3    3    0    0 -0.16222145868E+03 -0.65785844665E+02  0.13054204437E+03  0.21836850589E+03  0.00000000000E+00 0. -1.
        -13    1    3    3    0    0 -0.33079945521E+03 -0.12378757023E+02  0.30681267823E+03  0.45134857119E+03  0.00000000000E+00 0.  1.
         22    1    1    2    0    0  0.49302091389E+03  0.78164601688E+02  0.18568464765E+03  0.53259563917E+03  0.00000000000E+00 0. -1.
<mgrwt>
<rscale>  0 0.10282888E+04</rscale>
<asrwt>0</asrwt>
<pdfrwt beam="1">  1        2 0.14041170E+00 0.10282888E+04</pdfrwt>
<pdfrwt beam="2">  1       -2 0.44559489E-01 0.10282888E+04</pdfrwt>
<totfact> 0.13682551E+02</totfact>
</mgrwt>
</event>
<event>
 6    1  0.5196787E-004  0.2651724E+04  0.7818608E-02  0.8350841E-01
         -2   -1    0    0    0  501 -0.00000000000E+00  0.00000000000E+00  0.14638251732E+04  0.14638251732E+04  0.00000000000E+00 0. -1.
          2   -1    0    0  501    0  0.00000000000E+00 -0.00000000000E+00 -0.12009014635E+04  0.12009014635E+04  0.00000000000E+00 0.  1.
         23    2    1    2    0    0 -0.11872168676E+04  0.21338886567E+03 -0.41794241273E+03  0.12795922116E+04  0.87530959667E+02 0.  0.
         13    1    3    3    0    0 -0.73802271293E+03  0.16211909478E+03 -0.29400798425E+03  0.81080257801E+03  0.00000000000E+00 0.  1.
        -13    1    3    3    0    0 -0.44919415468E+03  0.51269770889E+02 -0.12393442848E+03  0.46878963360E+03  0.00000000000E+00 0. -1.
         22    1    1    2    0    0  0.11872168676E+04 -0.21338886567E+03  0.68086612250E+03  0.13851344251E+04  0.00000000000E+00 0. -1.
<mgrwt>
<rscale>  0 0.26517238E+04</rscale>
<asrwt>0</asrwt>
<pdfrwt beam="1">  1        2 0.18475407E+00 0.26517238E+04</pdfrwt>
<pdfrwt beam="2">  1       -2 0.22520387E+00 0.26517238E+04</pdfrwt>
<totfact> 0.15267620E+00</totfact>
</mgrwt>
</event>
<event>
 6    1  0.5196787E-004  0.1398251E+04  0.7818608E-02  0.8955086E-01
          2   -1    0    0  501    0  0.00000000000E+00  0.00000000000E+00  0.52369926097E+03  0.52369926097E+03  0.00000000000E+00 0.  1.
         -2   -1    0    0    0  501 -0.00000000000E+00 -0.00000000000E+00 -0.93331487615E+03  0.93331487615E+03  0.00000000000E+00 0. -1.
         23    2    1    2    0    0 -0.58461128226E+03  0.35455553519E+03 -0.34285573438E+03  0.77003752867E+03  0.89037981072E+02 0.  0.
         13    1    3    3    0    0 -0.35106220395E+03  0.22107799712E+03 -0.15943639638E+03  0.44445485298E+03  0.00000000000E+00 0. -1.
        -13    1    3    3    0    0 -0.23354907831E+03  0.13347753807E+03 -0.18341933800E+03  0.32558267568E+03  0.00000000000E+00 0.  1.
         22    1    1    2    0    0  0.58461128226E+03 -0.35455553519E+03 -0.66759880796E+02  0.68697660845E+03  0.00000000000E+00 0. -1.
<mgrwt>
<rscale>  0 0.13982508E+04</rscale>
<asrwt>0</asrwt>
<pdfrwt beam="1">  1        2 0.80569118E-01 0.13982508E+04</pdfrwt>
<pdfrwt beam="2">  1       -2 0.14358690E+00 0.13982508E+04</pdfrwt>
<totfact> 0.19075967E+01</totfact>
</mgrwt>
</event>
<event>
 6    1  0.5196787E-004  0.4540198E+04  0.7818608E-02  0.7903637E-01
          2   -1    0    0  501    0  0.00000000000E+00  0.00000000000E+00  0.23588109353E+04  0.23588109353E+04  0.00000000000E+00 0.  1.
         -2   -1    0    0    0  501 -0.00000000000E+00 -0.00000000000E+00 -0.21847238503E+04  0.21847238503E+04  0.00000000000E+00 0. -1.
         23    2    1    2    0    0 -0.79823226376E+03 -0.18267714774E+04  0.11718276834E+04  0.23142400363E+04  0.90873804772E+02 0.  0.
         13    1    3    3    0    0 -0.60350450477E+03 -0.14422948526E+04  0.95100108834E+03  0.18299822947E+04  0.00000000000E+00 0.  1.
        -13    1    3    3    0    0 -0.19472775898E+03 -0.38447662483E+03  0.22082659510E+03  0.48425774157E+03  0.00000000000E+00 0. -1.
         22    1    1    2    0    0  0.79823226376E+03  0.18267714774E+04 -0.99774059835E+03  0.22292947493E+04  0.00000000000E+00 0. -1.
<mgrwt>
<rscale>  0 0.45401985E+04</rscale>
<asrwt>0</asrwt>
<pdfrwt beam="1">  1        2 0.36289399E+00 0.45401985E+04</pdfrwt>
<pdfrwt beam="2">  1       -2 0.33611136E+00 0.45401985E+04</pdfrwt>
<totfact> 0.60280865E-02</totfact>
</mgrwt>
</event>
<event>
 6    1  0.5196787E-004  0.1930732E+04  0.7818608E-02  0.8639708E-01
         -2   -1    0    0    0  501 -0.00000000000E+00  0.00000000000E+00  0.66093504165E+03  0.66093504165E+03  0.00000000000E+00 0. -1.
          2   -1    0    0  501    0  0.00000000000E+00 -0.00000000000E+00 -0.14100199415E+04  0.14100199415E+04  0.00000000000E+00 0.  1.
         23    2    1    2    0    0 -0.46921397878E+03  0.43203307542E+03 -0.11497470855E+04  0.13177322251E+04  0.87667099165E+02 0.  0.
         13    1    3    3    0    0 -0.32450362881E+03  0.25132355705E+03 -0.68611083308E+03  0.79950873085E+03  0.00000000000E+00 0. -1.
        -13    1    3    3    0    0 -0.14471034997E+03  0.18070951838E+03 -0.46363625245E+03  0.51822349426E+03  0.00000000000E+00 0.  1.
         22    1    1    2    0    0  0.46921397878E+03 -0.43203307542E+03  0.40066218569E+03  0.75322275801E+03  0.00000000000E+00 0. -1.
<mgrwt>
<rscale>  0 0.19307321E+04</rscale>
<asrwt>0</asrwt>
<pdfrwt beam="1">  1        2 0.21692614E+00 0.19307321E+04</pdfrwt>
<pdfrwt beam="2">  1       -2 0.10168231E+00 0.19307321E+04</pdfrwt>
<totfact> 0.10592723E+01</totfact>
</mgrwt>
</event>
<event>
 6    1  0.6116537E-004  0.4119739E+04  0.7818608E-02  0.7980818E-01
          2   -1    0    0  501    0  0.00000000000E+00  0.00000000000E+00  0.25869766871E+04  0.25869766871E+04  0.00000000000E+00 0.  1.
         -2   -1    0    0    0  501 -0.00000000000E+00 -0.00000000000E+00 -0.16401623815E+04  0.16401623815E+04  0.00000000000E+00 0. -1.
         23    2    1    2    0    0 -0.15975070857E+04 -0.12983903221E+04  0.50285212188E+03  0.21212072705E+04  0.93881364399E+02 0.  0.
         11    1    3    3    0    0 -0.64190523675E+03 -0.53513318341E+03  0.15798916494E+03  0.85051186540E+03  0.00000000000E+00 0.  1.
        -11    1    3    3    0    0 -0.95560184894E+03 -0.76325713870E+03  0.34486295694E+03  0.12706954051E+04  0.00000000000E+00 0. -1.
         22    1    1    2    0    0  0.15975070857E+04  0.12983903221E+04  0.44396218378E+03  0.21059317980E+04  0.00000000000E+00 0. -1.
<mgrwt>
<rscale>  0 0.41197388E+04</rscale>
<asrwt>0</asrwt>
<pdfrwt beam="1">  1        2 0.39799641E+00 0.41197388E+04</pdfrwt>
<pdfrwt beam="2">  1       -2 0.25233267E+00 0.41197388E+04</pdfrwt>
<totfact> 0.15044820E-01</totfact>
</mgrwt>
</event>
<event>
 6    1  0.5196787E-004  0.3427088E+04  0.7818608E-02  0.8131290E-01
          2   -1    0    0  501    0  0.00000000000E+00  0.00000000000E+00  0.26488656378E+04  0.26488656378E+04  0.00000000000E+00 0.  1.
         -2   -1    0    0    0  501 -0.00000000000E+00 -0.00000000000E+00 -0.11084869694E+04  0.11084869694E+04  0.00000000000E+00 0. -1.
         23    2    1    2    0    0 -0.10055104922E+04  0.55265252642E+02  0.22891293963E+04  0.25024688475E+04  0.90173951631E+02 0.  0.
         11    1    3    3    0    0 -0.49779062754E+03  0.43694126020E+02  0.10313401053E+04  0.11460222940E+04  0.00000000000E+00 0. -1.
        -11    1    3    3    0    0 -0.50771986466E+03  0.11571126622E+02  0.12577892910E+04  0.13564465535E+04  0.00000000000E+00 0.  1.
         22    1    1    2    0    0  0.10055104922E+04 -0.55265252642E+02 -0.74875072789E+03  0.12548837598E+04  0.00000000000E+00 0. -1.
<mgrwt>
<rscale>  0 0.34270880E+04</rscale>
<asrwt>0</asrwt>
<pdfrwt beam="1">  1        2 0.40751779E+00 0.34270880E+04</pdfrwt>
<pdfrwt beam="2">  1       -2 0.17053646E+00 0.34270880E+04</pdfrwt>
<totfact> 0.49720713E-01</totfact>
</mgrwt>
</event>
<event>
 6    1  0.5196787E-004  0.2185405E+04  0.7818608E-02  0.8524528E-01
         -2   -1    0    0    0  501 -0.00000000000E+00  0.00000000000E+00  0.11067181633E+04  0.11067181633E+04  0.00000000000E+00 0. -1.
          2   -1    0    0  501    0  0.00000000000E+00 -0.00000000000E+00 -0.10788643347E+04  0.10788643347E+04  0.00000000000E+00 0.  1.
         23    2    1    2    0    0  0.91670875930E+03  0.53865886850E+03  0.25914525511E+03  0.10974629962E+04  0.82221888124E+02 0.  0.
         11    1    3    3    0    0  0.18849759746E+03  0.10727013402E+03  0.87320056428E+02  0.23380123643E+03  0.00000000000E+00 0.  1.
        -11    1    3    3    0    0  0.72821116184E+03  0.43138873448E+03  0.17182519868E+03  0.86366175982E+03  0.00000000000E+00 0. -1.
         22    1    1    2    0    0 -0.91670875930E+03 -0.53865886850E+03 -0.23129142652E+03  0.10881195017E+04  0.00000000000E+00 0. -1.
<mgrwt>
<rscale>  0 0.21854050E+04</rscale>
<asrwt>0</asrwt>
<pdfrwt beam="1">  1        2 0.16597913E+00 0.21854050E+04</pdfrwt>
<pdfrwt beam="2">  1       -2 0.17026433E+00 0.21854050E+04</pdfrwt>
<totfact> 0.43602455E+00</totfact>
</mgrwt>
</event>
<event>
 6    1  0.5196787E-004  0.3575884E+04  0.7818608E-02  0.8096038E-01
          2   -1    0    0  501    0  0.00000000000E+00  0.00000000000E+00  0.14383947849E+04  0.14383947849E+04  0.00000000000E+00 0.  1.
         -2   -1    0    0    0  501 -0.00000000000E+00 -0.00000000000E+00 -0.22224332180E+04  0.22224332180E+04  0.00000000000E+00 0. -1.
         23    2    1    2    0    0  0.97308523943E+03 -0.20698343207E+03 -0.19117648417E+04  0.21569982662E+04  0.89775754180E+02 0.  0.
         13    1    3    3    0    0  0.36391532866E+03 -0.75197646995E+02 -0.62234607437E+03  0.72484735554E+03  0.00000000000E+00 0. -1.
        -13    1    3    3    0    0  0.60916991077E+03 -0.13178578507E+03 -0.12894187674E+04  0.14321509107E+04  0.00000000000E+00 0.  1.
         22    1    1    2    0    0 -0.97308523943E+03  0.20698343207E+03  0.11277264086E+04  0.15038297367E+04  0.00000000000E+00 0.  1.
<mgrwt>
<rscale>  0 0.35758839E+04</rscale>
<asrwt>0</asrwt>
<pdfrwt beam="1">  1        2 0.22129151E+00 0.35758839E+04</pdfrwt>
<pdfrwt beam="2">  1       -2 0.34191280E+00 0.35758839E+04</pdfrwt>
<totfact> 0.19644877E-01</totfact>
</mgrwt>
</event>
<event>
 6    1  0.5196787E-004  0.2786742E+04  0.7818608E-02  0.8307396E-01
          2   -1    0    0  501    0  0.00000000000E+00  0.00000000000E+00  0.21986220195E+04  0.21986220195E+04  0.00000000000E+00 0.  1.
         -2   -1    0    0    0  501 -0.00000000000E+00 -0.00000000000E+00 -0.88304543262E+03  0.88304543262E+03  0.00000000000E+00 0. -1.
         23    2    1    2    0    0  0.12926814355E+03 -0.11253521039E+04  0.15528933588E+04  0.19243227062E+04  0.91719590650E+02 0.  0.
         11    1    3    3    0    0  0.11531560885E+03 -0.69181572764E+03  0.10044228475E+04  0.12250599770E+04  0.00000000000E+00 0.  1.
        -11    1    3    3    0    0  0.13952534706E+02 -0.43353637624E+03  0.54847051126E+03  0.69926272922E+03  0.00000000000E+00 0. -1.
         22    1    1    2    0    0 -0.12926814355E+03  0.11253521039E+04 -0.23731677190E+03  0.11573447459E+04  0.00000000000E+00 0.  1.
<mgrwt>
<rscale>  0 0.27867423E+04</rscale>
<asrwt>0</asrwt>
<pdfrwt beam="1">  1        2 0.33824954E+00 0.27867423E+04</pdfrwt>
<pdfrwt beam="2">  1       -2 0.13585314E+00 0.27867423E+04</pdfrwt>
<totfact> 0.17492511E+00</totfact>
</mgrwt>
</event>
<event>
 6    1  0.1045747E-003  0.2410126E+04  0.7818608E-02  0.8435722E-01
         -2   -1    0    0    0  501 -0.00000000000E+00  0.00000000000E+00  0.58940390797E+03  0.58940390797E+03  0.00000000000E+00 0. -1.
          2   -1    0    0  501    0  0.00000000000E+00 -0.00000000000E+00 -0.24638061207E+04  0.24638061207E+04  0.00000000000E+00 0.  1.
         23    2    1    2    0    0 -0.33377155246E+03 -0.10964250702E+04 -0.14043748509E+04  0.18144699007E+04  0.80504130340E+02 0.  0.
         13    1    3    3    0    0 -0.16016801213E+03 -0.44719418999E+03 -0.53094166820E+03  0.71241525159E+03  0.00000000000E+00 0.  1.
        -13    1    3    3    0    0 -0.17360354034E+03 -0.64923088018E+03 -0.87343318269E+03  0.11020546491E+04  0.00000000000E+00 0. -1.
         22    1    1    2    0    0  0.33377155246E+03  0.10964250702E+04 -0.47002736183E+03  0.12387401280E+04  0.00000000000E+00 0. -1.
<mgrwt>
<rscale>  0 0.24101261E+04</rscale>
<asrwt>0</asrwt>
<pdfrwt beam="1">  1        2 0.37904710E+00 0.24101261E+04</pdfrwt>
<pdfrwt beam="2">  1       -2 0.90677523E-01 0.24101261E+04</pdfrwt>
<totfact> 0.34087199E+00</totfact>
</mgrwt>
</event>
<event>
 6    1  0.5196787E-004  0.2189624E+04  0.7818608E-02  0.8522759E-01
         -2   -1    0    0    0  501 -0.00000000000E+00  0.00000000000E+00  0.11599900882E+04  0.11599900882E+04  0.00000000000E+00 0. -1.
          2   -1    0    0  501    0  0.00000000000E+00 -0.00000000000E+00 -0.10332957748E+04  0.10332957748E+04  0.00000000000E+00 0.  1.
         23    2    1    2    0    0  0.96066455765E+02  0.96205928701E+03 -0.44681229066E+03  0.10691432294E+04  0.92947222680E+02 0.  0.
         13    1    3    3    0    0  0.78536253355E+02  0.33833551708E+03 -0.15997133082E+03  0.38239991095E+03  0.00000000000E+00 0. -1.
        -13    1    3    3    0    0  0.17530202411E+02  0.62372376993E+03 -0.28684095984E+03  0.68674331844E+03  0.00000000000E+00 0.  1.
         22    1    1    2    0    0 -0.96066455765E+02 -0.96205928701E+03  0.57350660406E+03  0.11241426335E+04  0.00000000000E+00 0. -1.
<mgrwt>
<rscale>  0 0.21896236E+04</rscale>
<asrwt>0</asrwt>
<pdfrwt beam="1">  1        2 0.15896858E+00 0.21896236E+04</pdfrwt>
<pdfrwt beam="2">  1       -2 0.17846001E+00 0.21896236E+04</pdfrwt>
<totfact> 0.40769416E+00</totfact>
</mgrwt>
</event>
<event>
 6    1  0.5196787E-004  0.2750746E+04  0.7818608E-02  0.8318725E-01
          2   -1    0    0  501    0  0.00000000000E+00  0.00000000000E+00  0.30511907133E+04  0.30511907133E+04  0.00000000000E+00 0.  1.
         -2   -1    0    0    0  501 -0.00000000000E+00 -0.00000000000E+00 -0.61997122737E+03  0.61997122737E+03  0.00000000000E+00 0. -1.
         23    2    1    2    0    0 -0.10116902342E+04 -0.89524995114E+03  0.88266125458E+03  0.16161626217E+04  0.88888269891E+02 0.  0.
         13    1    3    3    0    0 -0.65261094795E+03 -0.54257733508E+03  0.59447369953E+03  0.10361902303E+04  0.00000000000E+00 0.  1.
        -13    1    3    3    0    0 -0.35907928626E+03 -0.35267261606E+03  0.28818755506E+03  0.57997239144E+03  0.00000000000E+00 0. -1.
         22    1    1    2    0    0  0.10116902342E+04  0.89524995114E+03  0.15485582314E+04  0.20549993190E+04  0.00000000000E+00 0. -1.
<mgrwt>
<rscale>  0 0.27507457E+04</rscale>
<asrwt>0</asrwt>
<pdfrwt beam="1">  1        2 0.46941395E+00 0.27507457E+04</pdfrwt>
<pdfrwt beam="2">  1       -2 0.95380190E-01 0.27507457E+04</pdfrwt>
<totfact> 0.13035381E+00</totfact>
</mgrwt>
</event>
<event>
 6    1  0.5196787E-004  0.2579215E+04  0.7818608E-02  0.8375296E-01
         -2   -1    0    0    0  501 -0.00000000000E+00  0.00000000000E+00  0.12430743953E+04  0.12430743953E+04  0.00000000000E+00 0. -1.
          2   -1    0    0  501    0  0.00000000000E+00 -0.00000000000E+00 -0.13378821138E+04  0.13378821138E+04  0.00000000000E+00 0.  1.
         23    2    1    2    0    0 -0.89986471330E+03  0.46301434406E+03  0.74982227709E+03  0.12627992291E+04  0.91047574493E+02 0.  0.
         13    1    3    3    0    0 -0.16810338442E+03  0.11650057174E+03  0.12104540417E+03  0.23766177846E+03  0.00000000000E+00 0.  1.
        -13    1    3    3    0    0 -0.73176132888E+03  0.34651377233E+03  0.62877687291E+03  0.10251374507E+04  0.00000000000E+00 0. -1.
         22    1    1    2    0    0  0.89986471330E+03 -0.46301434406E+03 -0.84462999562E+03  0.13181572799E+04  0.00000000000E+00 0.  1.
<mgrwt>
<rscale>  0 0.25792146E+04</rscale>
<asrwt>0</asrwt>
<pdfrwt beam="1">  1        2 0.20582802E+00 0.25792146E+04</pdfrwt>
<pdfrwt beam="2">  1       -2 0.19124222E+00 0.25792146E+04</pdfrwt>
<totfact> 0.21173042E+00</totfact>
</mgrwt>
</event>
<event>
 6    1  0.5196787E-004  0.6469182E+03  0.7818608E-02  0.9812579E-01
          2   -1    0    0  501    0  0.00000000000E+00  0.00000000000E+00  0.21643030995E+04  0.21643030995E+04  0.00000000000E+00 0.  1.
         -2   -1    0    0    0  501 -0.00000000000E+00 -0.00000000000E+00 -0.48341553602E+02  0.48341553602E+02  0.00000000000E+00 0. -1.
         23    2    1    2    0    0 -0.10202983523E+03  0.14229243441E+03  0.19838158657E+04  0.19932826123E+04  0.83623914931E+02 0.  0.
         11    1    3    3    0    0 -0.22457809660E+02  0.87911713346E+02  0.70036122620E+03  0.70621432279E+03  0.00000000000E+00 0. -1.
        -11    1    3    3    0    0 -0.79572025566E+02  0.54380721066E+02  0.12834546395E+04  0.12870682895E+04  0.00000000000E+00 0.  1.
         22    1    1    2    0    0  0.10202983523E+03 -0.14229243441E+03  0.13214568018E+03  0.21936204083E+03  0.00000000000E+00 0. -1.
<mgrwt>
<rscale>  0 0.64691815E+03</rscale>
<asrwt>0</asrwt>
<pdfrwt beam="1">  1        2 0.33296963E+00 0.64691815E+03</pdfrwt>
<pdfrwt beam="2">  1       -2 0.74371638E-02 0.64691815E+03</pdfrwt>
<totfact> 0.61923025E+02</totfact>
</mgrwt>
</event>
<event>
 6    1  0.5196787E-004  0.2694469E+04  0.7818608E-02  0.8336802E-01
         -2   -1    0    0    0  501 -0.00000000000E+00  0.00000000000E+00  0.21755885174E+04  0.21755885174E+04  0.00000000000E+00 0. -1.
          2   -1    0    0  501    0  0.00000000000E+00 -0.00000000000E+00 -0.83427603650E+03  0.83427603650E+03  0.00000000000E+00 0.  1.
         23    2    1    2    0    0  0.12760437186E+04  0.37673215733E+03  0.44649027817E+03  0.14064552285E+04  0.92455670337E+02 0.  0.
         11    1    3    3    0    0  0.69592413008E+03  0.18647852751E+03  0.19698362845E+03  0.74691846003E+03  0.00000000000E+00 0.  1.
        -11    1    3    3    0    0  0.58011958856E+03  0.19025362982E+03  0.24950664973E+03  0.65953676846E+03  0.00000000000E+00 0. -1.
         22    1    1    2    0    0 -0.12760437186E+04 -0.37673215733E+03  0.89482220269E+03  0.16034093254E+04  0.00000000000E+00 0.  1.
<mgrwt>
<rscale>  0 0.26944694E+04</rscale>
<asrwt>0</asrwt>
<pdfrwt beam="1">  1        2 0.12835016E+00 0.26944694E+04</pdfrwt>
<pdfrwt beam="2">  1       -2 0.33470592E+00 0.26944694E+04</pdfrwt>
<totfact> 0.55451825E-01</totfact>
</mgrwt>
</event>
<event>
 6    1  0.5196787E-004  0.4582548E+04  0.7818608E-02  0.7896342E-01
         -2   -1    0    0    0  501 -0.00000000000E+00  0.00000000000E+00  0.12833478401E+04  0.12833478401E+04  0.00000000000E+00 0. -1.
          2   -1    0    0  501    0  0.00000000000E+00 -0.00000000000E+00 -0.40908142913E+04  0.40908142913E+04  0.00000000000E+00 0.  1.
         23    2    1    2    0    0 -0.70670555445E+03 -0.12162018140E+04 -0.35241311752E+04  0.37954956309E+04  0.87789242731E+02 0.  0.
         11    1    3    3    0    0 -0.28244407232E+03 -0.55587579625E+03 -0.14906800028E+04  0.16158277834E+04  0.00000000000E+00 0.  1.
        -11    1    3    3    0    0 -0.42426148214E+03 -0.66032601776E+03 -0.20334511723E+04  0.21796678475E+04  0.00000000000E+00 0. -1.
         22    1    1    2    0    0  0.70670555445E+03  0.12162018140E+04  0.71666472397E+03  0.15786665005E+04  0.00000000000E+00 0. -1.
<mgrwt>
<rscale>  0 0.45825485E+04</rscale>
<asrwt>0</asrwt>
<pdfrwt beam="1">  1        2 0.62935603E+00 0.45825485E+04</pdfrwt>
<pdfrwt beam="2">  1       -2 0.19743813E+00 0.45825485E+04</pdfrwt>
<totfact> 0.29831451E-02</totfact>
</mgrwt>
</event>
<event>
 6    1  0.5196787E-004  0.2602705E+04  0.7818608E-02  0.8367283E-01
         -1   -1    0    0    0  501 -0.00000000000E+00  0.00000000000E+00  0.58089215373E+03  0.58089215373E+03  0.00000000000E+00 0. -1.
          1   -1    0    0  501    0  0.00000000000E+00 -0.00000000000E+00 -0.29153739058E+04  0.29153739058E+04  0.00000000000E+00 0.  1.
         23    2    1    2    0    0  0.79138395828E+03 -0.95379247269E+03 -0.64281019900E+03  0.13991820617E+04  0.92178302864E+02 0.  0.
         13    1    3    3    0    0  0.88098536016E+02 -0.10849952741E+03 -0.40936605404E+02  0.14563414833E+03  0.00000000000E+00 0. -1.
        -13    1    3    3    0    0  0.70328542226E+03 -0.84529294528E+03 -0.60187359360E+03  0.12535479134E+04  0.00000000000E+00 0.  1.
         22    1    1    2    0    0 -0.79138395828E+03  0.95379247269E+03 -0.16916715531E+04  0.20970839978E+04  0.00000000000E+00 0.  1.
<mgrwt>
<rscale>  0 0.26027046E+04</rscale>
<asrwt>0</asrwt>
<pdfrwt beam="1">  1        1 0.44851906E+00 0.26027046E+04</pdfrwt>
<pdfrwt beam="2">  1       -1 0.89368024E-01 0.26027046E+04</pdfrwt>
<totfact> 0.74372082E-01</totfact>
</mgrwt>
</event>
<event>
 6    1  0.5196787E-004  0.1105624E+04  0.7818608E-02  0.9199728E-01
          2   -1    0    0  501    0  0.00000000000E+00  0.00000000000E+00  0.57028785564E+03  0.57028785564E+03  0.00000000000E+00 0. -1.
         -2   -1    0    0    0  501 -0.00000000000E+00 -0.00000000000E+00 -0.53587176557E+03  0.53587176557E+03  0.00000000000E+00 0.  1.
         23    2    1    2    0    0 -0.40332298647E+03  0.35730330524E+03 -0.89789169578E+02  0.55320209131E+03  0.87380635816E+02 0.  0.
         11    1    3    3    0    0 -0.30200991560E+03  0.24356184503E+03 -0.28555452082E+02  0.38903441405E+03  0.00000000000E+00 0.  1.
        -11    1    3    3    0    0 -0.10131307086E+03  0.11374146021E+03 -0.61233717496E+02  0.16416767726E+03  0.00000000000E+00 0. -1.
         22    1    1    2    0    0  0.40332298647E+03 -0.35730330524E+03  0.12420525964E+03  0.55295752989E+03  0.00000000000E+00 0.  1.
<mgrwt>
<rscale>  0 0.11056241E+04</rscale>
<asrwt>0</asrwt>
<pdfrwt beam="1">  1        2 0.87736593E-01 0.11056241E+04</pdfrwt>
<pdfrwt beam="2">  1       -2 0.82441811E-01 0.11056241E+04</pdfrwt>
<totfact> 0.67628849E+01</totfact>
</mgrwt>
</event>
<event>
 6    1  0.5196787E-004  0.1833505E+04  0.7818608E-02  0.8688682E-01
         -2   -1    0    0    0  501 -0.00000000000E+00  0.00000000000E+00  0.81561942111E+03  0.81561942111E+03  0.00000000000E+00 0. -1.
          2   -1    0    0  501    0  0.00000000000E+00 -0.00000000000E+00 -0.10304255795E+04  0.10304255795E+04  0.00000000000E+00 0.  1.
         23    2    1    2    0    0 -0.81756403548E+02  0.90548188150E+03 -0.89135704887E+01  0.91385762403E+03  0.92058448972E+02 0.  0.
         11    1    3    3    0    0 -0.43076301363E+02  0.49172978646E+03 -0.50679806244E+02  0.49620781271E+03  0.00000000000E+00 0. -1.
        -11    1    3    3    0    0 -0.38680102185E+02  0.41375209504E+03  0.41766235755E+02  0.41764981133E+03  0.00000000000E+00 0.  1.
         22    1    1    2    0    0  0.81756403548E+02 -0.90548188150E+03 -0.20589258787E+03  0.93218737654E+03  0.00000000000E+00 0. -1.
<mgrwt>
<rscale>  0 0.18335050E+04</rscale>
<asrwt>0</asrwt>
<pdfrwt beam="1">  1        2 0.15852701E+00 0.18335050E+04</pdfrwt>
<pdfrwt beam="2">  1       -2 0.12547991E+00 0.18335050E+04</pdfrwt>
<totfact> 0.10769776E+01</totfact>
</mgrwt>
</event>
<event>
 6    1  0.5196787E-004  0.2025961E+04  0.7818608E-02  0.8594578E-01
         -2   -1    0    0    0  501 -0.00000000000E+00  0.00000000000E+00  0.61970582003E+03  0.61970582003E+03  0.00000000000E+00 0. -1.
          2   -1    0    0  501    0  0.00000000000E+00 -0.00000000000E+00 -0.16558330453E+04  0.16558330453E+04  0.00000000000E+00 0.  1.
         23    2    1    2    0    0  0.72108579606E+03 -0.70215884630E+03 -0.41244131572E+03  0.10914882395E+04  0.90812814841E+02 0.  0.
         13    1    3    3    0    0  0.23562293768E+03 -0.27685353304E+03 -0.11928144565E+03  0.38261483347E+03  0.00000000000E+00 0. -1.
        -13    1    3    3    0    0  0.48546285838E+03 -0.42530531327E+03 -0.29315987007E+03  0.70887340603E+03  0.00000000000E+00 0.  1.
         22    1    1    2    0    0 -0.72108579606E+03  0.70215884630E+03 -0.62368590951E+03  0.11840506258E+04  0.00000000000E+00 0. -1.
<mgrwt>
<rscale>  0 0.20259609E+04</rscale>
<asrwt>0</asrwt>
<pdfrwt beam="1">  1        2 0.25474354E+00 0.20259609E+04</pdfrwt>
<pdfrwt beam="2">  1       -2 0.95339358E-01 0.20259609E+04</pdfrwt>
<totfact> 0.88938202E+00</totfact>
</mgrwt>
</event>
<event>
 6    1  0.5196787E-004  0.1812760E+04  0.7818608E-02  0.8699543E-01
          2   -1    0    0  501    0  0.00000000000E+00  0.00000000000E+00  0.97931599577E+03  0.97931599577E+03  0.00000000000E+00 0.  1.
         -2   -1    0    0    0  501 -0.00000000000E+00 -0.00000000000E+00 -0.83887595251E+03  0.83887595251E+03  0.00000000000E+00 0. -1.
         23    2    1    2    0    0  0.35403779451E+03 -0.83113477062E+03  0.20478515819E+02  0.90686405178E+03  0.76519748629E+02 0.  0.
         11    1    3    3    0    0  0.16007488703E+03 -0.43559566406E+03 -0.19727433439E+02  0.46449620411E+03  0.00000000000E+00 0. -1.
        -11    1    3    3    0    0  0.19396290747E+03 -0.39553910656E+03  0.40205949258E+02  0.44236784767E+03  0.00000000000E+00 0.  1.
         22    1    1    2    0    0 -0.35403779451E+03  0.83113477062E+03  0.11996152745E+03  0.91132789650E+03  0.00000000000E+00 0. -1.
<mgrwt>
<rscale>  0 0.18127599E+04</rscale>
<asrwt>0</asrwt>
<pdfrwt beam="1">  1        2 0.15066400E+00 0.18127599E+04</pdfrwt>
<pdfrwt beam="2">  1       -2 0.12905784E+00 0.18127599E+04</pdfrwt>
<totfact> 0.10837503E+01</totfact>
</mgrwt>
</event>
<event>
 6    1  0.7632035E-004  0.3726550E+04  0.7818608E-02  0.8062103E-01
         -2   -1    0    0    0  501 -0.00000000000E+00  0.00000000000E+00  0.10177639112E+04  0.10177639112E+04  0.00000000000E+00 0. -1.
          2   -1    0    0  501    0  0.00000000000E+00 -0.00000000000E+00 -0.34111980355E+04  0.34111980355E+04  0.00000000000E+00 0.  1.
         23    2    1    2    0    0  0.85880711228E+02 -0.19913837356E+03 -0.33956275052E+04  0.34035726738E+04  0.83601456541E+02 0.  0.
         11    1    3    3    0    0  0.90479981971E+02 -0.10897379135E+03 -0.19631593117E+04  0.19682622786E+04  0.00000000000E+00 0. -1.
        -11    1    3    3    0    0 -0.45992707436E+01 -0.90164582215E+02 -0.14324681935E+04  0.14353103952E+04  0.00000000000E+00 0.  1.
         22    1    1    2    0    0 -0.85880711228E+02  0.19913837356E+03  0.10021933809E+04  0.10253892730E+04  0.00000000000E+00 0. -1.
<mgrwt>
<rscale>  0 0.37265503E+04</rscale>
<asrwt>0</asrwt>
<pdfrwt beam="1">  1        2 0.52479970E+00 0.37265503E+04</pdfrwt>
<pdfrwt beam="2">  1       -2 0.15657906E+00 0.37265503E+04</pdfrwt>
<totfact> 0.20152749E-01</totfact>
</mgrwt>
</event>
<event>
 6    1  0.5196787E-004  0.3106335E+04  0.7818608E-02  0.8214001E-01
          2   -1    0    0  501    0  0.00000000000E+00  0.00000000000E+00  0.11820737759E+04  0.11820737759E+04  0.00000000000E+00 0.  1.
         -2   -1    0    0    0  501 -0.00000000000E+00 -0.00000000000E+00 -0.20407602623E+04  0.20407602623E+04  0.00000000000E+00 0. -1.
         23    2    1    2    0    0  0.13616658642E+03 -0.48544381705E+03  0.10928914944E+04  0.12071818723E+04  0.93162306606E+02 0.  0.
         11    1    3    3    0    0  0.35084304227E+02 -0.11570272069E+03  0.17738301055E+03  0.21466895540E+03  0.00000000000E+00 0.  1.
        -11    1    3    3    0    0  0.10108228219E+03 -0.36974109636E+03  0.91550848388E+03  0.99251291687E+03  0.00000000000E+00 0. -1.
         22    1    1    2    0    0 -0.13616658642E+03  0.48544381705E+03 -0.19515779809E+04  0.20156521660E+04  0.00000000000E+00 0. -1.
<mgrwt>
<rscale>  0 0.31063349E+04</rscale>
<asrwt>0</asrwt>
<pdfrwt beam="1">  1        2 0.18185750E+00 0.31063349E+04</pdfrwt>
<pdfrwt beam="2">  1       -2 0.31396312E+00 0.31063349E+04</pdfrwt>
<totfact> 0.42975945E-01</totfact>
</mgrwt>
</event>
<event>
 6    1  0.5196787E-004  0.5021699E+04  0.7818608E-02  0.7825169E-01
         -2   -1    0    0    0  501 -0.00000000000E+00  0.00000000000E+00  0.19183446668E+04  0.19183446668E+04  0.00000000000E+00 0. -1.
          2   -1    0    0  501    0  0.00000000000E+00 -0.00000000000E+00 -0.32863575128E+04  0.32863575128E+04  0.00000000000E+00 0.  1.
         23    2    1    2    0    0 -0.18172151859E+04  0.35245192880E+03 -0.24412173533E+04  0.30650149810E+04  0.91001505633E+02 0.  0.
         11    1    3    3    0    0 -0.13439779196E+04  0.22144750600E+03 -0.18130688973E+04  0.22677156948E+04  0.00000000000E+00 0.  1.
        -11    1    3    3    0    0 -0.47323726624E+03  0.13100442281E+03 -0.62814845597E+03  0.79729928615E+03  0.00000000000E+00 0. -1.
         22    1    1    2    0    0  0.18172151859E+04 -0.35245192880E+03  0.10732045073E+04  0.21396871987E+04  0.00000000000E+00 0. -1.
<mgrwt>
<rscale>  0 0.50216995E+04</rscale>
<asrwt>0</asrwt>
<pdfrwt beam="1">  1        2 0.50559346E+00 0.50216995E+04</pdfrwt>
<pdfrwt beam="2">  1       -2 0.29512995E+00 0.50216995E+04</pdfrwt>
<totfact> 0.28105845E-02</totfact>
</mgrwt>
</event>
<event>
 6    1  0.5196787E-004  0.1453127E+04  0.7818608E-02  0.8916235E-01
          2   -1    0    0  501    0  0.00000000000E+00  0.00000000000E+00  0.49880102420E+03  0.49880102420E+03  0.00000000000E+00 0.  1.
         -2   -1    0    0    0  501 -0.00000000000E+00 -0.00000000000E+00 -0.10583272362E+04  0.10583272362E+04  0.00000000000E+00 0. -1.
         23    2    1    2    0    0  0.16732340223E+03  0.70171327376E+03 -0.33845318806E+03  0.80262715276E+03  0.96234849864E+02 0.  0.
         11    1    3    3    0    0  0.10554715155E+03  0.43319527169E+03 -0.15695125888E+03  0.47268598698E+03  0.00000000000E+00 0. -1.
        -11    1    3    3    0    0  0.61776250687E+02  0.26851800207E+03 -0.18150192918E+03  0.32994116578E+03  0.00000000000E+00 0.  1.
         22    1    1    2    0    0 -0.16732340223E+03 -0.70171327376E+03 -0.22107302394E+03  0.75450110764E+03  0.00000000000E+00 0. -1.
<mgrwt>
<rscale>  0 0.14531273E+04</rscale>
<asrwt>0</asrwt>
<pdfrwt beam="1">  1        2 0.76738620E-01 0.14531273E+04</pdfrwt>
<pdfrwt beam="2">  1       -2 0.16281957E+00 0.14531273E+04</pdfrwt>
<totfact> 0.14363102E+01</totfact>
</mgrwt>
</event>
<event>
 6    1  0.5196787E-004  0.3246143E+04  0.7818608E-02  0.8176736E-01
         -4   -1    0    0    0  501 -0.00000000000E+00  0.00000000000E+00  0.19633822812E+04  0.19633822812E+04  0.00000000000E+00 0. -1.
          4   -1    0    0  501    0  0.00000000000E+00 -0.00000000000E+00 -0.13417464106E+04  0.13417464106E+04  0.00000000000E+00 0.  1.
         23    2    1    2    0    0  0.77470019086E+03  0.10466824668E+02 -0.11396299800E+04  0.13809854184E+04  0.89968296893E+02 0.  0.
         11    1    3    3    0    0  0.46390983449E+03  0.32904516248E+02 -0.61922976794E+03  0.77442917509E+03  0.00000000000E+00 0. -1.
        -11    1    3    3    0    0  0.31079035637E+03 -0.22437691579E+02 -0.52040021205E+03  0.60655624333E+03  0.00000000000E+00 0.  1.
         22    1    1    2    0    0 -0.77470019086E+03 -0.10466824668E+02  0.17612658506E+04  0.19241432734E+04  0.00000000000E+00 0. -1.
<mgrwt>
<rscale>  0 0.32461430E+04</rscale>
<asrwt>0</asrwt>
<pdfrwt beam="1">  1        4 0.20642253E+00 0.32461430E+04</pdfrwt>
<pdfrwt beam="2">  1       -4 0.30205881E+00 0.32461430E+04</pdfrwt>
<totfact> 0.59417051E-03</totfact>
</mgrwt>
</event>
<event>
 6    1  0.5196787E-004  0.4032241E+04  0.7818608E-02  0.7998074E-01
          2   -1    0    0  501    0  0.00000000000E+00  0.00000000000E+00  0.42508002126E+04  0.42508002126E+04  0.00000000000E+00 0.  1.
         -2   -1    0    0    0  501 -0.00000000000E+00 -0.00000000000E+00 -0.95622970435E+03  0.95622970435E+03  0.00000000000E+00 0. -1.
         23    2    1    2    0    0 -0.48579889344E+03  0.81557942666E+03 -0.64720161324E+03  0.11525585798E+04  0.91383727290E+02 0.  0.
         11    1    3    3    0    0 -0.26744677389E+03  0.35991455802E+03 -0.30595057145E+03  0.54283700879E+03  0.00000000000E+00 0. -1.
        -11    1    3    3    0    0 -0.21835211954E+03  0.45566486864E+03 -0.34125104179E+03  0.60972157100E+03  0.00000000000E+00 0.  1.
         22    1    1    2    0    0  0.48579889344E+03 -0.81557942666E+03  0.39417721215E+04  0.40544713371E+04  0.00000000000E+00 0.  1.
<mgrwt>
<rscale>  0 0.40322408E+04</rscale>
<asrwt>0</asrwt>
<pdfrwt beam="1">  1        2 0.65396925E+00 0.40322408E+04</pdfrwt>
<pdfrwt beam="2">  1       -2 0.14711226E+00 0.40322408E+04</pdfrwt>
<totfact> 0.51816677E-02</totfact>
</mgrwt>
</event>
<event>
 6    1  0.5196787E-004  0.1297395E+04  0.7818608E-02  0.9031634E-01
          2   -1    0    0  501    0  0.00000000000E+00  0.00000000000E+00  0.14929200759E+04  0.14929200759E+04  0.00000000000E+00 0.  1.
         -2   -1    0    0    0  501 -0.00000000000E+00 -0.00000000000E+00 -0.28186930402E+03  0.28186930402E+03  0.00000000000E+00 0. -1.
         23    2    1    2    0    0  0.28565595942E+03 -0.49252734054E+03  0.19210108794E+03  0.60755291428E+03  0.89639318024E+02 0.  0.
         11    1    3    3    0    0  0.10578068899E+03 -0.26261146682E+03  0.73815170638E+02  0.29257993111E+03  0.00000000000E+00 0. -1.
        -11    1    3    3    0    0  0.17987527043E+03 -0.22991587371E+03  0.11828591730E+03  0.31497298318E+03  0.00000000000E+00 0.  1.
         22    1    1    2    0    0 -0.28565595942E+03  0.49252734054E+03  0.10189496839E+04  0.11672364656E+04  0.00000000000E+00 0. -1.
<mgrwt>
<rscale>  0 0.12973948E+04</rscale>
<asrwt>0</asrwt>
<pdfrwt beam="1">  1        2 0.22968001E+00 0.12973948E+04</pdfrwt>
<pdfrwt beam="2">  1       -2 0.43364509E-01 0.12973948E+04</pdfrwt>
<totfact> 0.63306174E+01</totfact>
</mgrwt>
</event>
<event>
 6    1  0.5196787E-004  0.2106203E+04  0.7818608E-02  0.8558516E-01
          2   -1    0    0  501    0  0.00000000000E+00  0.00000000000E+00  0.76453480365E+03  0.76453480365E+03  0.00000000000E+00 0.  1.
         -2   -1    0    0    0  501 -0.00000000000E+00 -0.00000000000E+00 -0.14505851176E+04  0.14505851176E+04  0.00000000000E+00 0. -1.
         23    2    1    2    0    0 -0.93431350889E+03  0.40602839720E+03 -0.73225990586E+02  0.10262740761E+04  0.10037749408E+03 0.  0.
         13    1    3    3    0    0 -0.71165418068E+02  0.30174558460E+02  0.21110780499E+02  0.80129181703E+02  0.00000000000E+00 0. -1.
        -13    1    3    3    0    0 -0.86314809083E+03  0.37585383874E+03 -0.94336771085E+02  0.94614489439E+03  0.00000000000E+00 0.  1.
         22    1    1    2    0    0  0.93431350889E+03 -0.40602839720E+03 -0.61282432335E+03  0.11888458451E+04  0.00000000000E+00 0. -1.
<mgrwt>
<rscale>  0 0.21062030E+04</rscale>
<asrwt>0</asrwt>
<pdfrwt beam="1">  1        2 0.11762074E+00 0.21062030E+04</pdfrwt>
<pdfrwt beam="2">  1       -2 0.22316694E+00 0.21062030E+04</pdfrwt>
<totfact> 0.31779896E+00</totfact>
</mgrwt>
</event>
<event>
 6    1  0.5196787E-004  0.2082705E+04  0.7818608E-02  0.8568900E-01
          2   -1    0    0  501    0  0.00000000000E+00  0.00000000000E+00  0.14768673791E+04  0.14768673791E+04  0.00000000000E+00 0.  1.
         -2   -1    0    0    0  501 -0.00000000000E+00 -0.00000000000E+00 -0.73426699135E+03  0.73426699135E+03  0.00000000000E+00 0. -1.
         23    2    1    2    0    0 -0.20539289047E+03  0.59413041661E+03 -0.50677169863E+03  0.81252513209E+03  0.90566794917E+02 0.  0.
         11    1    3    3    0    0 -0.47314808765E+02  0.20157092346E+03 -0.12055252358E+03  0.23958806159E+03  0.00000000000E+00 0. -1.
        -11    1    3    3    0    0 -0.15807808170E+03  0.39255949316E+03 -0.38621917504E+03  0.57293707050E+03  0.00000000000E+00 0.  1.
         22    1    1    2    0    0  0.20539289047E+03 -0.59413041661E+03  0.12493720864E+04  0.13986092384E+04  0.00000000000E+00 0.  1.
<mgrwt>
<rscale>  0 0.20827049E+04</rscale>
<asrwt>0</asrwt>
<pdfrwt beam="1">  1        2 0.22721037E+00 0.20827049E+04</pdfrwt>
<pdfrwt beam="2">  1       -2 0.11296415E+00 0.20827049E+04</pdfrwt>
<totfact> 0.74370984E+00</totfact>
</mgrwt>
</event>
<event>
 6    1  0.5196787E-004  0.3065834E+04  0.7818608E-02  0.8225178E-01
         -2   -1    0    0    0  501 -0.00000000000E+00  0.00000000000E+00  0.18759297065E+04  0.18759297065E+04  0.00000000000E+00 0. -1.
          2   -1    0    0  501    0  0.00000000000E+00 -0.00000000000E+00 -0.12526237876E+04  0.12526237876E+04  0.00000000000E+00 0.  1.
         23    2    1    2    0    0  0.51690173872E+03 -0.79416539322E+03  0.15397205669E+04  0.18103342838E+04  0.93191821492E+02 0.  0.
         13    1    3    3    0    0  0.45413221610E+03 -0.72340128356E+03  0.13356094070E+04  0.15853699804E+04  0.00000000000E+00 0.  1.
        -13    1    3    3    0    0  0.62769522618E+02 -0.70764109661E+02  0.20411115994E+03  0.22496430339E+03  0.00000000000E+00 0. -1.
         22    1    1    2    0    0 -0.51690173872E+03  0.79416539322E+03 -0.91641464798E+03  0.13182192103E+04  0.00000000000E+00 0.  1.
<mgrwt>
<rscale>  0 0.30658338E+04</rscale>
<asrwt>0</asrwt>
<pdfrwt beam="1">  1        2 0.19271135E+00 0.30658338E+04</pdfrwt>
<pdfrwt beam="2">  1       -2 0.28860457E+00 0.30658338E+04</pdfrwt>
<totfact> 0.55990931E-01</totfact>
</mgrwt>
</event>
<event>
 6    1  0.5196787E-004  0.8633514E+03  0.7818608E-02  0.9472590E-01
         -2   -1    0    0    0  501 -0.00000000000E+00  0.00000000000E+00  0.33656405149E+03  0.33656405149E+03  0.00000000000E+00 0. -1.
          2   -1    0    0  501    0  0.00000000000E+00 -0.00000000000E+00 -0.55366549628E+03  0.55366549628E+03  0.00000000000E+00 0.  1.
         23    2    1    2    0    0  0.53969691434E+02 -0.41072601911E+02 -0.54473816865E+03  0.55564695849E+03  0.86047567512E+02 0.  0.
         13    1    3    3    0    0 -0.10914974413E+02  0.17665859461E+02 -0.14183465504E+03  0.14334674264E+03  0.00000000000E+00 0. -1.
        -13    1    3    3    0    0  0.64884665847E+02 -0.58738461372E+02 -0.40290351361E+03  0.41230021585E+03  0.00000000000E+00 0.  1.
         22    1    1    2    0    0 -0.53969691434E+02  0.41072601911E+02  0.32763672386E+03  0.33458258927E+03  0.00000000000E+00 0. -1.
<mgrwt>
<rscale>  0 0.86335138E+03</rscale>
<asrwt>0</asrwt>
<pdfrwt beam="1">  1        2 0.85179307E-01 0.86335138E+03</pdfrwt>
<pdfrwt beam="2">  1       -2 0.51779085E-01 0.86335138E+03</pdfrwt>
<totfact> 0.19335542E+02</totfact>
</mgrwt>
</event>
<event>
 6    1  0.5196787E-004  0.3395368E+04  0.7818608E-02  0.8139044E-01
          1   -1    0    0  501    0  0.00000000000E+00  0.00000000000E+00  0.18682484953E+04  0.18682484953E+04  0.00000000000E+00 0.  1.
         -1   -1    0    0    0  501 -0.00000000000E+00 -0.00000000000E+00 -0.15426918489E+04  0.15426918489E+04  0.00000000000E+00 0. -1.
         23    2    1    2    0    0 -0.81056403134E+03  0.13871607621E+03 -0.13277352307E+04  0.15644219366E+04  0.90988759263E+02 0.  0.
         13    1    3    3    0    0 -0.64945966362E+03  0.10155358957E+03 -0.98962919203E+03  0.11880559431E+04  0.00000000000E+00 0. -1.
        -13    1    3    3    0    0 -0.16110436772E+03  0.37162486648E+02 -0.33810603862E+03  0.37636599350E+03  0.00000000000E+00 0.  1.
         22    1    1    2    0    0  0.81056403134E+03 -0.13871607621E+03  0.16532918771E+04  0.18465184076E+04  0.00000000000E+00 0.  1.
<mgrwt>
<rscale>  0 0.33953684E+04</rscale>
<asrwt>0</asrwt>
<pdfrwt beam="1">  1        1 0.28742284E+00 0.33953684E+04</pdfrwt>
<pdfrwt beam="2">  1       -1 0.23733721E+00 0.33953684E+04</pdfrwt>
<totfact> 0.25438754E-01</totfact>
</mgrwt>
</event>
<event>
 6    1  0.5196787E-004  0.1397718E+04  0.7818608E-02  0.8955472E-01
          2   -1    0    0  501    0  0.00000000000E+00  0.00000000000E+00  0.34458981242E+03  0.34458981242E+03  0.00000000000E+00 0.  1.
         -2   -1    0    0    0  501 -0.00000000000E+00 -0.00000000000E+00 -0.14173485563E+04  0.14173485563E+04  0.00000000000E+00 0. -1.
         23    2    1    2    0    0 -0.40987348035E+03  0.16039573996E+03 -0.12180937491E+04  0.12984242622E+04  0.91815683336E+02 0.  0.
         11    1    3    3    0    0 -0.41737365405E+02 -0.75670893671E+01 -0.16210034651E+03  0.16755832074E+03  0.00000000000E+00 0.  1.
        -11    1    3    3    0    0 -0.36813611494E+03  0.16796282933E+03 -0.10559934026E+04  0.11308659414E+04  0.00000000000E+00 0. -1.
         22    1    1    2    0    0  0.40987348035E+03 -0.16039573996E+03  0.14533500517E+03  0.46351410660E+03  0.00000000000E+00 0.  1.
<mgrwt>
<rscale>  0 0.13977180E+04</rscale>
<asrwt>0</asrwt>
<pdfrwt beam="1">  1        2 0.53013818E-01 0.13977180E+04</pdfrwt>
<pdfrwt beam="2">  1       -2 0.21805362E+00 0.13977180E+04</pdfrwt>
<totfact> 0.93045019E+00</totfact>
</mgrwt>
</event>
<event>
 6    1  0.5196787E-004  0.4648230E+04  0.7818608E-02  0.7885188E-01
         -2   -1    0    0    0  501 -0.00000000000E+00  0.00000000000E+00  0.45352081899E+04  0.45352081899E+04  0.00000000000E+00 0. -1.
          2   -1    0    0  501    0  0.00000000000E+00 -0.00000000000E+00 -0.11910170714E+04  0.11910170714E+04  0.00000000000E+00 0.  1.
         23    2    1    2    0    0 -0.13991730762E+04  0.16105528114E+04  0.53967728969E+03  0.22024682504E+04  0.89717120079E+02 0.  0.
         13    1    3    3    0    0 -0.66297775584E+03  0.71320004693E+03  0.21486593045E+03  0.99717660410E+03  0.00000000000E+00 0.  1.
        -13    1    3    3    0    0 -0.73619532035E+03  0.89735276442E+03  0.32481135923E+03  0.12052916463E+04  0.00000000000E+00 0. -1.
         22    1    1    2    0    0  0.13991730762E+04 -0.16105528114E+04  0.28045138288E+04  0.35237570108E+04  0.00000000000E+00 0. -1.
<mgrwt>
<rscale>  0 0.46482299E+04</rscale>
<asrwt>0</asrwt>
<pdfrwt beam="1">  1        2 0.18323340E+00 0.46482299E+04</pdfrwt>
<pdfrwt beam="2">  1       -2 0.69772433E+00 0.46482299E+04</pdfrwt>
<totfact> 0.33463590E-03</totfact>
</mgrwt>
</event>
<event>
 6    1  0.5196787E-004  0.4981886E+04  0.7818608E-02  0.7831307E-01
         -2   -1    0    0    0  501 -0.00000000000E+00  0.00000000000E+00  0.19864468685E+04  0.19864468685E+04  0.00000000000E+00 0. -1.
          2   -1    0    0  501    0  0.00000000000E+00 -0.00000000000E+00 -0.31235660239E+04  0.31235660239E+04  0.00000000000E+00 0.  1.
         23    2    1    2    0    0  0.18523774235E+04  0.52567135136E+03 -0.21882564002E+04  0.29162667822E+04  0.92267995675E+02 0.  0.
         11    1    3    3    0    0  0.70275437096E+03  0.15308955029E+03 -0.81932350064E+03  0.10902252588E+04  0.00000000000E+00 0. -1.
        -11    1    3    3    0    0  0.11496230526E+04  0.37258180107E+03 -0.13689328995E+04  0.18260415233E+04  0.00000000000E+00 0.  1.
         22    1    1    2    0    0 -0.18523774235E+04 -0.52567135136E+03  0.10511372448E+04  0.21937461103E+04  0.00000000000E+00 0. -1.
<mgrwt>
<rscale>  0 0.49818864E+04</rscale>
<asrwt>0</asrwt>
<pdfrwt beam="1">  1        2 0.48054862E+00 0.49818864E+04</pdfrwt>
<pdfrwt beam="2">  1       -2 0.30560721E+00 0.49818864E+04</pdfrwt>
<totfact> 0.31091741E-02</totfact>
</mgrwt>
</event>
<event>
 6    1  0.5196787E-004  0.1731262E+04  0.7818608E-02  0.8743733E-01
         -2   -1    0    0    0  501 -0.00000000000E+00  0.00000000000E+00  0.29214967277E+03  0.29214967277E+03  0.00000000000E+00 0. -1.
          2   -1    0    0  501    0  0.00000000000E+00 -0.00000000000E+00 -0.25648399362E+04  0.25648399362E+04  0.00000000000E+00 0.  1.
         23    2    1    2    0    0  0.66365015291E+02 -0.82019893585E+02 -0.25533575145E+04  0.25571468434E+04  0.90740307544E+02 0.  0.
         11    1    3    3    0    0  0.86795398053E+02 -0.55251293547E+02 -0.21130820678E+04  0.21155854915E+04  0.00000000000E+00 0.  1.
        -11    1    3    3    0    0 -0.20430382763E+02 -0.26768600037E+02 -0.44027544670E+03  0.44156135186E+03  0.00000000000E+00 0. -1.
         22    1    1    2    0    0 -0.66365015291E+02  0.82019893585E+02  0.28066725113E+03  0.29984276555E+03  0.00000000000E+00 0. -1.
<mgrwt>
<rscale>  0 0.17312621E+04</rscale>
<asrwt>0</asrwt>
<pdfrwt beam="1">  1        2 0.39459076E+00 0.17312621E+04</pdfrwt>
<pdfrwt beam="2">  1       -2 0.44946104E-01 0.17312621E+04</pdfrwt>
<totfact> 0.14245425E+01</totfact>
</mgrwt>
</event>
<event>
 6    1  0.5196787E-004  0.3603491E+04  0.7818608E-02  0.8089692E-01
          2   -1    0    0  501    0  0.00000000000E+00  0.00000000000E+00  0.20841924843E+04  0.20841924843E+04  0.00000000000E+00 0.  1.
         -2   -1    0    0    0  501 -0.00000000000E+00 -0.00000000000E+00 -0.15575754117E+04  0.15575754117E+04  0.00000000000E+00 0. -1.
         23    2    1    2    0    0  0.41821909543E+02 -0.13191591729E+04  0.15015117219E+04  0.20009298257E+04  0.85162906152E+02 0.  0.
         11    1    3    3    0    0  0.64770663314E+02 -0.11213546734E+04  0.12624275764E+04  0.16897795501E+04  0.00000000000E+00 0. -1.
        -11    1    3    3    0    0 -0.22948753771E+02 -0.19780449949E+03  0.23908414555E+03  0.31115027554E+03  0.00000000000E+00 0.  1.
         22    1    1    2    0    0 -0.41821909543E+02  0.13191591729E+04 -0.97489464931E+03  0.16408380703E+04  0.00000000000E+00 0. -1.
<mgrwt>
<rscale>  0 0.36034911E+04</rscale>
<asrwt>0</asrwt>
<pdfrwt beam="1">  1        2 0.32064500E+00 0.36034911E+04</pdfrwt>
<pdfrwt beam="2">  1       -2 0.23962699E+00 0.36034911E+04</pdfrwt>
<totfact> 0.36389221E-01</totfact>
</mgrwt>
</event>
<event>
 6    1  0.5196787E-004  0.1582350E+04  0.7818608E-02  0.8831465E-01
          2   -1    0    0  501    0  0.00000000000E+00  0.00000000000E+00  0.14782826194E+04  0.14782826194E+04  0.00000000000E+00 0.  1.
         -2   -1    0    0    0  501 -0.00000000000E+00 -0.00000000000E+00 -0.42343587619E+03  0.42343587619E+03  0.00000000000E+00 0. -1.
         23    2    1    2    0    0  0.52818673704E+03 -0.57871437229E+03  0.41535696307E+03  0.89036359606E+03  0.79588771509E+02 0.  0.
         13    1    3    3    0    0  0.35770312164E+03 -0.38519087150E+03  0.23593397478E+03  0.57618432049E+03  0.00000000000E+00 0. -1.
        -13    1    3    3    0    0  0.17048361540E+03 -0.19352350079E+03  0.17942298829E+03  0.31417927558E+03  0.00000000000E+00 0.  1.
         22    1    1    2    0    0 -0.52818673704E+03  0.57871437229E+03  0.63948978013E+03  0.10113548995E+04  0.00000000000E+00 0.  1.
<mgrwt>
<rscale>  0 0.15823500E+04</rscale>
<asrwt>0</asrwt>
<pdfrwt beam="1">  1        2 0.22742809E+00 0.15823500E+04</pdfrwt>
<pdfrwt beam="2">  1       -2 0.65143981E-01 0.15823500E+04</pdfrwt>
<totfact> 0.27241519E+01</totfact>
</mgrwt>
</event>
<event>
 6    1  0.5196787E-004  0.2820329E+04  0.7818608E-02  0.8296985E-01
          1   -1    0    0  501    0  0.00000000000E+00  0.00000000000E+00  0.16273968986E+04  0.16273968986E+04  0.00000000000E+00 0.  1.
         -1   -1    0    0    0  501 -0.00000000000E+00 -0.00000000000E+00 -0.12219294161E+04  0.12219294161E+04  0.00000000000E+00 0. -1.
         23    2    1    2    0    0 -0.42756539821E+03 -0.12924111814E+04  0.56900414117E+03  0.14782380353E+04  0.91011784519E+02 0.  0.
         11    1    3    3    0    0 -0.18874826787E+02 -0.12645025545E+03  0.70000666154E+02  0.14576014356E+03  0.00000000000E+00 0. -1.
        -11    1    3    3    0    0 -0.40869057142E+03 -0.11659609259E+04  0.49900347502E+03  0.13324778917E+04  0.00000000000E+00 0.  1.
         22    1    1    2    0    0  0.42756539821E+03  0.12924111814E+04 -0.16353665867E+03  0.13710882795E+04  0.00000000000E+00 0.  1.
<mgrwt>
<rscale>  0 0.28203292E+04</rscale>
<asrwt>0</asrwt>
<pdfrwt beam="1">  1        1 0.25036875E+00 0.28203292E+04</pdfrwt>
<pdfrwt beam="2">  1       -1 0.18798914E+00 0.28203292E+04</pdfrwt>
<totfact> 0.84309139E-01</totfact>
</mgrwt>
</event>
<event>
 6    1  0.5196787E-004  0.1944743E+04  0.7818608E-02  0.8632900E-01
          2   -1    0    0  501    0  0.00000000000E+00  0.00000000000E+00  0.66539439708E+03  0.66539439708E+03  0.00000000000E+00 0.  1.
         -2   -1    0    0    0  501 -0.00000000000E+00 -0.00000000000E+00 -0.14209719492E+04  0.14209719492E+04  0.00000000000E+00 0. -1.
         23    2    1    2    0    0  0.61674116620E+02 -0.48527716905E+03 -0.12775447372E+04  0.13710011461E+04  0.90697075325E+02 0.  0.
         11    1    3    3    0    0  0.56027044739E+02 -0.19150097148E+03 -0.60554961916E+03  0.63757508819E+03  0.00000000000E+00 0. -1.
        -11    1    3    3    0    0  0.56470718813E+01 -0.29377619757E+03 -0.67199511804E+03  0.73342605786E+03  0.00000000000E+00 0.  1.
         22    1    1    2    0    0 -0.61674116620E+02  0.48527716905E+03  0.52196718505E+03  0.71536520025E+03  0.00000000000E+00 0.  1.
<mgrwt>
<rscale>  0 0.19447435E+04</rscale>
<asrwt>0</asrwt>
<pdfrwt beam="1">  1        2 0.10236837E+00 0.19447435E+04</pdfrwt>
<pdfrwt beam="2">  1       -2 0.21861107E+00 0.19447435E+04</pdfrwt>
<totfact> 0.41082202E+00</totfact>
</mgrwt>
</event>
<event>
 6    1  0.5196787E-004  0.1774129E+04  0.7818608E-02  0.8720180E-01
          2   -1    0    0  501    0  0.00000000000E+00  0.00000000000E+00  0.28050114440E+04  0.28050114440E+04  0.00000000000E+00 0.  1.
         -2   -1    0    0    0  501 -0.00000000000E+00 -0.00000000000E+00 -0.28052771581E+03  0.28052771581E+03  0.00000000000E+00 0. -1.
         23    2    1    2    0    0 -0.58631666213E+03  0.66010457580E+03  0.13640749103E+04  0.16274397448E+04  0.91402860626E+02 0.  0.
         13    1    3    3    0    0 -0.17200033339E+03  0.23531044988E+03  0.51103247733E+03  0.58831056033E+03  0.00000000000E+00 0.  1.
        -13    1    3    3    0    0 -0.41431632874E+03  0.42479412592E+03  0.85304243292E+03  0.10391291845E+04  0.00000000000E+00 0. -1.
         22    1    1    2    0    0  0.58631666213E+03 -0.66010457580E+03  0.11604088179E+04  0.14580994150E+04  0.00000000000E+00 0.  1.
<mgrwt>
<rscale>  0 0.17741290E+04</rscale>
<asrwt>0</asrwt>
<pdfrwt beam="1">  1        2 0.43154020E+00 0.17741290E+04</pdfrwt>
<pdfrwt beam="2">  1       -2 0.43158112E-01 0.17741290E+04</pdfrwt>
<totfact> 0.11089264E+01</totfact>
</mgrwt>
</event>
<event>
 6    1  0.5196787E-004  0.2606430E+04  0.7818608E-02  0.8366020E-01
          2   -1    0    0  501    0  0.00000000000E+00  0.00000000000E+00  0.12525936268E+04  0.12525936268E+04  0.00000000000E+00 0.  1.
         -2   -1    0    0    0  501 -0.00000000000E+00 -0.00000000000E+00 -0.13558825337E+04  0.13558825337E+04  0.00000000000E+00 0. -1.
         23    2    1    2    0    0  0.34716623435E+03 -0.63067736079E+02  0.12021799810E+04  0.12561629752E+04  0.90591278430E+02 0.  0.
         13    1    3    3    0    0  0.18557033195E+03  0.54236162600E+01  0.69981167323E+03  0.72401805344E+03  0.00000000000E+00 0.  1.
        -13    1    3    3    0    0  0.16159590240E+03 -0.68491352339E+02  0.50236830781E+03  0.53214492172E+03  0.00000000000E+00 0. -1.
         22    1    1    2    0    0 -0.34716623435E+03  0.63067736079E+02 -0.13054688880E+04  0.13523131853E+04  0.00000000000E+00 0. -1.
<mgrwt>
<rscale>  0 0.26064304E+04</rscale>
<asrwt>0</asrwt>
<pdfrwt beam="1">  1        2 0.19270671E+00 0.26064304E+04</pdfrwt>
<pdfrwt beam="2">  1       -2 0.20859731E+00 0.26064304E+04</pdfrwt>
<totfact> 0.18218739E+00</totfact>
</mgrwt>
</event>
<event>
 6    1  0.5196787E-004  0.8321534E+04  0.7818608E-02  0.7454644E-01
         -2   -1    0    0    0  501 -0.00000000000E+00  0.00000000000E+00  0.41881691836E+04  0.41881691836E+04  0.00000000000E+00 0. -1.
          2   -1    0    0  501    0  0.00000000000E+00 -0.00000000000E+00 -0.41335443153E+04  0.41335443153E+04  0.00000000000E+00 0.  1.
         23    2    1    2    0    0 -0.24328642980E+04  0.81565279771E+02 -0.33463392014E+04  0.41393650928E+04  0.10428678555E+03 0.  0.
         11    1    3    3    0    0 -0.96659395149E+03  0.81072215372E+02 -0.13587238824E+04  0.16694331852E+04  0.00000000000E+00 0. -1.
        -11    1    3    3    0    0 -0.14662703465E+04  0.49306439811E+00 -0.19876153189E+04  0.24699319076E+04  0.00000000000E+00 0.  1.
         22    1    1    2    0    0  0.24328642980E+04 -0.81565279771E+02  0.34009640696E+04  0.41823484061E+04  0.00000000000E+00 0. -1.
<mgrwt>
<rscale>  0 0.83215342E+04</rscale>
<asrwt>0</asrwt>
<pdfrwt beam="1">  1        2 0.63592989E+00 0.83215342E+04</pdfrwt>
<pdfrwt beam="2">  1       -2 0.64433372E+00 0.83215342E+04</pdfrwt>
<totfact> 0.54289567E-05</totfact>
</mgrwt>
</event>
<event>
 6    1  0.5196787E-004  0.1986330E+04  0.7818608E-02  0.8613039E-01
         -2   -1    0    0    0  501 -0.00000000000E+00  0.00000000000E+00  0.73326344083E+03  0.73326344083E+03  0.00000000000E+00 0. -1.
          2   -1    0    0  501    0  0.00000000000E+00 -0.00000000000E+00 -0.13451874456E+04  0.13451874456E+04  0.00000000000E+00 0.  1.
         23    2    1    2    0    0  0.54934897426E+03  0.41166197868E+03 -0.10546754639E+04  0.12615795779E+04  0.89402556077E+02 0.  0.
         13    1    3    3    0    0  0.13979114766E+03  0.14044919438E+03 -0.35725800590E+03  0.40853497273E+03  0.00000000000E+00 0. -1.
        -13    1    3    3    0    0  0.40955782659E+03  0.27121278430E+03 -0.69741745795E+03  0.85304460513E+03  0.00000000000E+00 0.  1.
         22    1    1    2    0    0 -0.54934897426E+03 -0.41166197868E+03  0.44275145909E+03  0.81687130855E+03  0.00000000000E+00 0. -1.
<mgrwt>
<rscale>  0 0.19863301E+04</rscale>
<asrwt>0</asrwt>
<pdfrwt beam="1">  1        2 0.20695191E+00 0.19863301E+04</pdfrwt>
<pdfrwt beam="2">  1       -2 0.11280976E+00 0.19863301E+04</pdfrwt>
<totfact> 0.89456565E+00</totfact>
</mgrwt>
</event>
<event>
 6    1  0.5196787E-004  0.1738296E+04  0.7818608E-02  0.8739819E-01
          2   -1    0    0  501    0  0.00000000000E+00  0.00000000000E+00  0.19619238294E+04  0.19619238294E+04  0.00000000000E+00 0.  1.
         -2   -1    0    0    0  501 -0.00000000000E+00 -0.00000000000E+00 -0.38503951826E+03  0.38503951826E+03  0.00000000000E+00 0. -1.
         23    2    1    2    0    0 -0.18043595252E+03  0.84753201784E+03  0.85554369821E+03  0.12194883217E+04  0.65795843784E+02 0.  0.
         11    1    3    3    0    0 -0.64338144875E+02  0.45338334151E+03  0.43774631122E+03  0.63349639638E+03  0.00000000000E+00 0.  1.
        -11    1    3    3    0    0 -0.11609780765E+03  0.39414867632E+03  0.41779738699E+03  0.58599192534E+03  0.00000000000E+00 0. -1.
         22    1    1    2    0    0  0.18043595252E+03 -0.84753201784E+03  0.72134061291E+03  0.11274750259E+04  0.00000000000E+00 0. -1.
<mgrwt>
<rscale>  0 0.17382960E+04</rscale>
<asrwt>0</asrwt>
<pdfrwt beam="1">  1        2 0.30183443E+00 0.17382960E+04</pdfrwt>
<pdfrwt beam="2">  1       -2 0.59236850E-01 0.17382960E+04</pdfrwt>
<totfact> 0.17709824E+01</totfact>
</mgrwt>
</event>
<event>
 6    1  0.5196787E-004  0.1366917E+04  0.7818608E-02  0.8978120E-01
          2   -1    0    0  501    0  0.00000000000E+00  0.00000000000E+00  0.83242887087E+03  0.83242887087E+03  0.00000000000E+00 0.  1.
         -2   -1    0    0    0  501 -0.00000000000E+00 -0.00000000000E+00 -0.56114733798E+03  0.56114733798E+03  0.00000000000E+00 0. -1.
         23    2    1    2    0    0  0.26644475693E+03  0.25958559672E+03  0.71705958933E+03  0.81297689253E+03  0.91539513958E+02 0.  0.
         13    1    3    3    0    0  0.22508088555E+03  0.21987734638E+03  0.66432679067E+03  0.73507655200E+03  0.00000000000E+00 0. -1.
        -13    1    3    3    0    0  0.41363871383E+02  0.39708250336E+02  0.52732798656E+02  0.77900340529E+02  0.00000000000E+00 0.  1.
         22    1    1    2    0    0 -0.26644475693E+03 -0.25958559672E+03 -0.44577805644E+03  0.58059931633E+03  0.00000000000E+00 0. -1.
<mgrwt>
<rscale>  0 0.13669166E+04</rscale>
<asrwt>0</asrwt>
<pdfrwt beam="1">  1        2 0.12806598E+00 0.13669166E+04</pdfrwt>
<pdfrwt beam="2">  1       -2 0.86330360E-01 0.13669166E+04</pdfrwt>
<totfact> 0.37061560E+01</totfact>
</mgrwt>
</event>
<event>
 6    1  0.5196787E-004  0.1879634E+04  0.7818608E-02  0.8665061E-01
         -1   -1    0    0    0  501 -0.00000000000E+00  0.00000000000E+00  0.74894779209E+03  0.74894779209E+03  0.00000000000E+00 0. -1.
          1   -1    0    0  501    0  0.00000000000E+00 -0.00000000000E+00 -0.11793290785E+04  0.11793290785E+04  0.00000000000E+00 0.  1.
         23    2    1    2    0    0  0.73601805946E+03  0.57665317381E+03 -0.14298197103E+03  0.95008985721E+03  0.89305240688E+02 0.  0.
         13    1    3    3    0    0  0.71641738207E+03  0.54169337976E+03 -0.14578898029E+03  0.90991208904E+03  0.00000000000E+00 0. -1.
        -13    1    3    3    0    0  0.19600677392E+02  0.34959794045E+02  0.28070092586E+01  0.40177768167E+02  0.00000000000E+00 0.  1.
         22    1    1    2    0    0 -0.73601805946E+03 -0.57665317381E+03 -0.28739931541E+03  0.97818701342E+03  0.00000000000E+00 0.  1.
<mgrwt>
<rscale>  0 0.18796339E+04</rscale>
<asrwt>0</asrwt>
<pdfrwt beam="1">  1        1 0.18143524E+00 0.18796339E+04</pdfrwt>
<pdfrwt beam="2">  1       -1 0.11522274E+00 0.18796339E+04</pdfrwt>
<totfact> 0.70865993E+00</totfact>
</mgrwt>
</event>
<event>
 6    1  0.5196787E-004  0.1730114E+04  0.7818608E-02  0.8744373E-01
          2   -1    0    0  501    0  0.00000000000E+00  0.00000000000E+00  0.15977343649E+04  0.15977343649E+04  0.00000000000E+00 0.  1.
         -2   -1    0    0    0  501 -0.00000000000E+00 -0.00000000000E+00 -0.46836534675E+03  0.46836534675E+03  0.00000000000E+00 0. -1.
         23    2    1    2    0    0 -0.64894903442E+03  0.37150603064E+03  0.10798334055E+04  0.13166963777E+04  0.92182358950E+02 0.  0.
         11    1    3    3    0    0 -0.46779310497E+03  0.23918591722E+03  0.69490844777E+03  0.87117050159E+03  0.00000000000E+00 0. -1.
        -11    1    3    3    0    0 -0.18115592945E+03  0.13232011342E+03  0.38492495772E+03  0.44552587609E+03  0.00000000000E+00 0.  1.
         22    1    1    2    0    0  0.64894903442E+03 -0.37150603064E+03  0.49535612678E+02  0.74940333399E+03  0.00000000000E+00 0. -1.
<mgrwt>
<rscale>  0 0.17301138E+04</rscale>
<asrwt>0</asrwt>
<pdfrwt beam="1">  1        2 0.24580528E+00 0.17301138E+04</pdfrwt>
<pdfrwt beam="2">  1       -2 0.72056208E-01 0.17301138E+04</pdfrwt>
<totfact> 0.18521262E+01</totfact>
</mgrwt>
</event>
<event>
 6    1  0.5196787E-004  0.1966402E+04  0.7818608E-02  0.8622492E-01
          2   -1    0    0  501    0  0.00000000000E+00  0.00000000000E+00  0.72710236426E+03  0.72710236426E+03  0.00000000000E+00 0.  1.
         -2   -1    0    0    0  501 -0.00000000000E+00 -0.00000000000E+00 -0.13295021497E+04  0.13295021497E+04  0.00000000000E+00 0. -1.
         23    2    1    2    0    0  0.42334836342E+03  0.61321479405E+03 -0.96935136751E+03  0.12259964932E+04  0.90383113986E+02 0.  0.
         11    1    3    3    0    0  0.24139110573E+03  0.27042341629E+03 -0.47420043749E+03  0.59687900359E+03  0.00000000000E+00 0.  1.
        -11    1    3    3    0    0  0.18195725768E+03  0.34279137776E+03 -0.49515093002E+03  0.62911748966E+03  0.00000000000E+00 0. -1.
         22    1    1    2    0    0 -0.42334836342E+03 -0.61321479405E+03  0.36695158209E+03  0.83060802070E+03  0.00000000000E+00 0.  1.
<mgrwt>
<rscale>  0 0.19664019E+04</rscale>
<asrwt>0</asrwt>
<pdfrwt beam="1">  1        2 0.11186190E+00 0.19664019E+04</pdfrwt>
<pdfrwt beam="2">  1       -2 0.20453879E+00 0.19664019E+04</pdfrwt>
<totfact> 0.45140260E+00</totfact>
</mgrwt>
</event>
<event>
 6    1  0.5196787E-004  0.4648018E+04  0.7818608E-02  0.7885224E-01
         -2   -1    0    0    0  501 -0.00000000000E+00  0.00000000000E+00  0.19048404115E+04  0.19048404115E+04  0.00000000000E+00 0. -1.
          2   -1    0    0  501    0  0.00000000000E+00 -0.00000000000E+00 -0.28354173683E+04  0.28354173683E+04  0.00000000000E+00 0.  1.
         23    2    1    2    0    0 -0.14879500258E+04 -0.17744312941E+04 -0.65400312901E+03  0.24080710852E+04  0.92111681322E+02 0.  0.
         11    1    3    3    0    0 -0.66025404582E+03 -0.83225724077E+03 -0.33705986956E+03  0.11145388623E+04  0.00000000000E+00 0.  1.
        -11    1    3    3    0    0 -0.82769597994E+03 -0.94217405334E+03 -0.31694325945E+03  0.12935322229E+04  0.00000000000E+00 0. -1.
         22    1    1    2    0    0  0.14879500258E+04  0.17744312941E+04 -0.27657382779E+03  0.23321866947E+04  0.00000000000E+00 0. -1.
<mgrwt>
<rscale>  0 0.46480179E+04</rscale>
<asrwt>0</asrwt>
<pdfrwt beam="1">  1        2 0.43621806E+00 0.46480179E+04</pdfrwt>
<pdfrwt beam="2">  1       -2 0.29305237E+00 0.46480179E+04</pdfrwt>
<totfact> 0.57738132E-02</totfact>
</mgrwt>
</event>
<event>
 6    1  0.5196787E-004  0.4250763E+04  0.7818608E-02  0.7955786E-01
          2   -1    0    0  501    0  0.00000000000E+00  0.00000000000E+00  0.29700181318E+04  0.29700181318E+04  0.00000000000E+00 0.  1.
         -2   -1    0    0    0  501 -0.00000000000E+00 -0.00000000000E+00 -0.15209491574E+04  0.15209491574E+04  0.00000000000E+00 0. -1.
         23    2    1    2    0    0 -0.29357006288E+03 -0.18950283683E+04  0.16907871860E+04  0.25581601099E+04  0.90032998755E+02 0.  0.
         13    1    3    3    0    0 -0.21338899003E+03 -0.15292827815E+04  0.13962338827E+04  0.20817564079E+04  0.00000000000E+00 0. -1.
        -13    1    3    3    0    0 -0.80181072857E+02 -0.36574558681E+03  0.29455330333E+03  0.47640370194E+03  0.00000000000E+00 0.  1.
         22    1    1    2    0    0  0.29357006288E+03  0.18950283683E+04 -0.24171821160E+03  0.19328071793E+04  0.00000000000E+00 0. -1.
<mgrwt>
<rscale>  0 0.42507630E+04</rscale>
<asrwt>0</asrwt>
<pdfrwt beam="1">  1        2 0.45692587E+00 0.42507630E+04</pdfrwt>
<pdfrwt beam="2">  1       -2 0.23399218E+00 0.42507630E+04</pdfrwt>
<totfact> 0.11340125E-01</totfact>
</mgrwt>
</event>
<event>
 6    1  0.5196787E-004  0.8260293E+03  0.7818608E-02  0.9523087E-01
         -2   -1    0    0    0  501 -0.00000000000E+00  0.00000000000E+00  0.52228749578E+03  0.52228749578E+03  0.00000000000E+00 0. -1.
          2   -1    0    0  501    0  0.00000000000E+00 -0.00000000000E+00 -0.32660383230E+03  0.32660383230E+03  0.00000000000E+00 0.  1.
         23    2    1    2    0    0 -0.34352714435E+03  0.22493847355E+03  0.97976340205E+02  0.42680728809E+03  0.62903753010E+02 0.  0.
         13    1    3    3    0    0 -0.31739386263E+03  0.22407433150E+03  0.97876923733E+02  0.40065953410E+03  0.00000000000E+00 0. -1.
        -13    1    3    3    0    0 -0.26133281723E+02  0.86414205202E+00  0.99416471803E-01  0.26147753990E+02  0.00000000000E+00 0.  1.
         22    1    1    2    0    0  0.34352714435E+03 -0.22493847355E+03  0.97707323271E+02  0.42208403998E+03  0.00000000000E+00 0. -1.
<mgrwt>
<rscale>  0 0.82602929E+03</rscale>
<asrwt>0</asrwt>
<pdfrwt beam="1">  1        2 0.50246743E-01 0.82602929E+03</pdfrwt>
<pdfrwt beam="2">  1       -2 0.80351922E-01 0.82602929E+03</pdfrwt>
<totfact> 0.13759149E+02</totfact>
</mgrwt>
</event>
<event>
 6    1  0.5196787E-004  0.1428864E+04  0.7818608E-02  0.8933187E-01
          1   -1    0    0  501    0  0.00000000000E+00  0.00000000000E+00  0.60934207385E+03  0.60934207385E+03  0.00000000000E+00 0. -1.
         -1   -1    0    0    0  501 -0.00000000000E+00 -0.00000000000E+00 -0.83764588013E+03  0.83764588013E+03  0.00000000000E+00 0.  1.
         23    2    1    2    0    0 -0.40984044537E+02  0.43157159279E+03 -0.68590445711E+03  0.81664512088E+03  0.92252899977E+02 0.  0.
         13    1    3    3    0    0 -0.41013088357E+02  0.13724181799E+03 -0.28863896061E+03  0.32222637944E+03  0.00000000000E+00 0. -1.
        -13    1    3    3    0    0  0.29043820292E-01  0.29432977480E+03 -0.39726549650E+03  0.49441874144E+03  0.00000000000E+00 0.  1.
         22    1    1    2    0    0  0.40984044537E+02 -0.43157159279E+03  0.45760065083E+03  0.63034283311E+03  0.00000000000E+00 0. -1.
<mgrwt>
<rscale>  0 0.14288637E+04</rscale>
<asrwt>0</asrwt>
<pdfrwt beam="1">  1        1 0.93744935E-01 0.14288637E+04</pdfrwt>
<pdfrwt beam="2">  1       -1 0.12886860E+00 0.14288637E+04</pdfrwt>
<totfact> 0.16896175E+01</totfact>
</mgrwt>
</event>
<event>
 6    1  0.5196787E-004  0.2881745E+04  0.7818608E-02  0.8278330E-01
         -2   -1    0    0    0  501 -0.00000000000E+00  0.00000000000E+00  0.26347693035E+04  0.26347693035E+04  0.00000000000E+00 0. -1.
          2   -1    0    0  501    0  0.00000000000E+00 -0.00000000000E+00 -0.78796771967E+03  0.78796771967E+03  0.00000000000E+00 0.  1.
         23    2    1    2    0    0 -0.11312599702E+04  0.88851148869E+03  0.86457632139E+03  0.16809080270E+04  0.93583086938E+02 0.  0.
         11    1    3    3    0    0 -0.71599855450E+03  0.55680902085E+03  0.59710488462E+03  0.10859210188E+04  0.00000000000E+00 0.  1.
        -11    1    3    3    0    0 -0.41526141568E+03  0.33170246784E+03  0.26747143677E+03  0.59498700828E+03  0.00000000000E+00 0. -1.
         22    1    1    2    0    0  0.11312599702E+04 -0.88851148869E+03  0.98222526246E+03  0.17418289962E+04  0.00000000000E+00 0. -1.
<mgrwt>
<rscale>  0 0.28817447E+04</rscale>
<asrwt>0</asrwt>
<pdfrwt beam="1">  1        2 0.12122580E+00 0.28817447E+04</pdfrwt>
<pdfrwt beam="2">  1       -2 0.40534912E+00 0.28817447E+04</pdfrwt>
<totfact> 0.20787564E-01</totfact>
</mgrwt>
</event>
<event>
 6    1  0.5196787E-004  0.1629146E+04  0.7818608E-02  0.8802840E-01
         -2   -1    0    0    0  501 -0.00000000000E+00  0.00000000000E+00  0.16706746657E+03  0.16706746657E+03  0.00000000000E+00 0. -1.
          2   -1    0    0  501    0  0.00000000000E+00 -0.00000000000E+00 -0.39716248065E+04  0.39716248065E+04  0.00000000000E+00 0.  1.
         23    2    1    2    0    0 -0.61550588127E+03  0.30369801996E+03 -0.80546511233E+03  0.10620651967E+04  0.90157959957E+02 0.  0.
         13    1    3    3    0    0 -0.30629496427E+03  0.20050831583E+03 -0.41375978851E+03  0.55246479747E+03  0.00000000000E+00 0.  1.
        -13    1    3    3    0    0 -0.30921091699E+03  0.10318970413E+03 -0.39170532382E+03  0.50960039927E+03  0.00000000000E+00 0. -1.
         22    1    1    2    0    0  0.61550588127E+03 -0.30369801996E+03 -0.29990922276E+04  0.30766270763E+04  0.00000000000E+00 0.  1.
<mgrwt>
<rscale>  0 0.16291462E+04</rscale>
<asrwt>0</asrwt>
<pdfrwt beam="1">  1        2 0.61101915E+00 0.16291462E+04</pdfrwt>
<pdfrwt beam="2">  1       -2 0.25702689E-01 0.16291462E+04</pdfrwt>
<totfact> 0.47960397E+00</totfact>
</mgrwt>
</event>
<event>
 6    1  0.5196787E-004  0.1997590E+04  0.7818608E-02  0.8607748E-01
          2   -1    0    0  501    0  0.00000000000E+00  0.00000000000E+00  0.12262822976E+04  0.12262822976E+04  0.00000000000E+00 0.  1.
         -2   -1    0    0    0  501 -0.00000000000E+00 -0.00000000000E+00 -0.81350909969E+03  0.81350909969E+03  0.00000000000E+00 0. -1.
         23    2    1    2    0    0 -0.17245663588E+03  0.69293270229E+03  0.91684486380E+03  0.11657288907E+04  0.91773205331E+02 0.  0.
         11    1    3    3    0    0 -0.14680374218E+03  0.57863519278E+03  0.70625860598E+03  0.92475469373E+03  0.00000000000E+00 0. -1.
        -11    1    3    3    0    0 -0.25652893699E+02  0.11429750952E+03  0.21058625782E+03  0.24097419700E+03  0.00000000000E+00 0.  1.
         22    1    1    2    0    0  0.17245663588E+03 -0.69293270229E+03 -0.50407166585E+03  0.87406250662E+03  0.00000000000E+00 0. -1.
<mgrwt>
<rscale>  0 0.19975904E+04</rscale>
<asrwt>0</asrwt>
<pdfrwt beam="1">  1        2 0.18865881E+00 0.19975904E+04</pdfrwt>
<pdfrwt beam="2">  1       -2 0.12515525E+00 0.19975904E+04</pdfrwt>
<totfact> 0.81159413E+00</totfact>
</mgrwt>
</event>
<event>
 6    1  0.5196787E-004  0.2484625E+04  0.7818608E-02  0.8408484E-01
          1   -1    0    0  501    0  0.00000000000E+00  0.00000000000E+00  0.10922404110E+04  0.10922404110E+04  0.00000000000E+00 0.  1.
         -1   -1    0    0    0  501 -0.00000000000E+00 -0.00000000000E+00 -0.14130037913E+04  0.14130037913E+04  0.00000000000E+00 0. -1.
         23    2    1    2    0    0 -0.74472314194E+03  0.82066483802E+03 -0.72300126377E+03  0.13263045731E+04  0.90827631803E+02 0.  0.
         11    1    3    3    0    0 -0.55580856539E+03  0.59513347626E+03 -0.48427137574E+03  0.94743114857E+03  0.00000000000E+00 0. -1.
        -11    1    3    3    0    0 -0.18891457655E+03  0.22553136176E+03 -0.23872988803E+03  0.37887342452E+03  0.00000000000E+00 0.  1.
         22    1    1    2    0    0  0.74472314194E+03 -0.82066483802E+03  0.40223788344E+03  0.11789396292E+04  0.00000000000E+00 0.  1.
<mgrwt>
<rscale>  0 0.24846246E+04</rscale>
<asrwt>0</asrwt>
<pdfrwt beam="1">  1        1 0.16803699E+00 0.24846246E+04</pdfrwt>
<pdfrwt beam="2">  1       -1 0.21738520E+00 0.24846246E+04</pdfrwt>
<totfact> 0.13099969E+00</totfact>
</mgrwt>
</event>
<event>
 6    1  0.5388983E-004  0.2502441E+04  0.7818608E-02  0.8402116E-01
          2   -1    0    0  501    0  0.00000000000E+00  0.00000000000E+00  0.14952239528E+04  0.14952239528E+04  0.00000000000E+00 0.  1.
         -2   -1    0    0    0  501 -0.00000000000E+00 -0.00000000000E+00 -0.10470355692E+04  0.10470355692E+04  0.00000000000E+00 0. -1.
         23    2    1    2    0    0  0.41894724154E+03  0.37711249077E+03  0.13572740342E+04  0.14726019403E+04  0.92914201119E+02 0.  0.
         13    1    3    3    0    0  0.18484707574E+03  0.14050330985E+03  0.66729679067E+03  0.70653706791E+03  0.00000000000E+00 0. -1.
        -13    1    3    3    0    0  0.23410016580E+03  0.23660918092E+03  0.68997724354E+03  0.76606487240E+03  0.00000000000E+00 0.  1.
         22    1    1    2    0    0 -0.41894724154E+03 -0.37711249077E+03 -0.90908565062E+03  0.10696575817E+04  0.00000000000E+00 0. -1.
<mgrwt>
<rscale>  0 0.25024409E+04</rscale>
<asrwt>0</asrwt>
<pdfrwt beam="1">  1        2 0.23003446E+00 0.25024409E+04</pdfrwt>
<pdfrwt beam="2">  1       -2 0.16108239E+00 0.25024409E+04</pdfrwt>
<totfact> 0.28171093E+00</totfact>
</mgrwt>
</event>
<event>
 6    1  0.5196787E-004  0.2483996E+04  0.7818608E-02  0.8408709E-01
         -2   -1    0    0    0  501 -0.00000000000E+00  0.00000000000E+00  0.50036040168E+03  0.50036040168E+03  0.00000000000E+00 0. -1.
          2   -1    0    0  501    0  0.00000000000E+00 -0.00000000000E+00 -0.30828968265E+04  0.30828968265E+04  0.00000000000E+00 0.  1.
         23    2    1    2    0    0  0.73175899896E+03 -0.45796900875E+03 -0.25778242589E+04  0.27199907282E+04  0.89245763494E+02 0.  0.
         13    1    3    3    0    0  0.25284919899E+03 -0.12623523729E+03 -0.94466882780E+03  0.98603612854E+03  0.00000000000E+00 0. -1.
        -13    1    3    3    0    0  0.47890979997E+03 -0.33173377146E+03 -0.16331554311E+04  0.17339545997E+04  0.00000000000E+00 0.  1.
         22    1    1    2    0    0 -0.73175899896E+03  0.45796900875E+03 -0.47121659684E+01  0.86326650001E+03  0.00000000000E+00 0. -1.
<mgrwt>
<rscale>  0 0.24839964E+04</rscale>
<asrwt>0</asrwt>
<pdfrwt beam="1">  1        2 0.47429180E+00 0.24839964E+04</pdfrwt>
<pdfrwt beam="2">  1       -2 0.76978526E-01 0.24839964E+04</pdfrwt>
<totfact> 0.20774296E+00</totfact>
</mgrwt>
</event>
<event>
 6    1  0.5196787E-004  0.2288583E+04  0.7818608E-02  0.8482436E-01
          2   -1    0    0  501    0  0.00000000000E+00  0.00000000000E+00  0.21833099497E+04  0.21833099497E+04  0.00000000000E+00 0.  1.
         -2   -1    0    0    0  501 -0.00000000000E+00 -0.00000000000E+00 -0.59973314665E+03  0.59973314665E+03  0.00000000000E+00 0. -1.
         23    2    1    2    0    0  0.33993874279E+03  0.55301462296E+03 -0.35026107275E+03  0.74316259693E+03  0.90687950336E+02 0.  0.
         13    1    3    3    0    0  0.16246326155E+03  0.20939291277E+03 -0.18137253558E+03  0.32114747381E+03  0.00000000000E+00 0. -1.
        -13    1    3    3    0    0  0.17747548123E+03  0.34362171019E+03 -0.16888853717E+03  0.42201512312E+03  0.00000000000E+00 0.  1.
         22    1    1    2    0    0 -0.33993874279E+03 -0.55301462296E+03  0.19338378758E+04  0.20398804994E+04  0.00000000000E+00 0.  1.
<mgrwt>
<rscale>  0 0.22885833E+04</rscale>
<asrwt>0</asrwt>
<pdfrwt beam="1">  1        2 0.33589383E+00 0.22885833E+04</pdfrwt>
<pdfrwt beam="2">  1       -2 0.92266640E-01 0.22885833E+04</pdfrwt>
<totfact> 0.47764717E+00</totfact>
</mgrwt>
</event>
<event>
 6    1  0.5196787E-004  0.2476950E+04  0.7818608E-02  0.8411244E-01
         -2   -1    0    0    0  501 -0.00000000000E+00  0.00000000000E+00  0.12519968186E+04  0.12519968186E+04  0.00000000000E+00 0. -1.
          2   -1    0    0  501    0  0.00000000000E+00 -0.00000000000E+00 -0.12250987327E+04  0.12250987327E+04  0.00000000000E+00 0.  1.
         23    2    1    2    0    0 -0.16308756472E+03  0.38188909796E+03 -0.11515797784E+04  0.12275968865E+04  0.91767602351E+02 0.  0.
         11    1    3    3    0    0 -0.16410750370E+03  0.37997196751E+03 -0.10893578112E+04  0.11653370369E+04  0.00000000000E+00 0. -1.
        -11    1    3    3    0    0  0.10199389804E+01  0.19171304462E+01 -0.62221967221E+02  0.62259849578E+02  0.00000000000E+00 0.  1.
         22    1    1    2    0    0  0.16308756472E+03 -0.38188909796E+03  0.11784778643E+04  0.12494986649E+04  0.00000000000E+00 0. -1.
<mgrwt>
<rscale>  0 0.24769495E+04</rscale>
<asrwt>0</asrwt>
<pdfrwt beam="1">  1        2 0.18847673E+00 0.24769495E+04</pdfrwt>
<pdfrwt beam="2">  1       -2 0.19261489E+00 0.24769495E+04</pdfrwt>
<totfact> 0.24342876E+00</totfact>
</mgrwt>
</event>
<event>
 6    1  0.5196787E-004  0.4682262E+04  0.7818608E-02  0.7879483E-01
         -2   -1    0    0    0  501 -0.00000000000E+00  0.00000000000E+00  0.19443426366E+04  0.19443426366E+04  0.00000000000E+00 0. -1.
          2   -1    0    0  501    0  0.00000000000E+00 -0.00000000000E+00 -0.28188932266E+04  0.28188932266E+04  0.00000000000E+00 0.  1.
         23    2    1    2    0    0  0.10971531377E+03 -0.12693372229E+04  0.15595219122E+04  0.20158801562E+04  0.91704819251E+02 0.  0.
         13    1    3    3    0    0  0.23219662768E+01 -0.32281040974E+03  0.34749481143E+03  0.47430432861E+03  0.00000000000E+00 0. -1.
        -13    1    3    3    0    0  0.10739334749E+03 -0.94652681318E+03  0.12120271007E+04  0.15415758275E+04  0.00000000000E+00 0.  1.
         22    1    1    2    0    0 -0.10971531377E+03  0.12693372229E+04 -0.24340725022E+04  0.27473557071E+04  0.00000000000E+00 0.  1.
<mgrwt>
<rscale>  0 0.46822620E+04</rscale>
<asrwt>0</asrwt>
<pdfrwt beam="1">  1        2 0.43367588E+00 0.46822620E+04</pdfrwt>
<pdfrwt beam="2">  1       -2 0.29912964E+00 0.46822620E+04</pdfrwt>
<totfact> 0.54094367E-02</totfact>
</mgrwt>
</event>
<event>
 6    1  0.5196787E-004  0.1961164E+04  0.7818608E-02  0.8624996E-01
         -2   -1    0    0    0  501 -0.00000000000E+00  0.00000000000E+00  0.11237998871E+04  0.11237998871E+04  0.00000000000E+00 0. -1.
          2   -1    0    0  501    0  0.00000000000E+00 -0.00000000000E+00 -0.85561558185E+03  0.85561558185E+03  0.00000000000E+00 0.  1.
         23    2    1    2    0    0  0.24710503613E+03  0.90205874781E+03  0.42341008681E+03  0.10313300685E+04  0.97952667941E+02 0.  0.
         11    1    3    3    0    0  0.15845173277E+03  0.42132413753E+03  0.17458117091E+03  0.48280385844E+03  0.00000000000E+00 0. -1.
        -11    1    3    3    0    0  0.88653303353E+02  0.48073461028E+03  0.24882891590E+03  0.54852621004E+03  0.00000000000E+00 0.  1.
         22    1    1    2    0    0 -0.24710503613E+03 -0.90205874781E+03 -0.15522578153E+03  0.94808540050E+03  0.00000000000E+00 0.  1.
<mgrwt>
<rscale>  0 0.19611636E+04</rscale>
<asrwt>0</asrwt>
<pdfrwt beam="1">  1        2 0.13163317E+00 0.19611636E+04</pdfrwt>
<pdfrwt beam="2">  1       -2 0.17289229E+00 0.19611636E+04</pdfrwt>
<totfact> 0.59574301E+00</totfact>
</mgrwt>
</event>
<event>
 6    1  0.5196787E-004  0.1507759E+04  0.7818608E-02  0.8879310E-01
         -2   -1    0    0    0  501 -0.00000000000E+00  0.00000000000E+00  0.82511248695E+03  0.82511248695E+03  0.00000000000E+00 0. -1.
          2   -1    0    0  501    0  0.00000000000E+00 -0.00000000000E+00 -0.68879620607E+03  0.68879620607E+03  0.00000000000E+00 0.  1.
         23    2    1    2    0    0  0.24108116154E+03 -0.19155884769E+03 -0.61948826311E+03  0.69778650407E+03  0.91243512409E+02 0.  0.
         11    1    3    3    0    0  0.19447127730E+03 -0.18201746245E+03 -0.46218382385E+03  0.53344476880E+03  0.00000000000E+00 0. -1.
        -11    1    3    3    0    0  0.46609884236E+02 -0.95413852397E+01 -0.15730443927E+03  0.16434173528E+03  0.00000000000E+00 0.  1.
         22    1    1    2    0    0 -0.24108116154E+03  0.19155884769E+03  0.75580454399E+03  0.81612218895E+03  0.00000000000E+00 0. -1.
<mgrwt>
<rscale>  0 0.15077591E+04</rscale>
<asrwt>0</asrwt>
<pdfrwt beam="1">  1        2 0.10596865E+00 0.15077591E+04</pdfrwt>
<pdfrwt beam="2">  1       -2 0.12694038E+00 0.15077591E+04</pdfrwt>
<totfact> 0.18620994E+01</totfact>
</mgrwt>
</event>
<event>
 6    1  0.5196787E-004  0.1749081E+04  0.7818608E-02  0.8733856E-01
          2   -1    0    0  501    0  0.00000000000E+00  0.00000000000E+00  0.25549561863E+04  0.25549561863E+04  0.00000000000E+00 0.  1.
         -2   -1    0    0    0  501 -0.00000000000E+00 -0.00000000000E+00 -0.29934798808E+03  0.29934798808E+03  0.00000000000E+00 0. -1.
         23    2    1    2    0    0  0.31608098507E+03  0.60085171146E+03  0.20242904636E+04  0.21370609362E+04  0.91365178098E+02 0.  0.
         11    1    3    3    0    0  0.80805531589E+02  0.24625555703E+03  0.79780948729E+03  0.83885118544E+03  0.00000000000E+00 0.  1.
        -11    1    3    3    0    0  0.23527545348E+03  0.35459615443E+03  0.12264809763E+04  0.12982097508E+04  0.00000000000E+00 0. -1.
         22    1    1    2    0    0 -0.31608098507E+03 -0.60085171146E+03  0.23131773455E+03  0.71724323810E+03  0.00000000000E+00 0. -1.
<mgrwt>
<rscale>  0 0.17490809E+04</rscale>
<asrwt>0</asrwt>
<pdfrwt beam="1">  1        2 0.39307017E+00 0.17490809E+04</pdfrwt>
<pdfrwt beam="2">  1       -2 0.46053538E-01 0.17490809E+04</pdfrwt>
<totfact> 0.13726738E+01</totfact>
</mgrwt>
</event>
<event>
 6    1  0.5196787E-004  0.1114682E+04  0.7818608E-02  0.9190999E-01
          2   -1    0    0  501    0  0.00000000000E+00  0.00000000000E+00  0.69038595252E+03  0.69038595252E+03  0.00000000000E+00 0.  1.
         -2   -1    0    0    0  501 -0.00000000000E+00 -0.00000000000E+00 -0.44993522763E+03  0.44993522763E+03  0.00000000000E+00 0. -1.
         23    2    1    2    0    0  0.41180891742E+03 -0.11743207660E+03  0.48001707767E+03  0.64963908911E+03  0.90761633799E+02 0.  0.
         13    1    3    3    0    0  0.29545442724E+03 -0.11742020464E+03  0.31352490864E+03  0.44651841101E+03  0.00000000000E+00 0. -1.
        -13    1    3    3    0    0  0.11635449018E+03 -0.11871964388E-01  0.16649216902E+03  0.20312067810E+03  0.00000000000E+00 0.  1.
         22    1    1    2    0    0 -0.41180891742E+03  0.11743207660E+03 -0.23956635278E+03  0.49068209104E+03  0.00000000000E+00 0. -1.
<mgrwt>
<rscale>  0 0.11146819E+04</rscale>
<asrwt>0</asrwt>
<pdfrwt beam="1">  1        2 0.10621322E+00 0.11146819E+04</pdfrwt>
<pdfrwt beam="2">  1       -2 0.69220805E-01 0.11146819E+04</pdfrwt>
<totfact> 0.78839164E+01</totfact>
</mgrwt>
</event>
<event>
 6    1  0.5196787E-004  0.2688290E+04  0.7818608E-02  0.8338814E-01
         -2   -1    0    0    0  501 -0.00000000000E+00  0.00000000000E+00  0.15693105250E+04  0.15693105250E+04  0.00000000000E+00 0.  1.
          2   -1    0    0  501    0  0.00000000000E+00 -0.00000000000E+00 -0.11512865410E+04  0.11512865410E+04  0.00000000000E+00 0. -1.
         23    2    1    2    0    0 -0.54312666015E+03 -0.10651307694E+04  0.82734811660E+03  0.14568580224E+04  0.91870923029E+02 0.  0.
         13    1    3    3    0    0 -0.35270967716E+03 -0.61790416767E+03  0.52801007237E+03  0.88600469147E+03  0.00000000000E+00 0. -1.
        -13    1    3    3    0    0 -0.19041698299E+03 -0.44722660174E+03  0.29933804423E+03  0.57085333094E+03  0.00000000000E+00 0.  1.
         22    1    1    2    0    0  0.54312666015E+03  0.10651307694E+04 -0.40932413255E+03  0.12637390436E+04  0.00000000000E+00 0. -1.
<mgrwt>
<rscale>  0 0.26882902E+04</rscale>
<asrwt>0</asrwt>
<pdfrwt beam="1">  1        2 0.17712101E+00 0.26882902E+04</pdfrwt>
<pdfrwt beam="2">  1       -2 0.24143239E+00 0.26882902E+04</pdfrwt>
<totfact> 0.12915597E+00</totfact>
</mgrwt>
</event>
<event>
 6    1  0.5196787E-004  0.2181324E+04  0.7818608E-02  0.8526242E-01
          2   -1    0    0  501    0  0.00000000000E+00  0.00000000000E+00  0.23230426265E+04  0.23230426265E+04  0.00000000000E+00 0.  1.
         -2   -1    0    0    0  501 -0.00000000000E+00 -0.00000000000E+00 -0.51206286310E+03  0.51206286310E+03  0.00000000000E+00 0. -1.
         23    2    1    2    0    0 -0.82213661997E+03  0.29646515250E+03  0.17507460839E+04  0.19590756358E+04  0.95211805962E+02 0.  0.
         11    1    3    3    0    0 -0.43450033822E+03  0.11184255896E+03  0.84544747975E+03  0.95712107015E+03  0.00000000000E+00 0. -1.
        -11    1    3    3    0    0 -0.38763628175E+03  0.18462259354E+03  0.90529860414E+03  0.10019545657E+04  0.00000000000E+00 0.  1.
         22    1    1    2    0    0  0.82213661997E+03 -0.29646515250E+03  0.60233679480E+02  0.87602985377E+03  0.00000000000E+00 0. -1.
<mgrwt>
<rscale>  0 0.21813242E+04</rscale>
<asrwt>0</asrwt>
<pdfrwt beam="1">  1        2 0.35739117E+00 0.21813242E+04</pdfrwt>
<pdfrwt beam="2">  1       -2 0.78778903E-01 0.21813242E+04</pdfrwt>
<totfact> 0.57619651E+00</totfact>
</mgrwt>
</event>
<event>
 6    1  0.5196787E-004  0.2425029E+04  0.7818608E-02  0.8430192E-01
          2   -1    0    0  501    0  0.00000000000E+00  0.00000000000E+00  0.18378039215E+04  0.18378039215E+04  0.00000000000E+00 0.  1.
         -2   -1    0    0    0  501 -0.00000000000E+00 -0.00000000000E+00 -0.79997213127E+03  0.79997213127E+03  0.00000000000E+00 0. -1.
         23    2    1    2    0    0  0.28120720926E+03  0.36265040828E+03 -0.69911811758E+03  0.84122719583E+03  0.91127600161E+02 0.  0.
         13    1    3    3    0    0  0.23541814428E+03  0.25014082550E+03 -0.47330252232E+03  0.58481399853E+03  0.00000000000E+00 0. -1.
        -13    1    3    3    0    0  0.45789064980E+02  0.11250958278E+03 -0.22581559526E+03  0.25641319730E+03  0.00000000000E+00 0.  1.
         22    1    1    2    0    0 -0.28120720926E+03 -0.36265040828E+03  0.17369499078E+04  0.17965488570E+04  0.00000000000E+00 0.  1.
<mgrwt>
<rscale>  0 0.24250294E+04</rscale>
<asrwt>0</asrwt>
<pdfrwt beam="1">  1        2 0.28273906E+00 0.24250294E+04</pdfrwt>
<pdfrwt beam="2">  1       -2 0.12307264E+00 0.24250294E+04</pdfrwt>
<totfact> 0.36785030E+00</totfact>
</mgrwt>
</event>
<event>
 6    1  0.5196787E-004  0.3189150E+03  0.7818608E-02  0.1076150E+00
         -2   -1    0    0    0  501 -0.00000000000E+00  0.00000000000E+00  0.45814018580E+02  0.45814018580E+02  0.00000000000E+00 0. -1.
          2   -1    0    0  501    0  0.00000000000E+00 -0.00000000000E+00 -0.55499822180E+03  0.55499822180E+03  0.00000000000E+00 0.  1.
         23    2    1    2    0    0 -0.11999567753E+03  0.34094329911E+02 -0.13071869335E+03  0.20231816499E+03  0.91015807072E+02 0.  0.
         11    1    3    3    0    0 -0.12304245108E+03  0.46257097527E+02 -0.13560658504E+03  0.18886055635E+03  0.00000000000E+00 0. -1.
        -11    1    3    3    0    0  0.30467735554E+01 -0.12162767616E+02  0.48878916859E+01  0.13457608640E+02  0.00000000000E+00 0.  1.
         22    1    1    2    0    0  0.11999567753E+03 -0.34094329911E+02 -0.37846550987E+03  0.39849407539E+03  0.00000000000E+00 0.  1.
<mgrwt>
<rscale>  0 0.31891503E+03</rscale>
<asrwt>0</asrwt>
<pdfrwt beam="1">  1        2 0.85384341E-01 0.31891503E+03</pdfrwt>
<pdfrwt beam="2">  1       -2 0.70483106E-02 0.31891503E+03</pdfrwt>
<totfact> 0.63779110E+03</totfact>
</mgrwt>
</event>
<event>
 6    1  0.5196787E-004  0.2262217E+04  0.7818608E-02  0.8492969E-01
          2   -1    0    0  501    0  0.00000000000E+00  0.00000000000E+00  0.25524566508E+04  0.25524566508E+04  0.00000000000E+00 0.  1.
         -2   -1    0    0    0  501 -0.00000000000E+00 -0.00000000000E+00 -0.50124529217E+03  0.50124529217E+03  0.00000000000E+00 0. -1.
         23    2    1    2    0    0 -0.18203618601E+03 -0.11126139891E+04  0.11173258609E+04  0.15897384241E+04  0.88340907022E+02 0.  0.
         11    1    3    3    0    0 -0.32437297545E+02 -0.28125176613E+03  0.23147969040E+03  0.36570149206E+03  0.00000000000E+00 0.  1.
        -11    1    3    3    0    0 -0.14959888847E+03 -0.83136222296E+03  0.88584617049E+03  0.12240369320E+04  0.00000000000E+00 0. -1.
         22    1    1    2    0    0  0.18203618601E+03  0.11126139891E+04  0.93388549779E+03  0.14639635189E+04  0.00000000000E+00 0.  1.
<mgrwt>
<rscale>  0 0.22622174E+04</rscale>
<asrwt>0</asrwt>
<pdfrwt beam="1">  1        2 0.39268563E+00 0.22622174E+04</pdfrwt>
<pdfrwt beam="2">  1       -2 0.77114662E-01 0.22622174E+04</pdfrwt>
<totfact> 0.44294059E+00</totfact>
</mgrwt>
</event>
<event>
 6    1  0.5196787E-004  0.3044027E+04  0.7818608E-02  0.8231269E-01
         -4   -1    0    0    0  501 -0.00000000000E+00  0.00000000000E+00  0.32429269176E+04  0.32429269176E+04  0.00000000000E+00 0. -1.
          4   -1    0    0  501    0  0.00000000000E+00 -0.00000000000E+00 -0.71433138764E+03  0.71433138764E+03  0.00000000000E+00 0.  1.
         23    2    1    2    0    0  0.70596552708E+03 -0.10948476579E+04  0.22851384592E+04  0.26319847241E+04  0.91690191156E+02 0.  0.
         13    1    3    3    0    0  0.26404788836E+03 -0.47750526066E+03  0.10087094277E+04  0.11468335846E+04  0.00000000000E+00 0.  1.
        -13    1    3    3    0    0  0.44191763873E+03 -0.61734239722E+03  0.12764290315E+04  0.14851511395E+04  0.00000000000E+00 0. -1.
         22    1    1    2    0    0 -0.70596552708E+03  0.10948476579E+04  0.24345707077E+03  0.13252735811E+04  0.00000000000E+00 0.  1.
<mgrwt>
<rscale>  0 0.30440266E+04</rscale>
<asrwt>0</asrwt>
<pdfrwt beam="1">  1        4 0.10989714E+00 0.30440266E+04</pdfrwt>
<pdfrwt beam="2">  1       -4 0.49891183E+00 0.30440266E+04</pdfrwt>
<totfact> 0.13682342E-03</totfact>
</mgrwt>
</event>
<event>
 6    1  0.5196787E-004  0.2711871E+04  0.7818608E-02  0.8331163E-01
          2   -1    0    0  501    0  0.00000000000E+00  0.00000000000E+00  0.13794328712E+04  0.13794328712E+04  0.00000000000E+00 0.  1.
         -2   -1    0    0    0  501 -0.00000000000E+00 -0.00000000000E+00 -0.13328385969E+04  0.13328385969E+04  0.00000000000E+00 0. -1.
         23    2    1    2    0    0 -0.16071582930E+03  0.44239796559E+03 -0.12467665911E+04  0.13359256300E+04  0.93406736067E+02 0.  0.
         13    1    3    3    0    0 -0.16575350842E+03  0.37917035881E+03 -0.11237085485E+04  0.11974828969E+04  0.00000000000E+00 0. -1.
        -13    1    3    3    0    0  0.50376791149E+01  0.63227606776E+02 -0.12305804264E+03  0.13844273303E+03  0.00000000000E+00 0.  1.
         22    1    1    2    0    0  0.16071582930E+03 -0.44239796559E+03  0.12933608654E+04  0.13763458381E+04  0.00000000000E+00 0.  1.
<mgrwt>
<rscale>  0 0.27118712E+04</rscale>
<asrwt>0</asrwt>
<pdfrwt beam="1">  1        2 0.21222044E+00 0.27118712E+04</pdfrwt>
<pdfrwt beam="2">  1       -2 0.20505209E+00 0.27118712E+04</pdfrwt>
<totfact> 0.16065174E+00</totfact>
</mgrwt>
</event>
<event>
 6    1  0.5196787E-004  0.6976976E+03  0.7818608E-02  0.9721178E-01
         -4   -1    0    0    0  501 -0.00000000000E+00  0.00000000000E+00  0.19253187238E+03  0.19253187238E+03  0.00000000000E+00 0. -1.
          4   -1    0    0  501    0  0.00000000000E+00 -0.00000000000E+00 -0.63207974708E+03  0.63207974708E+03  0.00000000000E+00 0.  1.
         23    2    1    2    0    0  0.80534691428E+02 -0.33134393587E+03 -0.18085794088E+03  0.39659862642E+03  0.91138550218E+02 0.  0.
         13    1    3    3    0    0  0.70388256706E+02 -0.11645692769E+03 -0.89539597898E+02  0.16289279383E+03  0.00000000000E+00 0.  1.
        -13    1    3    3    0    0  0.10146434723E+02 -0.21488700818E+03 -0.91318342983E+02  0.23370583259E+03  0.00000000000E+00 0. -1.
         22    1    1    2    0    0 -0.80534691428E+02  0.33134393587E+03 -0.25868993381E+03  0.42801299304E+03  0.00000000000E+00 0.  1.
<mgrwt>
<rscale>  0 0.69769763E+03</rscale>
<asrwt>0</asrwt>
<pdfrwt beam="1">  1        4 0.97243039E-01 0.69769763E+03</pdfrwt>
<pdfrwt beam="2">  1       -4 0.29620288E-01 0.69769763E+03</pdfrwt>
<totfact> 0.19313442E+01</totfact>
</mgrwt>
</event>
<event>
 6    1  0.5196787E-004  0.2350653E+04  0.7818608E-02  0.8458213E-01
          2   -1    0    0  501    0  0.00000000000E+00  0.00000000000E+00  0.12794607683E+04  0.12794607683E+04  0.00000000000E+00 0.  1.
         -2   -1    0    0    0  501 -0.00000000000E+00 -0.00000000000E+00 -0.10796677770E+04  0.10796677770E+04  0.00000000000E+00 0. -1.
         23    2    1    2    0    0  0.20922068806E+03 -0.10629278071E+04  0.55304254731E+03  0.12196663614E+04  0.90228346851E+02 0.  0.
         11    1    3    3    0    0  0.90969111126E+02 -0.47628340152E+03  0.29798322973E+03  0.56913554004E+03  0.00000000000E+00 0. -1.
        -11    1    3    3    0    0  0.11825157694E+03 -0.58664440561E+03  0.25505931758E+03  0.65053082138E+03  0.00000000000E+00 0.  1.
         22    1    1    2    0    0 -0.20922068806E+03  0.10629278071E+04 -0.35324955604E+03  0.11394621838E+04  0.00000000000E+00 0. -1.
<mgrwt>
<rscale>  0 0.23506532E+04</rscale>
<asrwt>0</asrwt>
<pdfrwt beam="1">  1        2 0.19684012E+00 0.23506532E+04</pdfrwt>
<pdfrwt beam="2">  1       -2 0.16610274E+00 0.23506532E+04</pdfrwt>
<totfact> 0.34881441E+00</totfact>
</mgrwt>
</event>
<event>
 6    1  0.5196787E-004  0.4400009E+04  0.7818608E-02  0.7928380E-01
          2   -1    0    0  501    0  0.00000000000E+00  0.00000000000E+00  0.21477144771E+04  0.21477144771E+04  0.00000000000E+00 0.  1.
         -2   -1    0    0    0  501 -0.00000000000E+00 -0.00000000000E+00 -0.22535672710E+04  0.22535672710E+04  0.00000000000E+00 0. -1.
         23    2    1    2    0    0 -0.46762265729E+03  0.48867404609E+03  0.20401324637E+04  0.21512315268E+04  0.90461812140E+02 0.  0.
         13    1    3    3    0    0 -0.15229053678E+03  0.10203207576E+03  0.56864406355E+03  0.59746047826E+03  0.00000000000E+00 0.  1.
        -13    1    3    3    0    0 -0.31533212051E+03  0.38664197032E+03  0.14714884002E+04  0.15537710485E+04  0.00000000000E+00 0. -1.
         22    1    1    2    0    0  0.46762265729E+03 -0.48867404609E+03 -0.21459852576E+04  0.22500502214E+04  0.00000000000E+00 0. -1.
<mgrwt>
<rscale>  0 0.44000087E+04</rscale>
<asrwt>0</asrwt>
<pdfrwt beam="1">  1        2 0.33041761E+00 0.44000087E+04</pdfrwt>
<pdfrwt beam="2">  1       -2 0.34670266E+00 0.44000087E+04</pdfrwt>
<totfact> 0.68875615E-02</totfact>
</mgrwt>
</event>
<event>
 6    1  0.5196787E-004  0.1593778E+04  0.7818608E-02  0.8824379E-01
          2   -1    0    0  501    0  0.00000000000E+00  0.00000000000E+00  0.18540544298E+04  0.18540544298E+04  0.00000000000E+00 0.  1.
         -2   -1    0    0    0  501 -0.00000000000E+00 -0.00000000000E+00 -0.34250999256E+03  0.34250999256E+03  0.00000000000E+00 0. -1.
         23    2    1    2    0    0  0.53840323030E+03  0.47465407213E+03  0.28932768978E+03  0.77917657694E+03  0.90725406518E+02 0.  0.
         11    1    3    3    0    0  0.26892469080E+03  0.29719284016E+03  0.16088815814E+03  0.43189011681E+03  0.00000000000E+00 0. -1.
        -11    1    3    3    0    0  0.26947853950E+03  0.17746123197E+03  0.12843953164E+03  0.34728646013E+03  0.00000000000E+00 0.  1.
         22    1    1    2    0    0 -0.53840323030E+03 -0.47465407213E+03  0.12222167475E+04  0.14173878454E+04  0.00000000000E+00 0.  1.
<mgrwt>
<rscale>  0 0.15937781E+04</rscale>
<asrwt>0</asrwt>
<pdfrwt beam="1">  1        2 0.28523914E+00 0.15937781E+04</pdfrwt>
<pdfrwt beam="2">  1       -2 0.52693846E-01 0.15937781E+04</pdfrwt>
<totfact> 0.26249151E+01</totfact>
</mgrwt>
</event>
<event>
 6    1  0.5196787E-004  0.3812083E+04  0.7818608E-02  0.8043567E-01
          2   -1    0    0  501    0  0.00000000000E+00  0.00000000000E+00  0.17258532902E+04  0.17258532902E+04  0.00000000000E+00 0.  1.
         -2   -1    0    0    0  501 -0.00000000000E+00 -0.00000000000E+00 -0.21050418116E+04  0.21050418116E+04  0.00000000000E+00 0. -1.
         23    2    1    2    0    0 -0.40012215077E+03 -0.69984491069E+03 -0.19241794663E+04  0.20882311484E+04  0.91444388263E+02 0.  0.
         13    1    3    3    0    0 -0.23823473806E+03 -0.34816719565E+03 -0.10816371876E+04  0.11609974988E+04  0.00000000000E+00 0.  1.
        -13    1    3    3    0    0 -0.16188741271E+03 -0.35167771504E+03 -0.84254227869E+03  0.92723364964E+03  0.00000000000E+00 0. -1.
         22    1    1    2    0    0  0.40012215077E+03  0.69984491069E+03  0.15449909449E+04  0.17426639534E+04  0.00000000000E+00 0.  1.
<mgrwt>
<rscale>  0 0.38120825E+04</rscale>
<asrwt>0</asrwt>
<pdfrwt beam="1">  1        2 0.26551589E+00 0.38120825E+04</pdfrwt>
<pdfrwt beam="2">  1       -2 0.32385258E+00 0.38120825E+04</pdfrwt>
<totfact> 0.17221899E-01</totfact>
</mgrwt>
</event>
<event>
 6    1  0.5196787E-004  0.1870119E+04  0.7818608E-02  0.8669875E-01
          2   -1    0    0  501    0  0.00000000000E+00  0.00000000000E+00  0.37257499985E+04  0.37257499985E+04  0.00000000000E+00 0.  1.
         -2   -1    0    0    0  501 -0.00000000000E+00 -0.00000000000E+00 -0.23467394831E+03  0.23467394831E+03  0.00000000000E+00 0. -1.
         23    2    1    2    0    0  0.45355753140E+03  0.33554870134E+03  0.17707306141E+03  0.59873937282E+03  0.93949998564E+02 0.  0.
         11    1    3    3    0    0  0.29525650632E+03  0.16429220889E+03  0.12081037051E+03  0.35883628586E+03  0.00000000000E+00 0.  1.
        -11    1    3    3    0    0  0.15830102508E+03  0.17125649245E+03  0.56262690898E+02  0.23990308696E+03  0.00000000000E+00 0. -1.
         22    1    1    2    0    0 -0.45355753140E+03 -0.33554870134E+03  0.33140029888E+04  0.33616845740E+04  0.00000000000E+00 0.  1.
<mgrwt>
<rscale>  0 0.18701192E+04</rscale>
<asrwt>0</asrwt>
<pdfrwt beam="1">  1        2 0.57319226E+00 0.18701192E+04</pdfrwt>
<pdfrwt beam="2">  1       -2 0.36103687E-01 0.18701192E+04</pdfrwt>
<totfact> 0.38212735E+00</totfact>
</mgrwt>
</event>
<event>
 6    1  0.5196787E-004  0.2606850E+04  0.7818608E-02  0.8365878E-01
          2   -1    0    0  501    0  0.00000000000E+00  0.00000000000E+00  0.20423106682E+04  0.20423106682E+04  0.00000000000E+00 0.  1.
         -2   -1    0    0    0  501 -0.00000000000E+00 -0.00000000000E+00 -0.83186001609E+03  0.83186001609E+03  0.00000000000E+00 0. -1.
         23    2    1    2    0    0  0.53294983437E+03  0.51609996919E+03  0.17853918339E+04  0.19355802162E+04  0.91935133400E+02 0.  0.
         13    1    3    3    0    0  0.30110442834E+03  0.27373178320E+03  0.86379123047E+03  0.95484462387E+03  0.00000000000E+00 0.  1.
        -13    1    3    3    0    0  0.23184540603E+03  0.24236818600E+03  0.92160060344E+03  0.98073559237E+03  0.00000000000E+00 0. -1.
         22    1    1    2    0    0 -0.53294983437E+03 -0.51609996919E+03 -0.57494118181E+03  0.93859046804E+03  0.00000000000E+00 0. -1.
<mgrwt>
<rscale>  0 0.26068499E+04</rscale>
<asrwt>0</asrwt>
<pdfrwt beam="1">  1        2 0.31420164E+00 0.26068499E+04</pdfrwt>
<pdfrwt beam="2">  1       -2 0.12797846E+00 0.26068499E+04</pdfrwt>
<totfact> 0.25280233E+00</totfact>
</mgrwt>
</event>
<event>
 6    1  0.5196787E-004  0.2720300E+04  0.7818608E-02  0.8328448E-01
          2   -1    0    0  501    0  0.00000000000E+00  0.00000000000E+00  0.17253597643E+04  0.17253597643E+04  0.00000000000E+00 0.  1.
         -2   -1    0    0    0  501 -0.00000000000E+00 -0.00000000000E+00 -0.10722449816E+04  0.10722449816E+04  0.00000000000E+00 0. -1.
         23    2    1    2    0    0 -0.79383593938E+03 -0.61529737373E+03  0.12681173541E+04  0.16198974309E+04  0.84733147249E+02 0.  0.
         11    1    3    3    0    0 -0.35300090096E+03 -0.22241213988E+03  0.54147810413E+03  0.68357540425E+03  0.00000000000E+00 0.  1.
        -11    1    3    3    0    0 -0.44083503842E+03 -0.39288523385E+03  0.72663924996E+03  0.93632202668E+03  0.00000000000E+00 0. -1.
         22    1    1    2    0    0  0.79383593938E+03  0.61529737373E+03 -0.61500257140E+03  0.11777073149E+04  0.00000000000E+00 0. -1.
<mgrwt>
<rscale>  0 0.27203002E+04</rscale>
<asrwt>0</asrwt>
<pdfrwt beam="1">  1        2 0.26543996E+00 0.27203002E+04</pdfrwt>
<pdfrwt beam="2">  1       -2 0.16496077E+00 0.27203002E+04</pdfrwt>
<totfact> 0.19265741E+00</totfact>
</mgrwt>
</event>
<event>
 6    1  0.5196787E-004  0.1849006E+03  0.7818608E-02  0.1163143E+00
         -2   -1    0    0    0  501 -0.00000000000E+00  0.00000000000E+00  0.22509265508E+02  0.22509265508E+02  0.00000000000E+00 0. -1.
          2   -1    0    0  501    0  0.00000000000E+00 -0.00000000000E+00 -0.37971284278E+03  0.37971284278E+03  0.00000000000E+00 0.  1.
         23    2    1    2    0    0  0.42348315706E+02  0.63939297259E+01 -0.35140687598E+03  0.35900331693E+03  0.59685231860E+02 0.  0.
         13    1    3    3    0    0  0.47332160622E+01  0.28228149910E+02 -0.17428888159E+03  0.17662345832E+03  0.00000000000E+00 0. -1.
        -13    1    3    3    0    0  0.37615099644E+02 -0.21834220184E+02 -0.17711799439E+03  0.18237985862E+03  0.00000000000E+00 0.  1.
         22    1    1    2    0    0 -0.42348315706E+02 -0.63939297259E+01 -0.57967012930E+01  0.43218791357E+02  0.00000000000E+00 0. -1.
<mgrwt>
<rscale>  0 0.18490059E+03</rscale>
<asrwt>0</asrwt>
<pdfrwt beam="1">  1        2 0.58417355E-01 0.18490059E+03</pdfrwt>
<pdfrwt beam="2">  1       -2 0.34629642E-02 0.18490059E+03</pdfrwt>
<totfact> 0.27703617E+04</totfact>
</mgrwt>
</event>
<event>
 6    1  0.5196787E-004  0.4382267E+04  0.7818608E-02  0.7931579E-01
         -2   -1    0    0    0  501 -0.00000000000E+00  0.00000000000E+00  0.16431886513E+04  0.16431886513E+04  0.00000000000E+00 0. -1.
          2   -1    0    0  501    0  0.00000000000E+00 -0.00000000000E+00 -0.29217990576E+04  0.29217990576E+04  0.00000000000E+00 0.  1.
         23    2    1    2    0    0  0.41207984207E+03  0.18871499933E+04 -0.17150319668E+04  0.25846825123E+04  0.90023046649E+02 0.  0.
         13    1    3    3    0    0  0.16262655997E+03  0.58181537912E+03 -0.50534221933E+03  0.78760859062E+03  0.00000000000E+00 0.  1.
        -13    1    3    3    0    0  0.24945328210E+03  0.13053346142E+04 -0.12096897475E+04  0.17970739217E+04  0.00000000000E+00 0. -1.
         22    1    1    2    0    0 -0.41207984207E+03 -0.18871499933E+04  0.43642156039E+03  0.19803051966E+04  0.00000000000E+00 0. -1.
<mgrwt>
<rscale>  0 0.43822675E+04</rscale>
<asrwt>0</asrwt>
<pdfrwt beam="1">  1        2 0.44950754E+00 0.43822675E+04</pdfrwt>
<pdfrwt beam="2">  1       -2 0.25279826E+00 0.43822675E+04</pdfrwt>
<totfact> 0.91988117E-02</totfact>
</mgrwt>
</event>
<event>
 6    1  0.5196787E-004  0.4876495E+04  0.7818608E-02  0.7847847E-01
          2   -1    0    0  501    0  0.00000000000E+00  0.00000000000E+00  0.36601310976E+04  0.36601310976E+04  0.00000000000E+00 0.  1.
         -2   -1    0    0    0  501 -0.00000000000E+00 -0.00000000000E+00 -0.16242729013E+04  0.16242729013E+04  0.00000000000E+00 0. -1.
         23    2    1    2    0    0  0.15653647295E+04 -0.18581712468E+04  0.80776399123E+03  0.25620185569E+04  0.91045600855E+02 0.  0.
         11    1    3    3    0    0  0.67170834223E+02 -0.68120014314E+02  0.49191334353E+02  0.10757343862E+03  0.00000000000E+00 0. -1.
        -11    1    3    3    0    0  0.14981938953E+04 -0.17900512325E+04  0.75857265688E+03  0.24544451182E+04  0.00000000000E+00 0.  1.
         22    1    1    2    0    0 -0.15653647295E+04  0.18581712468E+04  0.12280942051E+04  0.27223854421E+04  0.00000000000E+00 0.  1.
<mgrwt>
<rscale>  0 0.48764954E+04</rscale>
<asrwt>0</asrwt>
<pdfrwt beam="1">  1        2 0.56309709E+00 0.48764954E+04</pdfrwt>
<pdfrwt beam="2">  1       -2 0.24988814E+00 0.48764954E+04</pdfrwt>
<totfact> 0.29470304E-02</totfact>
</mgrwt>
</event>
<event>
 6    1  0.5196787E-004  0.3536197E+04  0.7818608E-02  0.8105265E-01
         -2   -1    0    0    0  501 -0.00000000000E+00  0.00000000000E+00  0.23374932347E+04  0.23374932347E+04  0.00000000000E+00 0. -1.
          2   -1    0    0  501    0  0.00000000000E+00 -0.00000000000E+00 -0.13374041312E+04  0.13374041312E+04  0.00000000000E+00 0.  1.
         23    2    1    2    0    0 -0.11398049810E+04 -0.90763624557E+03  0.15391888200E+04  0.21213248850E+04  0.89208154568E+02 0.  0.
         11    1    3    3    0    0 -0.52336870718E+03 -0.45726885684E+03  0.68802821614E+03  0.97795318769E+03  0.00000000000E+00 0. -1.
        -11    1    3    3    0    0 -0.61643627381E+03 -0.45036738873E+03  0.85116060391E+03  0.11433716973E+04  0.00000000000E+00 0.  1.
         22    1    1    2    0    0  0.11398049810E+04  0.90763624557E+03 -0.53909971653E+03  0.15535724809E+04  0.00000000000E+00 0. -1.
<mgrwt>
<rscale>  0 0.35361975E+04</rscale>
<asrwt>0</asrwt>
<pdfrwt beam="1">  1        2 0.20575448E+00 0.35361975E+04</pdfrwt>
<pdfrwt beam="2">  1       -2 0.35961434E+00 0.35361975E+04</pdfrwt>
<totfact> 0.17412689E-01</totfact>
</mgrwt>
</event>
<event>
 6    1  0.5196787E-004  0.1829699E+04  0.7818608E-02  0.8690663E-01
          2   -1    0    0  501    0  0.00000000000E+00  0.00000000000E+00  0.25713037087E+04  0.25713037087E+04  0.00000000000E+00 0.  1.
         -2   -1    0    0    0  501 -0.00000000000E+00 -0.00000000000E+00 -0.32549637003E+03  0.32549637003E+03  0.00000000000E+00 0. -1.
         23    2    1    2    0    0  0.24325605052E+03 -0.67742217624E+03  0.23756366171E+03  0.76346537057E+03  0.91479875990E+02 0.  0.
         13    1    3    3    0    0  0.29566320640E+02 -0.83257581093E+02 -0.13302794541E+01  0.88361540101E+02  0.00000000000E+00 0.  1.
        -13    1    3    3    0    0  0.21368972988E+03 -0.59416459515E+03  0.23889394117E+03  0.67510383047E+03  0.00000000000E+00 0. -1.
         22    1    1    2    0    0 -0.24325605052E+03  0.67742217624E+03  0.20082436769E+04  0.21333347081E+04  0.00000000000E+00 0.  1.
<mgrwt>
<rscale>  0 0.18296995E+04</rscale>
<asrwt>0</asrwt>
<pdfrwt beam="1">  1        2 0.39558517E+00 0.18296995E+04</pdfrwt>
<pdfrwt beam="2">  1       -2 0.50076366E-01 0.18296995E+04</pdfrwt>
<totfact> 0.11254921E+01</totfact>
</mgrwt>
</event>
<event>
 6    1  0.5196787E-004  0.1647550E+04  0.7818608E-02  0.8791857E-01
          2   -1    0    0  501    0  0.00000000000E+00  0.00000000000E+00  0.15691590859E+04  0.15691590859E+04  0.00000000000E+00 0. -1.
         -2   -1    0    0    0  501 -0.00000000000E+00 -0.00000000000E+00 -0.43246425600E+03  0.43246425600E+03  0.00000000000E+00 0.  1.
         23    2    1    2    0    0 -0.13332007836E+03  0.80876763135E+03  0.62797506255E+03  0.10369082925E+04  0.94587542038E+02 0.  0.
         13    1    3    3    0    0 -0.28870453948E+01  0.29611344823E+03  0.22750002608E+03  0.37342706265E+03  0.00000000000E+00 0.  1.
        -13    1    3    3    0    0 -0.13043303297E+03  0.51265418311E+03  0.40047503647E+03  0.66348122987E+03  0.00000000000E+00 0. -1.
         22    1    1    2    0    0  0.13332007836E+03 -0.80876763135E+03  0.50871976735E+03  0.96471504938E+03  0.00000000000E+00 0. -1.
<mgrwt>
<rscale>  0 0.16475500E+04</rscale>
<asrwt>0</asrwt>
<pdfrwt beam="1">  1        2 0.24140909E+00 0.16475500E+04</pdfrwt>
<pdfrwt beam="2">  1       -2 0.66532963E-01 0.16475500E+04</pdfrwt>
<totfact> 0.23016418E+01</totfact>
</mgrwt>
</event>
<event>
 6    1  0.5196787E-004  0.5622933E+04  0.7818608E-02  0.7738997E-01
         -2   -1    0    0    0  501 -0.00000000000E+00  0.00000000000E+00  0.23550777871E+04  0.23550777871E+04  0.00000000000E+00 0. -1.
          2   -1    0    0  501    0  0.00000000000E+00 -0.00000000000E+00 -0.33562980768E+04  0.33562980768E+04  0.00000000000E+00 0.  1.
         23    2    1    2    0    0  0.11599564698E+04  0.13961065298E+04 -0.26805587420E+04  0.32385657030E+04  0.91105372058E+02 0.  0.
         13    1    3    3    0    0  0.48940540460E+03  0.56627636046E+03 -0.10301093537E+04  0.12733074440E+04  0.00000000000E+00 0. -1.
        -13    1    3    3    0    0  0.67055106520E+03  0.82983016933E+03 -0.16504493883E+04  0.19652582590E+04  0.00000000000E+00 0.  1.
         22    1    1    2    0    0 -0.11599564698E+04 -0.13961065298E+04  0.16793384524E+04  0.24728101609E+04  0.00000000000E+00 0.  1.
<mgrwt>
<rscale>  0 0.56229327E+04</rscale>
<asrwt>0</asrwt>
<pdfrwt beam="1">  1        2 0.51635354E+00 0.56229327E+04</pdfrwt>
<pdfrwt beam="2">  1       -2 0.36231966E+00 0.56229327E+04</pdfrwt>
<totfact> 0.91856939E-03</totfact>
</mgrwt>
</event>
<event>
 6    1  0.5196787E-004  0.5211040E+04  0.7818608E-02  0.7796752E-01
         -2   -1    0    0    0  501 -0.00000000000E+00  0.00000000000E+00  0.19751967757E+04  0.19751967757E+04  0.00000000000E+00 0. -1.
          2   -1    0    0  501    0  0.00000000000E+00 -0.00000000000E+00 -0.34369915806E+04  0.34369915806E+04  0.00000000000E+00 0.  1.
         23    2    1    2    0    0 -0.15258897101E+04  0.20588436023E+04 -0.12154619554E+04  0.28377260321E+04  0.90359736472E+02 0.  0.
         11    1    3    3    0    0 -0.28776151754E+03  0.40808892872E+03 -0.19982869843E+03  0.53784270325E+03  0.00000000000E+00 0.  1.
        -11    1    3    3    0    0 -0.12381281926E+04  0.16507546736E+04 -0.10156332570E+04  0.22998833288E+04  0.00000000000E+00 0. -1.
         22    1    1    2    0    0  0.15258897101E+04 -0.20588436023E+04 -0.24633284957E+03  0.25744623242E+04  0.00000000000E+00 0. -1.
<mgrwt>
<rscale>  0 0.52110401E+04</rscale>
<asrwt>0</asrwt>
<pdfrwt beam="1">  1        2 0.52876793E+00 0.52110401E+04</pdfrwt>
<pdfrwt beam="2">  1       -2 0.30387643E+00 0.52110401E+04</pdfrwt>
<totfact> 0.19339649E-02</totfact>
</mgrwt>
</event>
<event>
 6    1  0.5196787E-004  0.1631235E+04  0.7818608E-02  0.8801586E-01
          2   -1    0    0  501    0  0.00000000000E+00  0.00000000000E+00  0.66061247955E+03  0.66061247955E+03  0.00000000000E+00 0.  1.
         -2   -1    0    0    0  501 -0.00000000000E+00 -0.00000000000E+00 -0.10069926759E+04  0.10069926759E+04  0.00000000000E+00 0. -1.
         23    2    1    2    0    0  0.77755865857E+03  0.23013635576E+03 -0.23545301114E+03  0.84915231610E+03  0.89784885758E+02 0.  0.
         11    1    3    3    0    0  0.67987664109E+02  0.21140034528E+02  0.49172442464E+01  0.71368079852E+02  0.00000000000E+00 0. -1.
        -11    1    3    3    0    0  0.70957099447E+03  0.20899632123E+03 -0.24037025539E+03  0.77778423624E+03  0.00000000000E+00 0.  1.
         22    1    1    2    0    0 -0.77755865857E+03 -0.23013635576E+03 -0.11092718518E+03  0.81845283931E+03  0.00000000000E+00 0.  1.
<mgrwt>
<rscale>  0 0.16312350E+04</rscale>
<asrwt>0</asrwt>
<pdfrwt beam="1">  1        2 0.10163269E+00 0.16312350E+04</pdfrwt>
<pdfrwt beam="2">  1       -2 0.15492195E+00 0.16312350E+04</pdfrwt>
<totfact> 0.11580611E+01</totfact>
</mgrwt>
</event>
<event>
 6    1  0.5196787E-004  0.1961705E+04  0.7818608E-02  0.8624737E-01
          2   -1    0    0  501    0  0.00000000000E+00  0.00000000000E+00  0.13108152166E+04  0.13108152166E+04  0.00000000000E+00 0. -1.
         -2   -1    0    0    0  501 -0.00000000000E+00 -0.00000000000E+00 -0.73394915790E+03  0.73394915790E+03  0.00000000000E+00 0.  1.
         23    2    1    2    0    0 -0.68404036239E+03 -0.68174663054E+03  0.45500979242E+03  0.10713484124E+04  0.89798797381E+02 0.  0.
         13    1    3    3    0    0 -0.34999950613E+03 -0.36692988232E+03  0.19127137762E+03  0.54196119116E+03  0.00000000000E+00 0. -1.
        -13    1    3    3    0    0 -0.33404085625E+03 -0.31481674823E+03  0.26373841481E+03  0.52938722128E+03  0.00000000000E+00 0.  1.
         22    1    1    2    0    0  0.68404036239E+03  0.68174663054E+03  0.12185626632E+03  0.97341596210E+03  0.00000000000E+00 0.  1.
<mgrwt>
<rscale>  0 0.19617051E+04</rscale>
<asrwt>0</asrwt>
<pdfrwt beam="1">  1        2 0.20166388E+00 0.19617051E+04</pdfrwt>
<pdfrwt beam="2">  1       -2 0.11291526E+00 0.19617051E+04</pdfrwt>
<totfact> 0.93635917E+00</totfact>
</mgrwt>
</event>
<event>
 6    1  0.5196787E-004  0.8653399E+03  0.7818608E-02  0.9469976E-01
         -2   -1    0    0    0  501 -0.00000000000E+00  0.00000000000E+00  0.35609034200E+03  0.35609034200E+03  0.00000000000E+00 0. -1.
          2   -1    0    0  501    0  0.00000000000E+00 -0.00000000000E+00 -0.52571856488E+03  0.52571856488E+03  0.00000000000E+00 0.  1.
         23    2    1    2    0    0  0.14923048101E+03 -0.30318419634E+03  0.18164899178E+03  0.39438088664E+03  0.91375785404E+02 0.  0.
         13    1    3    3    0    0  0.93355056075E+02 -0.23848362296E+03  0.96387074099E+02  0.27364223535E+03  0.00000000000E+00 0. -1.
        -13    1    3    3    0    0  0.55875424937E+02 -0.64700573377E+02  0.85261917685E+02  0.12073865129E+03  0.00000000000E+00 0.  1.
         22    1    1    2    0    0 -0.14923048101E+03  0.30318419634E+03 -0.35127721467E+03  0.48742802024E+03  0.00000000000E+00 0.  1.
<mgrwt>
<rscale>  0 0.86533994E+03</rscale>
<asrwt>0</asrwt>
<pdfrwt beam="1">  1        2 0.80879779E-01 0.86533994E+03</pdfrwt>
<pdfrwt beam="2">  1       -2 0.54783130E-01 0.86533994E+03</pdfrwt>
<totfact> 0.18295362E+02</totfact>
</mgrwt>
</event>
<event>
 6    1  0.5196787E-004  0.2408312E+04  0.7818608E-02  0.8436398E-01
         -2   -1    0    0    0  501 -0.00000000000E+00  0.00000000000E+00  0.18860216372E+04  0.18860216372E+04  0.00000000000E+00 0. -1.
          2   -1    0    0  501    0  0.00000000000E+00 -0.00000000000E+00 -0.76880979971E+03  0.76880979971E+03  0.00000000000E+00 0.  1.
         23    2    1    2    0    0  0.67041321664E+03  0.60480891840E+03 -0.31312181818E+03  0.96335218035E+03  0.12146786221E+03 0.  0.
         13    1    3    3    0    0  0.29665487721E+03  0.34374126504E+03 -0.17975641051E+03  0.48833855119E+03  0.00000000000E+00 0. -1.
        -13    1    3    3    0    0  0.37375833943E+03  0.26106765337E+03 -0.13336540767E+03  0.47501362916E+03  0.00000000000E+00 0.  1.
         22    1    1    2    0    0 -0.67041321664E+03 -0.60480891840E+03  0.14303336557E+04  0.16914792566E+04  0.00000000000E+00 0. -1.
<mgrwt>
<rscale>  0 0.24083122E+04</rscale>
<asrwt>0</asrwt>
<pdfrwt beam="1">  1        2 0.11827843E+00 0.24083122E+04</pdfrwt>
<pdfrwt beam="2">  1       -2 0.29015717E+00 0.24083122E+04</pdfrwt>
<totfact> 0.11913285E+00</totfact>
</mgrwt>
</event>
<event>
 6    1  0.5196787E-004  0.3597936E+04  0.7818608E-02  0.8090965E-01
          2   -1    0    0  501    0  0.00000000000E+00  0.00000000000E+00  0.32218331112E+04  0.32218331112E+04  0.00000000000E+00 0.  1.
         -2   -1    0    0    0  501 -0.00000000000E+00 -0.00000000000E+00 -0.10044857750E+04  0.10044857750E+04  0.00000000000E+00 0. -1.
         23    2    1    2    0    0 -0.10550850717E+04  0.10845426663E+04  0.22498823988E+04  0.27128804720E+04  0.91172052493E+02 0.  0.
         13    1    3    3    0    0 -0.39464498634E+03  0.34425356911E+03  0.78940572073E+03  0.94732073608E+03  0.00000000000E+00 0. -1.
        -13    1    3    3    0    0 -0.66044008536E+03  0.74028909715E+03  0.14604766781E+04  0.17655597359E+04  0.00000000000E+00 0.  1.
         22    1    1    2    0    0  0.10550850717E+04 -0.10845426663E+04 -0.32535062592E+02  0.15134384143E+04  0.00000000000E+00 0. -1.
<mgrwt>
<rscale>  0 0.35979358E+04</rscale>
<asrwt>0</asrwt>
<pdfrwt beam="1">  1        2 0.49566663E+00 0.35979358E+04</pdfrwt>
<pdfrwt beam="2">  1       -2 0.15453627E+00 0.35979358E+04</pdfrwt>
<totfact> 0.28275605E-01</totfact>
</mgrwt>
</event>
<event>
 6    1  0.5196787E-004  0.3907901E+04  0.7818608E-02  0.8023388E-01
         -2   -1    0    0    0  501 -0.00000000000E+00  0.00000000000E+00  0.15297023470E+04  0.15297023470E+04  0.00000000000E+00 0. -1.
          2   -1    0    0  501    0  0.00000000000E+00 -0.00000000000E+00 -0.24958598186E+04  0.24958598186E+04  0.00000000000E+00 0.  1.
         23    2    1    2    0    0 -0.15931102703E+04 -0.40514926623E+02 -0.16461217079E+04  0.22929360792E+04  0.90539458441E+02 0.  0.
         11    1    3    3    0    0 -0.65301979814E+03  0.18934408713E+02 -0.63575627477E+03  0.91158072024E+03  0.00000000000E+00 0. -1.
        -11    1    3    3    0    0 -0.94009047213E+03 -0.59449335336E+02 -0.10103654331E+04  0.13813553589E+04  0.00000000000E+00 0.  1.
         22    1    1    2    0    0  0.15931102703E+04  0.40514926623E+02  0.67996423636E+03  0.17326260864E+04  0.00000000000E+00 0. -1.
<mgrwt>
<rscale>  0 0.39079010E+04</rscale>
<asrwt>0</asrwt>
<pdfrwt beam="1">  1        2 0.38397843E+00 0.39079010E+04</pdfrwt>
<pdfrwt beam="2">  1       -2 0.23533883E+00 0.39079010E+04</pdfrwt>
<totfact> 0.22028061E-01</totfact>
</mgrwt>
</event>
<event>
 6    1  0.5196787E-004  0.3549232E+04  0.7818608E-02  0.8102221E-01
         -2   -1    0    0    0  501 -0.00000000000E+00  0.00000000000E+00  0.25459268620E+04  0.25459268620E+04  0.00000000000E+00 0. -1.
          2   -1    0    0  501    0  0.00000000000E+00 -0.00000000000E+00 -0.12369807840E+04  0.12369807840E+04  0.00000000000E+00 0.  1.
         23    2    1    2    0    0 -0.24777946921E+03  0.16752176216E+04  0.92746177171E+02  0.16979877570E+04  0.82533776686E+02 0.  0.
         13    1    3    3    0    0 -0.17782354727E+03  0.11193182332E+04  0.25082318345E+02  0.11336329405E+04  0.00000000000E+00 0.  1.
        -13    1    3    3    0    0 -0.69955921938E+02  0.55589938842E+03  0.67663858825E+02  0.56435481645E+03  0.00000000000E+00 0. -1.
         22    1    1    2    0    0  0.24777946921E+03 -0.16752176216E+04  0.12161999008E+04  0.20849198891E+04  0.00000000000E+00 0. -1.
<mgrwt>
<rscale>  0 0.35492324E+04</rscale>
<asrwt>0</asrwt>
<pdfrwt beam="1">  1        2 0.19030474E+00 0.35492324E+04</pdfrwt>
<pdfrwt beam="2">  1       -2 0.39168106E+00 0.35492324E+04</pdfrwt>
<totfact> 0.12383402E-01</totfact>
</mgrwt>
</event>
<event>
 6    1  0.5196787E-004  0.1010486E+04  0.7818608E-02  0.9297118E-01
          2   -1    0    0  501    0  0.00000000000E+00  0.00000000000E+00  0.87718749847E+03  0.87718749847E+03  0.00000000000E+00 0.  1.
         -2   -1    0    0    0  501 -0.00000000000E+00 -0.00000000000E+00 -0.29101013544E+03  0.29101013544E+03  0.00000000000E+00 0. -1.
         23    2    1    2    0    0 -0.27541387897E+03  0.65037814673E+01 -0.18951100132E+03  0.34504057569E+03  0.85108609144E+02 0.  0.
         13    1    3    3    0    0 -0.12613376832E+03  0.91794422454E+00 -0.13815241386E+03  0.18707394150E+03  0.00000000000E+00 0. -1.
        -13    1    3    3    0    0 -0.14928011065E+03  0.55858372427E+01 -0.51358587462E+02  0.15796663420E+03  0.00000000000E+00 0.  1.
         22    1    1    2    0    0  0.27541387897E+03 -0.65037814673E+01  0.77568836435E+03  0.82315705822E+03  0.00000000000E+00 0.  1.
<mgrwt>
<rscale>  0 0.10104859E+04</rscale>
<asrwt>0</asrwt>
<pdfrwt beam="1">  1        2 0.13495192E+00 0.10104859E+04</pdfrwt>
<pdfrwt beam="2">  1       -2 0.44770790E-01 0.10104859E+04</pdfrwt>
<totfact> 0.14342025E+02</totfact>
</mgrwt>
</event>
<event>
 6    1  0.5196787E-004  0.1272371E+04  0.7818608E-02  0.9051767E-01
         -2   -1    0    0    0  501 -0.00000000000E+00  0.00000000000E+00  0.27953182237E+03  0.27953182237E+03  0.00000000000E+00 0. -1.
          2   -1    0    0  501    0  0.00000000000E+00 -0.00000000000E+00 -0.14478926100E+04  0.14478926100E+04  0.00000000000E+00 0.  1.
         23    2    1    2    0    0  0.18343003219E+03 -0.58263506969E+03 -0.36176084787E+03  0.71563707132E+03  0.90306730891E+02 0.  0.
         11    1    3    3    0    0  0.18274204347E+03 -0.46271524374E+03 -0.29513140296E+03  0.57844843872E+03  0.00000000000E+00 0. -1.
        -11    1    3    3    0    0  0.68798871865E+00 -0.11991982596E+03 -0.66629444904E+02  0.13718863260E+03  0.00000000000E+00 0.  1.
         22    1    1    2    0    0 -0.18343003219E+03  0.58263506969E+03 -0.80659993973E+03  0.10117873610E+04  0.00000000000E+00 0. -1.
<mgrwt>
<rscale>  0 0.12723711E+04</rscale>
<asrwt>0</asrwt>
<pdfrwt beam="1">  1        2 0.22275271E+00 0.12723711E+04</pdfrwt>
<pdfrwt beam="2">  1       -2 0.43004896E-01 0.12723711E+04</pdfrwt>
<totfact> 0.68374782E+01</totfact>
</mgrwt>
</event>
<event>
 6    1  0.5196787E-004  0.5637346E+03  0.7818608E-02  0.9983640E-01
          2   -1    0    0  501    0  0.00000000000E+00  0.00000000000E+00  0.21964625723E+04  0.21964625723E+04  0.00000000000E+00 0.  1.
         -2   -1    0    0    0  501 -0.00000000000E+00 -0.00000000000E+00 -0.36171417922E+02  0.36171417922E+02  0.00000000000E+00 0. -1.
         23    2    1    2    0    0  0.17576088397E+02 -0.25722282786E+03  0.14789486202E+04  0.15041422943E+04  0.93180032465E+02 0.  0.
         11    1    3    3    0    0  0.38692046468E+02 -0.75192312397E+02  0.32951615931E+03  0.34019385290E+03  0.00000000000E+00 0.  1.
        -11    1    3    3    0    0 -0.21115958072E+02 -0.18203051547E+03  0.11494324608E+04  0.11639484414E+04  0.00000000000E+00 0. -1.
         22    1    1    2    0    0 -0.17576088397E+02  0.25722282786E+03  0.68134253426E+03  0.72849169594E+03  0.00000000000E+00 0. -1.
<mgrwt>
<rscale>  0 0.56373457E+03</rscale>
<asrwt>0</asrwt>
<pdfrwt beam="1">  1        2 0.33791722E+00 0.56373457E+03</pdfrwt>
<pdfrwt beam="2">  1       -2 0.55648352E-02 0.56373457E+03</pdfrwt>
<totfact> 0.94432742E+02</totfact>
</mgrwt>
</event>
<event>
 6    1  0.5196787E-004  0.2018112E+04  0.7818608E-02  0.8598199E-01
          2   -1    0    0  501    0  0.00000000000E+00  0.00000000000E+00  0.20582845388E+04  0.20582845388E+04  0.00000000000E+00 0.  1.
         -2   -1    0    0    0  501 -0.00000000000E+00 -0.00000000000E+00 -0.49468067321E+03  0.49468067321E+03  0.00000000000E+00 0. -1.
         23    2    1    2    0    0  0.61689387446E+03  0.52830144001E+03  0.30682771380E+02  0.81817198372E+03  0.93826961095E+02 0.  0.
         11    1    3    3    0    0  0.11236346784E+03  0.10241989543E+03 -0.30602851008E+02  0.15508680916E+03  0.00000000000E+00 0. -1.
        -11    1    3    3    0    0  0.50453040662E+03  0.42588154457E+03  0.61285622388E+02  0.66308517456E+03  0.00000000000E+00 0.  1.
         22    1    1    2    0    0 -0.61689387446E+03 -0.52830144001E+03  0.15329210942E+04  0.17347932283E+04  0.00000000000E+00 0.  1.
<mgrwt>
<rscale>  0 0.20181116E+04</rscale>
<asrwt>0</asrwt>
<pdfrwt beam="1">  1        2 0.31665916E+00 0.20181116E+04</pdfrwt>
<pdfrwt beam="2">  1       -2 0.76104720E-01 0.20181116E+04</pdfrwt>
<totfact> 0.88896736E+00</totfact>
</mgrwt>
</event>
<event>
 6    1  0.5802345E-004  0.2495953E+04  0.7818608E-02  0.8404429E-01
          2   -1    0    0  501    0  0.00000000000E+00  0.00000000000E+00  0.18073553093E+04  0.18073553093E+04  0.00000000000E+00 0.  1.
         -2   -1    0    0    0  501 -0.00000000000E+00 -0.00000000000E+00 -0.86172622676E+03  0.86172622676E+03  0.00000000000E+00 0. -1.
         23    2    1    2    0    0  0.69021721615E+03  0.10376486584E+04  0.47812998415E+03  0.13380406085E+04  0.92896957059E+02 0.  0.
         13    1    3    3    0    0  0.55086009353E+03  0.81090229151E+03  0.33582287405E+03  0.10362366389E+04  0.00000000000E+00 0.  1.
        -13    1    3    3    0    0  0.13935712262E+03  0.22674636686E+03  0.14230711010E+03  0.30180396964E+03  0.00000000000E+00 0. -1.
         22    1    1    2    0    0 -0.69021721615E+03 -0.10376486584E+04  0.46749909835E+03  0.13310409275E+04  0.00000000000E+00 0.  1.
<mgrwt>
<rscale>  0 0.24959531E+04</rscale>
<asrwt>0</asrwt>
<pdfrwt beam="1">  1        2 0.27805466E+00 0.24959531E+04</pdfrwt>
<pdfrwt beam="2">  1       -2 0.13257327E+00 0.24959531E+04</pdfrwt>
<totfact> 0.31515985E+00</totfact>
</mgrwt>
</event>
<event>
 6    1  0.5196787E-004  0.3382071E+04  0.7818608E-02  0.8142321E-01
         -2   -1    0    0    0  501 -0.00000000000E+00  0.00000000000E+00  0.12401640009E+04  0.12401640009E+04  0.00000000000E+00 0. -1.
          2   -1    0    0  501    0  0.00000000000E+00 -0.00000000000E+00 -0.23058244879E+04  0.23058244879E+04  0.00000000000E+00 0.  1.
         23    2    1    2    0    0 -0.11238441150E+04 -0.40598176991E+03  0.71943599720E+03  0.13978692533E+04  0.92755068651E+02 0.  0.
         11    1    3    3    0    0 -0.63630846800E+03 -0.21485554919E+03  0.35290933207E+03  0.75868067731E+03  0.00000000000E+00 0. -1.
        -11    1    3    3    0    0 -0.48753564703E+03 -0.19112622072E+03  0.36652666513E+03  0.63918857595E+03  0.00000000000E+00 0.  1.
         22    1    1    2    0    0  0.11238441150E+04  0.40598176991E+03 -0.17850964842E+04  0.21481192356E+04  0.00000000000E+00 0.  1.
<mgrwt>
<rscale>  0 0.33820707E+04</rscale>
<asrwt>0</asrwt>
<pdfrwt beam="1">  1        2 0.35474223E+00 0.33820707E+04</pdfrwt>
<pdfrwt beam="2">  1       -2 0.19079446E+00 0.33820707E+04</pdfrwt>
<totfact> 0.57150843E-01</totfact>
</mgrwt>
</event>
<event>
 6    1  0.5196787E-004  0.1992840E+04  0.7818608E-02  0.8609975E-01
         -2   -1    0    0    0  501 -0.00000000000E+00  0.00000000000E+00  0.53904374738E+03  0.53904374738E+03  0.00000000000E+00 0. -1.
          2   -1    0    0  501    0  0.00000000000E+00 -0.00000000000E+00 -0.18418783380E+04  0.18418783380E+04  0.00000000000E+00 0.  1.
         23    2    1    2    0    0  0.74907262351E+03 -0.64053650276E+03 -0.49586369543E+03  0.11071093706E+04  0.91725390809E+02 0.  0.
         13    1    3    3    0    0  0.57856738566E+03 -0.44181580300E+03 -0.36031307058E+03  0.81226038458E+03  0.00000000000E+00 0. -1.
        -13    1    3    3    0    0  0.17050523786E+03 -0.19872069976E+03 -0.13555062485E+03  0.29484898600E+03  0.00000000000E+00 0.  1.
         22    1    1    2    0    0 -0.74907262351E+03  0.64053650276E+03 -0.80697089514E+03  0.12738127148E+04  0.00000000000E+00 0. -1.
<mgrwt>
<rscale>  0 0.19928402E+04</rscale>
<asrwt>0</asrwt>
<pdfrwt beam="1">  1        2 0.28336590E+00 0.19928402E+04</pdfrwt>
<pdfrwt beam="2">  1       -2 0.82929806E-01 0.19928402E+04</pdfrwt>
<totfact> 0.96886697E+00</totfact>
</mgrwt>
</event>
<event>
 6    1  0.5196787E-004  0.4684091E+03  0.7818608E-02  0.1022370E+00
          2   -1    0    0  501    0  0.00000000000E+00  0.00000000000E+00  0.48696108958E+03  0.48696108958E+03  0.00000000000E+00 0.  1.
         -2   -1    0    0    0  501 -0.00000000000E+00 -0.00000000000E+00 -0.11264097557E+03  0.11264097557E+03  0.00000000000E+00 0. -1.
         23    2    1    2    0    0  0.12285134899E+03  0.91165542979E+02 -0.16339828370E+02  0.18005611921E+03  0.93539328083E+02 0.  0.
         13    1    3    3    0    0  0.53496324800E+02  0.84720102220E+02  0.18949672007E+02  0.10197275399E+03  0.00000000000E+00 0.  1.
        -13    1    3    3    0    0  0.69355024191E+02  0.64454407596E+01 -0.35289500378E+02  0.78083365219E+02  0.00000000000E+00 0. -1.
         22    1    1    2    0    0 -0.12285134899E+03 -0.91165542979E+02  0.39065994238E+03  0.41954594594E+03  0.00000000000E+00 0.  1.
<mgrwt>
<rscale>  0 0.46840910E+03</rscale>
<asrwt>0</asrwt>
<pdfrwt beam="1">  1        2 0.74917089E-01 0.46840910E+03</pdfrwt>
<pdfrwt beam="2">  1       -2 0.17329381E-01 0.46840910E+03</pdfrwt>
<totfact> 0.17327105E+03</totfact>
</mgrwt>
</event>
<event>
 6    1  0.5196787E-004  0.1310060E+04  0.7818608E-02  0.9021625E-01
         -2   -1    0    0    0  501 -0.00000000000E+00  0.00000000000E+00  0.13378809866E+03  0.13378809866E+03  0.00000000000E+00 0. -1.
          2   -1    0    0  501    0  0.00000000000E+00 -0.00000000000E+00 -0.32070459558E+04  0.32070459558E+04  0.00000000000E+00 0.  1.
         23    2    1    2    0    0 -0.79078708621E+02 -0.54188159772E+03 -0.24450018650E+04  0.25074105728E+04  0.95836072366E+02 0.  0.
         13    1    3    3    0    0 -0.26951053379E+02 -0.44501349665E+03 -0.19407847558E+04  0.19913334326E+04  0.00000000000E+00 0. -1.
        -13    1    3    3    0    0 -0.52127655242E+02 -0.96868101063E+02 -0.50421710917E+03  0.51607714019E+03  0.00000000000E+00 0.  1.
         22    1    1    2    0    0  0.79078708621E+02  0.54188159772E+03 -0.62825599220E+03  0.83342348169E+03  0.00000000000E+00 0. -1.
<mgrwt>
<rscale>  0 0.13100604E+04</rscale>
<asrwt>0</asrwt>
<pdfrwt beam="1">  1        2 0.49339165E+00 0.13100604E+04</pdfrwt>
<pdfrwt beam="2">  1       -2 0.20582786E-01 0.13100604E+04</pdfrwt>
<totfact> 0.25915186E+01</totfact>
</mgrwt>
</event>
<event>
 6    1  0.5196787E-004  0.1988674E+04  0.7818608E-02  0.8611934E-01
          2   -1    0    0  501    0  0.00000000000E+00  0.00000000000E+00  0.76675482663E+03  0.76675482663E+03  0.00000000000E+00 0.  1.
         -2   -1    0    0    0  501 -0.00000000000E+00 -0.00000000000E+00 -0.12894687471E+04  0.12894687471E+04  0.00000000000E+00 0. -1.
         23    2    1    2    0    0  0.91216892997E+03  0.35148885916E+03 -0.86178426645E+02  0.98563503826E+03  0.91940918618E+02 0.  0.
         13    1    3    3    0    0  0.91573423393E+02  0.41781563084E+02 -0.36730908960E+02  0.10714733109E+03  0.00000000000E+00 0. -1.
        -13    1    3    3    0    0  0.82059550658E+03  0.30970729608E+03 -0.49447517685E+02  0.87848770718E+03  0.00000000000E+00 0.  1.
         22    1    1    2    0    0 -0.91216892997E+03 -0.35148885916E+03 -0.43653549384E+03  0.10705885355E+04  0.00000000000E+00 0. -1.
<mgrwt>
<rscale>  0 0.19886743E+04</rscale>
<asrwt>0</asrwt>
<pdfrwt beam="1">  1        2 0.11796228E+00 0.19886743E+04</pdfrwt>
<pdfrwt beam="2">  1       -2 0.19837981E+00 0.19886743E+04</pdfrwt>
<totfact> 0.46155520E+00</totfact>
</mgrwt>
</event>
<event>
 6    1  0.5196787E-004  0.4114664E+04  0.7818608E-02  0.7981806E-01
         -1   -1    0    0    0  501 -0.00000000000E+00  0.00000000000E+00  0.12876556068E+04  0.12876556068E+04  0.00000000000E+00 0.  1.
          1   -1    0    0  501    0  0.00000000000E+00 -0.00000000000E+00 -0.32870704859E+04  0.32870704859E+04  0.00000000000E+00 0. -1.
         23    2    1    2    0    0  0.57251320130E+02 -0.17855629450E+04  0.13192575689E+03  0.17936964900E+04  0.91814751447E+02 0.  0.
         11    1    3    3    0    0  0.18066437709E+01 -0.26465332308E+03  0.51712021163E+02  0.26966419583E+03  0.00000000000E+00 0.  1.
        -11    1    3    3    0    0  0.55444676359E+02 -0.15209096219E+04  0.80213735732E+02  0.15240322941E+04  0.00000000000E+00 0. -1.
         22    1    1    2    0    0 -0.57251320130E+02  0.17855629450E+04 -0.21313406360E+04  0.27810296027E+04  0.00000000000E+00 0. -1.
<mgrwt>
<rscale>  0 0.41146639E+04</rscale>
<asrwt>0</asrwt>
<pdfrwt beam="1">  1        1 0.50570314E+00 0.41146639E+04</pdfrwt>
<pdfrwt beam="2">  1       -1 0.19810087E+00 0.41146639E+04</pdfrwt>
<totfact> 0.43895807E-02</totfact>
</mgrwt>
</event>
<event>
 6    1  0.5196787E-004  0.2478453E+04  0.7818608E-02  0.8410702E-01
          2   -1    0    0  501    0  0.00000000000E+00  0.00000000000E+00  0.32743681478E+04  0.32743681478E+04  0.00000000000E+00 0.  1.
         -2   -1    0    0    0  501 -0.00000000000E+00 -0.00000000000E+00 -0.46900096310E+03  0.46900096310E+03  0.00000000000E+00 0. -1.
         23    2    1    2    0    0  0.89673322000E+03 -0.65913225165E+03  0.22221312592E+04  0.24868859483E+04  0.90269563094E+02 0.  0.
         11    1    3    3    0    0  0.59760161582E+03 -0.44636743790E+03  0.15805068824E+04  0.17476766251E+04  0.00000000000E+00 0.  1.
        -11    1    3    3    0    0  0.29913160418E+03 -0.21276481375E+03  0.64162437679E+03  0.73920932319E+03  0.00000000000E+00 0. -1.
         22    1    1    2    0    0 -0.89673322000E+03  0.65913225165E+03  0.58323592554E+03  0.12564831626E+04  0.00000000000E+00 0. -1.
<mgrwt>
<rscale>  0 0.24784526E+04</rscale>
<asrwt>0</asrwt>
<pdfrwt beam="1">  1        2 0.50374893E+00 0.24784526E+04</pdfrwt>
<pdfrwt beam="2">  1       -2 0.72153996E-01 0.24784526E+04</pdfrwt>
<totfact> 0.18017375E+00</totfact>
</mgrwt>
</event>
<event>
 6    1  0.5196787E-004  0.7995119E+03  0.7818608E-02  0.9560724E-01
         -1   -1    0    0    0  501 -0.00000000000E+00  0.00000000000E+00  0.21013615149E+03  0.21013615149E+03  0.00000000000E+00 0. -1.
          1   -1    0    0  501    0  0.00000000000E+00 -0.00000000000E+00 -0.76048221863E+03  0.76048221863E+03  0.00000000000E+00 0.  1.
         23    2    1    2    0    0 -0.25510626949E+02  0.64932339138E+02 -0.75018438842E+03  0.75895270118E+03  0.91463573289E+02 0.  0.
         11    1    3    3    0    0 -0.11008385570E+01  0.34916268175E+02 -0.75834199769E+02  0.83493613429E+02  0.00000000000E+00 0. -1.
        -11    1    3    3    0    0 -0.24409788392E+02  0.30016070963E+02 -0.67435018865E+03  0.67545908775E+03  0.00000000000E+00 0.  1.
         22    1    1    2    0    0  0.25510626949E+02 -0.64932339138E+02  0.19983832129E+03  0.21166566894E+03  0.00000000000E+00 0. -1.
<mgrwt>
<rscale>  0 0.79951187E+03</rscale>
<asrwt>0</asrwt>
<pdfrwt beam="1">  1        1 0.11699726E+00 0.79951187E+03</pdfrwt>
<pdfrwt beam="2">  1       -1 0.32328639E-01 0.79951187E+03</pdfrwt>
<totfact> 0.21639506E+02</totfact>
</mgrwt>
</event>
<event>
 6    1  0.5196787E-004  0.1133020E+04  0.7818608E-02  0.9173593E-01
          2   -1    0    0  501    0  0.00000000000E+00  0.00000000000E+00  0.10410343733E+04  0.10410343733E+04  0.00000000000E+00 0.  1.
         -2   -1    0    0    0  501 -0.00000000000E+00 -0.00000000000E+00 -0.30828350632E+03  0.30828350632E+03  0.00000000000E+00 0. -1.
         23    2    1    2    0    0  0.61276184687E+02 -0.23151842752E+03 -0.23770499780E+03  0.34974790279E+03  0.92002045818E+02 0.  0.
         11    1    3    3    0    0  0.11654895249E+02 -0.61134325335E+02 -0.12467820646E+03  0.13934811619E+03  0.00000000000E+00 0.  1.
        -11    1    3    3    0    0  0.49621289438E+02 -0.17038410219E+03 -0.11302679134E+03  0.21039978661E+03  0.00000000000E+00 0. -1.
         22    1    1    2    0    0 -0.61276184687E+02  0.23151842752E+03  0.97045586474E+03  0.99956997679E+03  0.00000000000E+00 0.  1.
<mgrwt>
<rscale>  0 0.11330203E+04</rscale>
<asrwt>0</asrwt>
<pdfrwt beam="1">  1        2 0.16015913E+00 0.11330203E+04</pdfrwt>
<pdfrwt beam="2">  1       -2 0.47428232E-01 0.11330203E+04</pdfrwt>
<totfact> 0.98972294E+01</totfact>
</mgrwt>
</event>
<event>
 6    1  0.5196787E-004  0.2596683E+04  0.7818608E-02  0.8369329E-01
         -2   -1    0    0    0  501 -0.00000000000E+00  0.00000000000E+00  0.10893509697E+04  0.10893509697E+04  0.00000000000E+00 0. -1.
          2   -1    0    0  501    0  0.00000000000E+00 -0.00000000000E+00 -0.15474265095E+04  0.15474265095E+04  0.00000000000E+00 0.  1.
         23    2    1    2    0    0 -0.26072924348E+03 -0.97767770248E+01  0.10605183613E+04  0.10959326588E+04  0.91070709501E+02 0.  0.
         13    1    3    3    0    0 -0.12449036922E+03  0.28159904201E+02  0.37960995821E+03  0.40049288708E+03  0.00000000000E+00 0.  1.
        -13    1    3    3    0    0 -0.13623887426E+03 -0.37936681226E+02  0.68090840313E+03  0.69543977172E+03  0.00000000000E+00 0. -1.
         22    1    1    2    0    0  0.26072924348E+03  0.97767770248E+01 -0.15185939011E+04  0.15408448203E+04  0.00000000000E+00 0.  1.
<mgrwt>
<rscale>  0 0.25966829E+04</rscale>
<asrwt>0</asrwt>
<pdfrwt beam="1">  1        2 0.23806562E+00 0.25966829E+04</pdfrwt>
<pdfrwt beam="2">  1       -2 0.16759246E+00 0.25966829E+04</pdfrwt>
<totfact> 0.23422796E+00</totfact>
</mgrwt>
</event>
<event>
 6    1  0.5196787E-004  0.6117245E+04  0.7818608E-02  0.7676032E-01
         -2   -1    0    0    0  501 -0.00000000000E+00  0.00000000000E+00  0.22019995118E+04  0.22019995118E+04  0.00000000000E+00 0. -1.
          2   -1    0    0  501    0  0.00000000000E+00 -0.00000000000E+00 -0.42484897722E+04  0.42484897722E+04  0.00000000000E+00 0.  1.
         23    2    1    2    0    0  0.20880229187E+04  0.22333102537E+04 -0.96362300188E+03  0.32070164695E+04  0.94185707901E+02 0.  0.
         13    1    3    3    0    0  0.24242957898E+03  0.22493099556E+03 -0.12261538948E+03  0.35270467429E+03  0.00000000000E+00 0.  1.
        -13    1    3    3    0    0  0.18455933397E+04  0.20083792581E+04 -0.84100761240E+03  0.28543117952E+04  0.00000000000E+00 0. -1.
         22    1    1    2    0    0 -0.20880229187E+04 -0.22333102537E+04 -0.10828672585E+04  0.32434728144E+04  0.00000000000E+00 0. -1.
<mgrwt>
<rscale>  0 0.61172453E+04</rscale>
<asrwt>0</asrwt>
<pdfrwt beam="1">  1        2 0.65361380E+00 0.61172453E+04</pdfrwt>
<pdfrwt beam="2">  1       -2 0.33876916E+00 0.61172453E+04</pdfrwt>
<totfact> 0.25534114E-03</totfact>
</mgrwt>
</event>
<event>
 6    1  0.5196787E-004  0.8672730E+03  0.7818608E-02  0.9467443E-01
          1   -1    0    0  501    0  0.00000000000E+00  0.00000000000E+00  0.11768740217E+04  0.11768740217E+04  0.00000000000E+00 0. -1.
         -1   -1    0    0    0  501 -0.00000000000E+00 -0.00000000000E+00 -0.15977972996E+03  0.15977972996E+03  0.00000000000E+00 0.  1.
         23    2    1    2    0    0 -0.42635677829E+03 -0.34745272621E+02  0.48765154402E+03  0.65599454215E+03  0.97659994839E+02 0.  0.
         11    1    3    3    0    0 -0.12964792932E+03  0.88574820331E+01  0.90609543284E+02  0.15842073696E+03  0.00000000000E+00 0.  1.
        -11    1    3    3    0    0 -0.29670884897E+03 -0.43602754655E+02  0.39704200073E+03  0.49757380520E+03  0.00000000000E+00 0. -1.
         22    1    1    2    0    0  0.42635677829E+03  0.34745272621E+02  0.52944274771E+03  0.68065920949E+03  0.00000000000E+00 0.  1.
<mgrwt>
<rscale>  0 0.86727300E+03</rscale>
<asrwt>0</asrwt>
<pdfrwt beam="1">  1        1 0.18105754E+00 0.86727300E+03</pdfrwt>
<pdfrwt beam="2">  1       -1 0.24581498E-01 0.86727300E+03</pdfrwt>
<totfact> 0.16150387E+02</totfact>
</mgrwt>
</event>
<event>
 6    1  0.5196787E-004  0.6859803E+03  0.7818608E-02  0.9741513E-01
         -2   -1    0    0    0  501 -0.00000000000E+00  0.00000000000E+00  0.87045011993E+02  0.87045011993E+02  0.00000000000E+00 0. -1.
          2   -1    0    0  501    0  0.00000000000E+00 -0.00000000000E+00 -0.13515106100E+04  0.13515106100E+04  0.00000000000E+00 0.  1.
         23    2    1    2    0    0 -0.19311349038E+03 -0.21905256299E+03 -0.29046456554E+03  0.42171991414E+03  0.90560348019E+02 0.  0.
         11    1    3    3    0    0 -0.92064485566E+02 -0.96020363100E+02 -0.71591691309E+02  0.15106670678E+03  0.00000000000E+00 0. -1.
        -11    1    3    3    0    0 -0.10104900481E+03 -0.12303219989E+03 -0.21887287423E+03  0.27065320737E+03  0.00000000000E+00 0.  1.
         22    1    1    2    0    0  0.19311349038E+03  0.21905256299E+03 -0.97400103250E+03  0.10168357079E+04  0.00000000000E+00 0. -1.
<mgrwt>
<rscale>  0 0.68598034E+03</rscale>
<asrwt>0</asrwt>
<pdfrwt beam="1">  1        2 0.20792470E+00 0.68598034E+03</pdfrwt>
<pdfrwt beam="2">  1       -2 0.13391541E-01 0.68598034E+03</pdfrwt>
<totfact> 0.66254404E+02</totfact>
</mgrwt>
</event>
<event>
 6    1  0.5196787E-004  0.1652746E+04  0.7818608E-02  0.8788783E-01
          4   -1    0    0  501    0  0.00000000000E+00  0.00000000000E+00  0.61080600283E+03  0.61080600283E+03  0.00000000000E+00 0.  1.
         -4   -1    0    0    0  501 -0.00000000000E+00 -0.00000000000E+00 -0.11180189946E+04  0.11180189946E+04  0.00000000000E+00 0. -1.
         23    2    1    2    0    0 -0.44098725198E+02 -0.47782418228E+03 -0.95462973409E+03  0.10727439139E+04  0.95921472613E+02 0.  0.
         11    1    3    3    0    0 -0.33853335604E+02 -0.20276926294E+03 -0.50921879766E+03  0.54914952993E+03  0.00000000000E+00 0.  1.
        -11    1    3    3    0    0 -0.10245389594E+02 -0.27505491934E+03 -0.44541093642E+03  0.52359438399E+03  0.00000000000E+00 0. -1.
         22    1    1    2    0    0  0.44098725198E+02  0.47782418228E+03  0.44741674236E+03  0.65608108346E+03  0.00000000000E+00 0.  1.
<mgrwt>
<rscale>  0 0.16527465E+04</rscale>
<asrwt>0</asrwt>
<pdfrwt beam="1">  1        4 0.93970155E-01 0.16527465E+04</pdfrwt>
<pdfrwt beam="2">  1       -4 0.17200292E+00 0.16527465E+04</pdfrwt>
<totfact> 0.37402486E-01</totfact>
</mgrwt>
</event>
<event>
 6    1  0.5196787E-004  0.2066997E+04  0.7818608E-02  0.8575923E-01
         -2   -1    0    0    0  501 -0.00000000000E+00  0.00000000000E+00  0.88967115377E+03  0.88967115377E+03  0.00000000000E+00 0. -1.
          2   -1    0    0  501    0  0.00000000000E+00 -0.00000000000E+00 -0.12005770291E+04  0.12005770291E+04  0.00000000000E+00 0.  1.
         23    2    1    2    0    0 -0.42442330743E+03  0.76694763103E+01  0.79490484191E+03  0.90576040028E+03  0.91292005508E+02 0.  0.
         11    1    3    3    0    0 -0.12588231167E+03 -0.34639245949E+02  0.20069919717E+03  0.23942932463E+03  0.00000000000E+00 0.  1.
        -11    1    3    3    0    0 -0.29854099576E+03  0.42308722259E+02  0.59420564474E+03  0.66633107565E+03  0.00000000000E+00 0. -1.
         22    1    1    2    0    0  0.42442330743E+03 -0.76694763103E+01 -0.11058107173E+04  0.11844877826E+04  0.00000000000E+00 0.  1.
<mgrwt>
<rscale>  0 0.20669966E+04</rscale>
<asrwt>0</asrwt>
<pdfrwt beam="1">  1        2 0.18470416E+00 0.20669966E+04</pdfrwt>
<pdfrwt beam="2">  1       -2 0.13687249E+00 0.20669966E+04</pdfrwt>
<totfact> 0.66606496E+00</totfact>
</mgrwt>
</event>
<event>
 6    1  0.5196787E-004  0.1330975E+04  0.7818608E-02  0.9005356E-01
         -1   -1    0    0    0  501 -0.00000000000E+00  0.00000000000E+00  0.48251134598E+03  0.48251134598E+03  0.00000000000E+00 0. -1.
          1   -1    0    0  501    0  0.00000000000E+00 -0.00000000000E+00 -0.91785049949E+03  0.91785049949E+03  0.00000000000E+00 0.  1.
         23    2    1    2    0    0  0.87999630073E+02  0.59879407704E+03  0.63938078620E+02  0.61577530714E+03  0.93770301224E+02 0.  0.
         13    1    3    3    0    0  0.10593446630E+03  0.48853891905E+03  0.39660545949E+02  0.50146320452E+03  0.00000000000E+00 0. -1.
        -13    1    3    3    0    0 -0.17934836223E+02  0.11025515799E+03  0.24277532671E+02  0.11431210263E+03  0.00000000000E+00 0.  1.
         22    1    1    2    0    0 -0.87999630073E+02 -0.59879407704E+03 -0.49927723213E+03  0.78458653832E+03  0.00000000000E+00 0.  1.
<mgrwt>
<rscale>  0 0.13309745E+04</rscale>
<asrwt>0</asrwt>
<pdfrwt beam="1">  1        1 0.14120777E+00 0.13309745E+04</pdfrwt>
<pdfrwt beam="2">  1       -1 0.74232516E-01 0.13309745E+04</pdfrwt>
<totfact> 0.31516449E+01</totfact>
</mgrwt>
</event>
<event>
 6    1  0.5196787E-004  0.3625358E+04  0.7818608E-02  0.8084708E-01
          2   -1    0    0  501    0  0.00000000000E+00  0.00000000000E+00  0.20203696180E+04  0.20203696180E+04  0.00000000000E+00 0. -1.
         -2   -1    0    0    0  501 -0.00000000000E+00 -0.00000000000E+00 -0.16263385302E+04  0.16263385302E+04  0.00000000000E+00 0.  1.
         23    2    1    2    0    0 -0.78487269053E+03  0.10474900803E+04 -0.10625187363E+04  0.16884441214E+04  0.92934802281E+02 0.  0.
         11    1    3    3    0    0 -0.10324895531E+03  0.10002993005E+03 -0.14066313116E+03  0.20112794471E+03  0.00000000000E+00 0.  1.
        -11    1    3    3    0    0 -0.68162373522E+03  0.94746015030E+03 -0.92185560510E+03  0.14873161767E+04  0.00000000000E+00 0. -1.
         22    1    1    2    0    0  0.78487269053E+03 -0.10474900803E+04  0.14565498240E+04  0.19582640268E+04  0.00000000000E+00 0. -1.
<mgrwt>
<rscale>  0 0.36253579E+04</rscale>
<asrwt>0</asrwt>
<pdfrwt beam="1">  1        2 0.31082610E+00 0.36253579E+04</pdfrwt>
<pdfrwt beam="2">  1       -2 0.25020593E+00 0.36253579E+04</pdfrwt>
<totfact> 0.33923641E-01</totfact>
</mgrwt>
</event>
<event>
 6    1  0.5196787E-004  0.1310609E+04  0.7818608E-02  0.9021194E-01
          1   -1    0    0  501    0  0.00000000000E+00  0.00000000000E+00  0.68923089940E+03  0.68923089940E+03  0.00000000000E+00 0.  1.
         -1   -1    0    0    0  501 -0.00000000000E+00 -0.00000000000E+00 -0.62304824857E+03  0.62304824857E+03  0.00000000000E+00 0. -1.
         23    2    1    2    0    0  0.18028088015E+03  0.30657032778E+03 -0.51426208458E+03  0.63154230272E+03  0.88846085264E+02 0.  0.
         13    1    3    3    0    0 -0.91094731139E+01  0.87459694679E+01 -0.27781681201E+02  0.30517147519E+02  0.00000000000E+00 0. -1.
        -13    1    3    3    0    0  0.18939035327E+03  0.29782435831E+03 -0.48648040338E+03  0.60102515520E+03  0.00000000000E+00 0.  1.
         22    1    1    2    0    0 -0.18028088015E+03 -0.30657032778E+03  0.58044473540E+03  0.68073684525E+03  0.00000000000E+00 0.  1.
<mgrwt>
<rscale>  0 0.13106092E+04</rscale>
<asrwt>0</asrwt>
<pdfrwt beam="1">  1        1 0.10603552E+00 0.13106092E+04</pdfrwt>
<pdfrwt beam="2">  1       -1 0.95853577E-01 0.13106092E+04</pdfrwt>
<totfact> 0.28751549E+01</totfact>
</mgrwt>
</event>
<event>
 6    1  0.5196787E-004  0.3394478E+04  0.7818608E-02  0.8139263E-01
         -2   -1    0    0    0  501 -0.00000000000E+00  0.00000000000E+00  0.21793198482E+04  0.21793198482E+04  0.00000000000E+00 0. -1.
          2   -1    0    0  501    0  0.00000000000E+00 -0.00000000000E+00 -0.13217976511E+04  0.13217976511E+04  0.00000000000E+00 0.  1.
         23    2    1    2    0    0 -0.16627944030E+04 -0.18123039580E+03  0.13979065681E+03  0.16809888646E+04  0.91937218269E+02 0.  0.
         11    1    3    3    0    0 -0.14636751563E+04 -0.16861806608E+03  0.94427079273E+02  0.14763785046E+04  0.00000000000E+00 0. -1.
        -11    1    3    3    0    0 -0.19911924669E+03 -0.12612329721E+02  0.45363577540E+02  0.20461036003E+03  0.00000000000E+00 0.  1.
         22    1    1    2    0    0  0.16627944030E+04  0.18123039580E+03  0.71773154022E+03  0.18201286347E+04  0.00000000000E+00 0. -1.
<mgrwt>
<rscale>  0 0.33944778E+04</rscale>
<asrwt>0</asrwt>
<pdfrwt beam="1">  1        2 0.20335348E+00 0.33944778E+04</pdfrwt>
<pdfrwt beam="2">  1       -2 0.33527998E+00 0.33944778E+04</pdfrwt>
<totfact> 0.25599918E-01</totfact>
</mgrwt>
</event>
<event>
 6    1  0.5196787E-004  0.1210678E+04  0.7818608E-02  0.9103561E-01
         -2   -1    0    0    0  501 -0.00000000000E+00  0.00000000000E+00  0.16232712449E+03  0.16232712449E+03  0.00000000000E+00 0. -1.
          2   -1    0    0  501    0  0.00000000000E+00 -0.00000000000E+00 -0.22573869240E+04  0.22573869240E+04  0.00000000000E+00 0.  1.
         23    2    1    2    0    0  0.38439867625E+03  0.23008211905E+03 -0.18569055718E+04  0.19123507073E+04  0.91031869276E+02 0.  0.
         13    1    3    3    0    0  0.11664116465E+03  0.80393521963E+02 -0.77297251826E+03  0.78584654587E+03  0.00000000000E+00 0.  1.
        -13    1    3    3    0    0  0.26775751159E+03  0.14968859709E+03 -0.10839330536E+04  0.11265041614E+04  0.00000000000E+00 0. -1.
         22    1    1    2    0    0 -0.38439867625E+03 -0.23008211905E+03 -0.23815422765E+03  0.50736334116E+03  0.00000000000E+00 0. -1.
<mgrwt>
<rscale>  0 0.12106777E+04</rscale>
<asrwt>0</asrwt>
<pdfrwt beam="1">  1        2 0.34729027E+00 0.12106777E+04</pdfrwt>
<pdfrwt beam="2">  1       -2 0.24973406E-01 0.12106777E+04</pdfrwt>
<totfact> 0.68163869E+01</totfact>
</mgrwt>
</event>
<event>
 6    1  0.5196787E-004  0.1542996E+04  0.7818608E-02  0.8856354E-01
          2   -1    0    0  501    0  0.00000000000E+00  0.00000000000E+00  0.27653549311E+04  0.27653549311E+04  0.00000000000E+00 0.  1.
         -2   -1    0    0    0  501 -0.00000000000E+00 -0.00000000000E+00 -0.21523795961E+03  0.21523795961E+03  0.00000000000E+00 0. -1.
         23    2    1    2    0    0 -0.35186532528E+03  0.56323071233E+03  0.53119438561E+03  0.85524904788E+03  0.90804273875E+02 0.  0.
         11    1    3    3    0    0 -0.26006370539E+03  0.36036573056E+03  0.31358732321E+03  0.54390587412E+03  0.00000000000E+00 0.  1.
        -11    1    3    3    0    0 -0.91801619893E+02  0.20286498176E+03  0.21760706240E+03  0.31134317376E+03  0.00000000000E+00 0. -1.
         22    1    1    2    0    0  0.35186532528E+03 -0.56323071233E+03  0.20189225858E+04  0.21253438428E+04  0.00000000000E+00 0. -1.
<mgrwt>
<rscale>  0 0.15429962E+04</rscale>
<asrwt>0</asrwt>
<pdfrwt beam="1">  1        2 0.42543919E+00 0.15429962E+04</pdfrwt>
<pdfrwt beam="2">  1       -2 0.33113534E-01 0.15429962E+04</pdfrwt>
<totfact> 0.19987063E+01</totfact>
</mgrwt>
</event>
<event>
 6    1  0.5196787E-004  0.3496625E+04  0.7818608E-02  0.8114590E-01
         -2   -1    0    0    0  501 -0.00000000000E+00  0.00000000000E+00  0.85513465920E+03  0.85513465920E+03  0.00000000000E+00 0. -1.
          2   -1    0    0  501    0  0.00000000000E+00 -0.00000000000E+00 -0.35744028140E+04  0.35744028140E+04  0.00000000000E+00 0.  1.
         23    2    1    2    0    0 -0.51022008924E+03 -0.52958858997E+03 -0.33681508293E+04  0.34488044110E+04  0.94990747779E+02 0.  0.
         11    1    3    3    0    0 -0.23814523693E+03 -0.18102798108E+03 -0.13963827665E+04  0.14280648145E+04  0.00000000000E+00 0. -1.
        -11    1    3    3    0    0 -0.27207485231E+03 -0.34856060889E+03 -0.19717680628E+04  0.20207395965E+04  0.00000000000E+00 0.  1.
         22    1    1    2    0    0  0.51022008924E+03  0.52958858997E+03  0.64888267449E+03  0.98073306223E+03  0.00000000000E+00 0. -1.
<mgrwt>
<rscale>  0 0.34966245E+04</rscale>
<asrwt>0</asrwt>
<pdfrwt beam="1">  1        2 0.54990812E+00 0.34966245E+04</pdfrwt>
<pdfrwt beam="2">  1       -2 0.13155918E+00 0.34966245E+04</pdfrwt>
<totfact> 0.24898397E-01</totfact>
</mgrwt>
</event>
<event>
 6    1  0.5196787E-004  0.1814350E+04  0.7818608E-02  0.8698705E-01
         -2   -1    0    0    0  501 -0.00000000000E+00  0.00000000000E+00  0.73214198568E+03  0.73214198568E+03  0.00000000000E+00 0. -1.
          2   -1    0    0  501    0  0.00000000000E+00 -0.00000000000E+00 -0.11240535327E+04  0.11240535327E+04  0.00000000000E+00 0.  1.
         23    2    1    2    0    0  0.20953333550E+03 -0.21863015180E+03 -0.10685558190E+04  0.11148785600E+04  0.97156076622E+02 0.  0.
         13    1    3    3    0    0  0.36778026197E+02 -0.10499648268E+03 -0.37442559799E+03  0.39060390809E+03  0.00000000000E+00 0.  1.
        -13    1    3    3    0    0  0.17275530930E+03 -0.11363366912E+03 -0.69413022098E+03  0.72427465186E+03  0.00000000000E+00 0. -1.
         22    1    1    2    0    0 -0.20953333550E+03  0.21863015180E+03  0.67664427199E+03  0.74131695838E+03  0.00000000000E+00 0. -1.
<mgrwt>
<rscale>  0 0.18143503E+04</rscale>
<asrwt>0</asrwt>
<pdfrwt beam="1">  1        2 0.17293131E+00 0.18143503E+04</pdfrwt>
<pdfrwt beam="2">  1       -2 0.11263723E+00 0.18143503E+04</pdfrwt>
<totfact> 0.12317926E+01</totfact>
</mgrwt>
</event>
<event>
 6    1  0.5196787E-004  0.2460407E+04  0.7818608E-02  0.8417228E-01
          2   -1    0    0  501    0  0.00000000000E+00  0.00000000000E+00  0.18411475948E+04  0.18411475948E+04  0.00000000000E+00 0.  1.
         -2   -1    0    0    0  501 -0.00000000000E+00 -0.00000000000E+00 -0.82198775548E+03  0.82198775548E+03  0.00000000000E+00 0. -1.
         23    2    1    2    0    0  0.11972774648E+03 -0.11911157144E+04  0.80885280403E+03  0.14476846407E+04  0.91959675480E+02 0.  0.
         11    1    3    3    0    0  0.40069673622E+02 -0.24788351020E+03  0.12937153550E+03  0.28246912675E+03  0.00000000000E+00 0. -1.
        -11    1    3    3    0    0  0.79658072854E+02 -0.94323220421E+03  0.67948126853E+03  0.11652155139E+04  0.00000000000E+00 0.  1.
         22    1    1    2    0    0 -0.11972774648E+03  0.11911157144E+04  0.21030703529E+03  0.12154507096E+04  0.00000000000E+00 0. -1.
<mgrwt>
<rscale>  0 0.24604071E+04</rscale>
<asrwt>0</asrwt>
<pdfrwt beam="1">  1        2 0.28325347E+00 0.24604071E+04</pdfrwt>
<pdfrwt beam="2">  1       -2 0.12645966E+00 0.24604071E+04</pdfrwt>
<totfact> 0.34115540E+00</totfact>
</mgrwt>
</event>
<event>
 6    1  0.5337602E-004  0.4553529E+04  0.7818608E-02  0.7901332E-01
         -2   -1    0    0    0  501 -0.00000000000E+00  0.00000000000E+00  0.22996009895E+04  0.22996009895E+04  0.00000000000E+00 0. -1.
          2   -1    0    0  501    0  0.00000000000E+00 -0.00000000000E+00 -0.22541545294E+04  0.22541545294E+04  0.00000000000E+00 0.  1.
         23    2    1    2    0    0 -0.11789815591E+04  0.14706922707E+04  0.12981747140E+04  0.22905141817E+04  0.90908507375E+02 0.  0.
         13    1    3    3    0    0 -0.56474790495E+03  0.69548737271E+03  0.56240559450E+03  0.10578009900E+04  0.00000000000E+00 0.  1.
        -13    1    3    3    0    0 -0.61423365417E+03  0.77520489802E+03  0.73576911951E+03  0.12327131917E+04  0.00000000000E+00 0. -1.
         22    1    1    2    0    0  0.11789815591E+04 -0.14706922707E+04 -0.12527282539E+04  0.22632413371E+04  0.00000000000E+00 0.  1.
<mgrwt>
<rscale>  0 0.45535287E+04</rscale>
<asrwt>0</asrwt>
<pdfrwt beam="1">  1        2 0.34679300E+00 0.45535287E+04</pdfrwt>
<pdfrwt beam="2">  1       -2 0.35378477E+00 0.45535287E+04</pdfrwt>
<totfact> 0.53468684E-02</totfact>
</mgrwt>
</event>
<event>
 6    1  0.5196787E-004  0.4223963E+04  0.7818608E-02  0.7960830E-01
         -2   -1    0    0    0  501 -0.00000000000E+00  0.00000000000E+00  0.16440205647E+04  0.16440205647E+04  0.00000000000E+00 0. -1.
          2   -1    0    0  501    0  0.00000000000E+00 -0.00000000000E+00 -0.27131453042E+04  0.27131453042E+04  0.00000000000E+00 0.  1.
         23    2    1    2    0    0  0.19507348865E+04  0.32901018146E+03  0.22513713594E+03  0.19931167790E+04  0.90628183943E+02 0.  0.
         13    1    3    3    0    0  0.19147310557E+04  0.32649251632E+03  0.23265084167E+03  0.19562512091E+04  0.00000000000E+00 0. -1.
        -13    1    3    3    0    0  0.36003830795E+02  0.25176651396E+01 -0.75137057296E+01  0.36865569892E+02  0.00000000000E+00 0.  1.
         22    1    1    2    0    0 -0.19507348865E+04 -0.32901018146E+03 -0.12942618755E+04  0.23640490899E+04  0.00000000000E+00 0.  1.
<mgrwt>
<rscale>  0 0.42239634E+04</rscale>
<asrwt>0</asrwt>
<pdfrwt beam="1">  1        2 0.41740697E+00 0.42239634E+04</pdfrwt>
<pdfrwt beam="2">  1       -2 0.25292624E+00 0.42239634E+04</pdfrwt>
<totfact> 0.12455665E-01</totfact>
</mgrwt>
</event>
<event>
 6    1  0.5196787E-004  0.1050234E+04  0.7818608E-02  0.9255102E-01
          2   -1    0    0  501    0  0.00000000000E+00  0.00000000000E+00  0.12412187454E+04  0.12412187454E+04  0.00000000000E+00 0.  1.
         -2   -1    0    0    0  501 -0.00000000000E+00 -0.00000000000E+00 -0.22215911281E+03  0.22215911281E+03  0.00000000000E+00 0. -1.
         23    2    1    2    0    0  0.39517392258E+03 -0.70224822079E+02  0.49789417231E+02  0.41429315949E+03  0.89810251140E+02 0.  0.
         13    1    3    3    0    0  0.11868291213E+03  0.16821805544E+02  0.31013056434E+02  0.12381605891E+03  0.00000000000E+00 0. -1.
        -13    1    3    3    0    0  0.27649101045E+03 -0.87046627623E+02  0.18776360797E+02  0.29047710058E+03  0.00000000000E+00 0.  1.
         22    1    1    2    0    0 -0.39517392258E+03  0.70224822079E+02  0.96927021534E+03  0.10490846987E+04  0.00000000000E+00 0.  1.
<mgrwt>
<rscale>  0 0.10502344E+04</rscale>
<asrwt>0</asrwt>
<pdfrwt beam="1">  1        2 0.19095673E+00 0.10502344E+04</pdfrwt>
<pdfrwt beam="2">  1       -2 0.34178326E-01 0.10502344E+04</pdfrwt>
<totfact> 0.14272085E+02</totfact>
</mgrwt>
</event>
<event>
 6    1  0.5196787E-004  0.2826828E+04  0.7818608E-02  0.8294988E-01
          2   -1    0    0  501    0  0.00000000000E+00  0.00000000000E+00  0.44875344435E+04  0.44875344435E+04  0.00000000000E+00 0.  1.
         -2   -1    0    0    0  501 -0.00000000000E+00 -0.00000000000E+00 -0.44517511212E+03  0.44517511212E+03  0.00000000000E+00 0. -1.
         23    2    1    2    0    0  0.75549059424E+03  0.31505051360E+03  0.16013145844E+02  0.82400094221E+03  0.93264504583E+02 0.  0.
         13    1    3    3    0    0  0.68290632680E+03  0.30499800347E+03 -0.44015260279E+01  0.74793329030E+03  0.00000000000E+00 0.  1.
        -13    1    3    3    0    0  0.72584267444E+02  0.10052510136E+02  0.20414671872E+02  0.76067651917E+02  0.00000000000E+00 0. -1.
         22    1    1    2    0    0 -0.75549059424E+03 -0.31505051360E+03  0.40263461855E+04  0.41087086134E+04  0.00000000000E+00 0.  1.
<mgrwt>
<rscale>  0 0.28268277E+04</rscale>
<asrwt>0</asrwt>
<pdfrwt beam="1">  1        2 0.69038988E+00 0.28268277E+04</pdfrwt>
<pdfrwt beam="2">  1       -2 0.68488482E-01 0.28268277E+04</pdfrwt>
<totfact> 0.21450438E-01</totfact>
</mgrwt>
</event>
<event>
 6    1  0.5196787E-004  0.2562660E+04  0.7818608E-02  0.8380996E-01
          2   -1    0    0  501    0  0.00000000000E+00  0.00000000000E+00  0.10295591826E+04  0.10295591826E+04  0.00000000000E+00 0.  1.
         -2   -1    0    0    0  501 -0.00000000000E+00 -0.00000000000E+00 -0.15946699587E+04  0.15946699587E+04  0.00000000000E+00 0. -1.
         23    2    1    2    0    0  0.12007403006E+04  0.39957147126E+03 -0.47771008457E+03  0.13557365277E+04  0.91542216505E+02 0.  0.
         13    1    3    3    0    0  0.56125112008E+03  0.14253105243E+03 -0.19909316115E+03  0.61233651493E+03  0.00000000000E+00 0. -1.
        -13    1    3    3    0    0  0.63948918052E+03  0.25704041883E+03 -0.27861692341E+03  0.74340001273E+03  0.00000000000E+00 0.  1.
         22    1    1    2    0    0 -0.12007403006E+04 -0.39957147126E+03 -0.87400691549E+02  0.12684926137E+04  0.00000000000E+00 0. -1.
<mgrwt>
<rscale>  0 0.25626604E+04</rscale>
<asrwt>0</asrwt>
<pdfrwt beam="1">  1        2 0.15839372E+00 0.25626604E+04</pdfrwt>
<pdfrwt beam="2">  1       -2 0.24533384E+00 0.25626604E+04</pdfrwt>
<totfact> 0.14690219E+00</totfact>
</mgrwt>
</event>
<event>
 6    1  0.5196787E-004  0.1835231E+04  0.7818608E-02  0.8687785E-01
         -2   -1    0    0    0  501 -0.00000000000E+00  0.00000000000E+00  0.19836344599E+04  0.19836344599E+04  0.00000000000E+00 0. -1.
          2   -1    0    0  501    0  0.00000000000E+00 -0.00000000000E+00 -0.42448269620E+03  0.42448269620E+03  0.00000000000E+00 0.  1.
         23    2    1    2    0    0 -0.57766059594E+03 -0.68632696367E+03  0.10201459540E+04  0.13615686728E+04  0.91842353567E+02 0.  0.
         11    1    3    3    0    0 -0.38537065976E+03 -0.39557219462E+03  0.65502595867E+03  0.85676537809E+03  0.00000000000E+00 0. -1.
        -11    1    3    3    0    0 -0.19228993618E+03 -0.29075476906E+03  0.36511999537E+03  0.50480329467E+03  0.00000000000E+00 0.  1.
         22    1    1    2    0    0  0.57766059594E+03  0.68632696367E+03  0.53900580968E+03  0.10465484834E+04  0.00000000000E+00 0.  1.
<mgrwt>
<rscale>  0 0.18352313E+04</rscale>
<asrwt>0</asrwt>
<pdfrwt beam="1">  1        2 0.65305032E-01 0.18352313E+04</pdfrwt>
<pdfrwt beam="2">  1       -2 0.30517453E+00 0.18352313E+04</pdfrwt>
<totfact> 0.20713296E+00</totfact>
</mgrwt>
</event>
<event>
 6    1  0.5196787E-004  0.3199142E+04  0.7818608E-02  0.8189044E-01
         -1   -1    0    0    0  501 -0.00000000000E+00  0.00000000000E+00  0.11699687698E+04  0.11699687698E+04  0.00000000000E+00 0. -1.
          1   -1    0    0  501    0  0.00000000000E+00 -0.00000000000E+00 -0.21869191834E+04  0.21869191834E+04  0.00000000000E+00 0.  1.
         23    2    1    2    0    0  0.96840709955E+03  0.26235958534E+03 -0.18143295745E+04  0.20753036256E+04  0.91915563462E+02 0.  0.
         13    1    3    3    0    0  0.42539677850E+03  0.69150105025E+02 -0.79562136698E+03  0.90485220660E+03  0.00000000000E+00 0.  1.
        -13    1    3    3    0    0  0.54301032105E+03  0.19320948031E+03 -0.10187082076E+04  0.11704514190E+04  0.00000000000E+00 0. -1.
         22    1    1    2    0    0 -0.96840709955E+03 -0.26235958534E+03  0.79737916095E+03  0.12815843276E+04  0.00000000000E+00 0. -1.
<mgrwt>
<rscale>  0 0.31991419E+04</rscale>
<asrwt>0</asrwt>
<pdfrwt beam="1">  1        1 0.33644910E+00 0.31991419E+04</pdfrwt>
<pdfrwt beam="2">  1       -1 0.17999520E+00 0.31991419E+04</pdfrwt>
<totfact> 0.38722875E-01</totfact>
</mgrwt>
</event>
<event>
 6    1  0.5196787E-004  0.2137524E+04  0.7818608E-02  0.8544891E-01
         -2   -1    0    0    0  501 -0.00000000000E+00  0.00000000000E+00  0.35459796408E+03  0.35459796408E+03  0.00000000000E+00 0. -1.
          2   -1    0    0  501    0  0.00000000000E+00 -0.00000000000E+00 -0.32212602913E+04  0.32212602913E+04  0.00000000000E+00 0.  1.
         23    2    1    2    0    0 -0.19832833636E+03  0.16668120016E+03 -0.31672196543E+04  0.31790567201E+04  0.89468089195E+02 0.  0.
         13    1    3    3    0    0 -0.13009948122E+03  0.81223911296E+02 -0.22743478993E+04  0.22795134494E+04  0.00000000000E+00 0. -1.
        -13    1    3    3    0    0 -0.68228855142E+02  0.85457288859E+02 -0.89287175504E+03  0.89954327068E+03  0.00000000000E+00 0.  1.
         22    1    1    2    0    0  0.19832833636E+03 -0.16668120016E+03  0.30055732717E+03  0.39680153528E+03  0.00000000000E+00 0. -1.
<mgrwt>
<rscale>  0 0.21375241E+04</rscale>
<asrwt>0</asrwt>
<pdfrwt beam="1">  1        2 0.49557851E+00 0.21375241E+04</pdfrwt>
<pdfrwt beam="2">  1       -2 0.54553533E-01 0.21375241E+04</pdfrwt>
<totfact> 0.36577904E+00</totfact>
</mgrwt>
</event>
<event>
 6    1  0.5196787E-004  0.3437572E+04  0.7818608E-02  0.8128746E-01
         -2   -1    0    0    0  501 -0.00000000000E+00  0.00000000000E+00  0.10844135658E+04  0.10844135658E+04  0.00000000000E+00 0. -1.
          2   -1    0    0  501    0  0.00000000000E+00 -0.00000000000E+00 -0.27242606178E+04  0.27242606178E+04  0.00000000000E+00 0.  1.
         23    2    1    2    0    0  0.45916853321E+03  0.15042607262E+04 -0.15852740635E+04  0.22349479414E+04  0.90897579216E+02 0.  0.
         11    1    3    3    0    0  0.34053503249E+03  0.10000391619E+04 -0.11005132117E+04  0.15255070510E+04  0.00000000000E+00 0.  1.
        -11    1    3    3    0    0  0.11863350071E+03  0.50422156437E+03 -0.48476085183E+03  0.70944089037E+03  0.00000000000E+00 0. -1.
         22    1    1    2    0    0 -0.45916853321E+03 -0.15042607262E+04 -0.54572988547E+02  0.15737262422E+04  0.00000000000E+00 0. -1.
<mgrwt>
<rscale>  0 0.34375719E+04</rscale>
<asrwt>0</asrwt>
<pdfrwt beam="1">  1        2 0.41911702E+00 0.34375719E+04</pdfrwt>
<pdfrwt beam="2">  1       -2 0.16683286E+00 0.34375719E+04</pdfrwt>
<totfact> 0.47617790E-01</totfact>
</mgrwt>
</event>
<event>
 6    1  0.5196787E-004  0.3485006E+04  0.7818608E-02  0.8117353E-01
          2   -1    0    0  501    0  0.00000000000E+00  0.00000000000E+00  0.25596140254E+04  0.25596140254E+04  0.00000000000E+00 0.  1.
         -2   -1    0    0    0  501 -0.00000000000E+00 -0.00000000000E+00 -0.11862401337E+04  0.11862401337E+04  0.00000000000E+00 0. -1.
         23    2    1    2    0    0  0.89731553273E+03  0.83194512336E+02 -0.91429712983E+03  0.12870871521E+04  0.92507314753E+02 0.  0.
         11    1    3    3    0    0  0.38552762246E+03  0.54475992310E+02 -0.45469768511E+03  0.59862272448E+03  0.00000000000E+00 0.  1.
        -11    1    3    3    0    0  0.51178791027E+03  0.28718520026E+02 -0.45959944471E+03  0.68846442760E+03  0.00000000000E+00 0. -1.
         22    1    1    2    0    0 -0.89731553273E+03 -0.83194512336E+02  0.22876710216E+04  0.24587670071E+04  0.00000000000E+00 0.  1.
<mgrwt>
<rscale>  0 0.34850061E+04</rscale>
<asrwt>0</asrwt>
<pdfrwt beam="1">  1        2 0.39378677E+00 0.34850061E+04</pdfrwt>
<pdfrwt beam="2">  1       -2 0.18249848E+00 0.34850061E+04</pdfrwt>
<totfact> 0.46071705E-01</totfact>
</mgrwt>
</event>
<event>
 6    1  0.5196787E-004  0.6732416E+03  0.7818608E-02  0.9764119E-01
          2   -1    0    0  501    0  0.00000000000E+00  0.00000000000E+00  0.36086097242E+04  0.36086097242E+04  0.00000000000E+00 0.  1.
         -2   -1    0    0    0  501 -0.00000000000E+00 -0.00000000000E+00 -0.31400895333E+02  0.31400895333E+02  0.00000000000E+00 0. -1.
         23    2    1    2    0    0  0.46244375147E+02 -0.13896713089E+03  0.34228497570E+04  0.34272263890E+04  0.92357223186E+02 0.  0.
         11    1    3    3    0    0  0.53784017079E+02 -0.12659743663E+03  0.22026080935E+04  0.22068987392E+04  0.00000000000E+00 0. -1.
        -11    1    3    3    0    0 -0.75396419321E+01 -0.12369694261E+02  0.12202416635E+04  0.12203276498E+04  0.00000000000E+00 0.  1.
         22    1    1    2    0    0 -0.46244375147E+02  0.13896713089E+03  0.15435907185E+03  0.21278423053E+03  0.00000000000E+00 0. -1.
<mgrwt>
<rscale>  0 0.67324164E+03</rscale>
<asrwt>0</asrwt>
<pdfrwt beam="1">  1        2 0.55517040E+00 0.67324164E+03</pdfrwt>
<pdfrwt beam="2">  1       -2 0.48309098E-02 0.67324164E+03</pdfrwt>
<totfact> 0.16205135E+02</totfact>
</mgrwt>
</event>
<event>
 6    1  0.5196787E-004  0.1826473E+04  0.7818608E-02  0.8692347E-01
         -2   -1    0    0    0  501 -0.00000000000E+00  0.00000000000E+00  0.13692853062E+04  0.13692853062E+04  0.00000000000E+00 0. -1.
          2   -1    0    0  501    0  0.00000000000E+00 -0.00000000000E+00 -0.60907770270E+03  0.60907770270E+03  0.00000000000E+00 0.  1.
         23    2    1    2    0    0  0.60641966304E+03  0.17126539966E+02  0.11170256162E+04  0.12745468254E+04  0.93194724940E+02 0.  0.
         13    1    3    3    0    0  0.36210834230E+03  0.10362656304E+02  0.75947093618E+03  0.84144277233E+03  0.00000000000E+00 0. -1.
        -13    1    3    3    0    0  0.24431132074E+03  0.67638836622E+01  0.35755467999E+03  0.43310405302E+03  0.00000000000E+00 0.  1.
         22    1    1    2    0    0 -0.60641966304E+03 -0.17126539966E+02 -0.35681801265E+03  0.70381618356E+03  0.00000000000E+00 0.  1.
<mgrwt>
<rscale>  0 0.18264733E+04</rscale>
<asrwt>0</asrwt>
<pdfrwt beam="1">  1        2 0.93704262E-01 0.18264733E+04</pdfrwt>
<pdfrwt beam="2">  1       -2 0.21065928E+00 0.18264733E+04</pdfrwt>
<totfact> 0.51985671E+00</totfact>
</mgrwt>
</event>
<event>
 6    1  0.5196787E-004  0.1248464E+04  0.7818608E-02  0.9071462E-01
         -1   -1    0    0    0  501 -0.00000000000E+00  0.00000000000E+00  0.19432329604E+03  0.19432329604E+03  0.00000000000E+00 0. -1.
          1   -1    0    0  501    0  0.00000000000E+00 -0.00000000000E+00 -0.20052450340E+04  0.20052450340E+04  0.00000000000E+00 0.  1.
         23    2    1    2    0    0 -0.37050501807E+03  0.32915508658E+03 -0.15692436993E+04  0.16481834248E+04  0.91464606819E+02 0.  0.
         13    1    3    3    0    0 -0.27626379264E+03  0.20540883432E+03 -0.97800157206E+03  0.10368228138E+04  0.00000000000E+00 0. -1.
        -13    1    3    3    0    0 -0.94241225432E+02  0.12374625227E+03 -0.59124212728E+03  0.61136061092E+03  0.00000000000E+00 0.  1.
         22    1    1    2    0    0  0.37050501807E+03 -0.32915508658E+03 -0.24167803866E+03  0.55138490531E+03  0.00000000000E+00 0. -1.
<mgrwt>
<rscale>  0 0.12484644E+04</rscale>
<asrwt>0</asrwt>
<pdfrwt beam="1">  1        1 0.30849926E+00 0.12484644E+04</pdfrwt>
<pdfrwt beam="2">  1       -1 0.29895889E-01 0.12484644E+04</pdfrwt>
<totfact> 0.29974757E+01</totfact>
</mgrwt>
</event>
<event>
 6    1  0.5196787E-004  0.4948120E+04  0.7818608E-02  0.7836560E-01
          4   -1    0    0  501    0  0.00000000000E+00  0.00000000000E+00  0.34160206135E+04  0.34160206135E+04  0.00000000000E+00 0.  1.
         -4   -1    0    0    0  501 -0.00000000000E+00 -0.00000000000E+00 -0.17918433737E+04  0.17918433737E+04  0.00000000000E+00 0. -1.
         23    2    1    2    0    0 -0.72484881855E+03  0.50987315227E+03  0.32425790131E+04  0.33627079663E+04  0.90054256903E+02 0.  0.
         13    1    3    3    0    0 -0.27383707012E+03  0.24292807823E+03  0.13959052968E+04  0.14431051209E+04  0.00000000000E+00 0. -1.
        -13    1    3    3    0    0 -0.45101174844E+03  0.26694507405E+03  0.18466737163E+04  0.19196028454E+04  0.00000000000E+00 0.  1.
         22    1    1    2    0    0  0.72484881855E+03 -0.50987315227E+03 -0.16184017733E+04  0.18451560208E+04  0.00000000000E+00 0. -1.
<mgrwt>
<rscale>  0 0.49481204E+04</rscale>
<asrwt>0</asrwt>
<pdfrwt beam="1">  1        4 0.52554163E+00 0.49481204E+04</pdfrwt>
<pdfrwt beam="2">  1       -4 0.27566821E+00 0.49481204E+04</pdfrwt>
<totfact> 0.45981318E-05</totfact>
</mgrwt>
</event>
<event>
 6    1  0.5196787E-004  0.5896566E+04  0.7818608E-02  0.7703360E-01
          2   -1    0    0  501    0  0.00000000000E+00  0.00000000000E+00  0.41330004686E+04  0.41330004686E+04  0.00000000000E+00 0.  1.
         -2   -1    0    0    0  501 -0.00000000000E+00 -0.00000000000E+00 -0.21031630497E+04  0.21031630497E+04  0.00000000000E+00 0. -1.
         23    2    1    2    0    0  0.87223555122E+03  0.10637285291E+04 -0.17417339359E+04  0.22215572207E+04  0.96778824210E+02 0.  0.
         13    1    3    3    0    0  0.45949481866E+03  0.52070748039E+03 -0.94526596695E+03  0.11729448055E+04  0.00000000000E+00 0. -1.
        -13    1    3    3    0    0  0.41274073256E+03  0.54302104874E+03 -0.79646796900E+03  0.10486124152E+04  0.00000000000E+00 0.  1.
         22    1    1    2    0    0 -0.87223555122E+03 -0.10637285291E+04  0.37715713548E+04  0.40146062976E+04  0.00000000000E+00 0.  1.
<mgrwt>
<rscale>  0 0.58965664E+04</rscale>
<asrwt>0</asrwt>
<pdfrwt beam="1">  1        2 0.63584622E+00 0.58965664E+04</pdfrwt>
<pdfrwt beam="2">  1       -2 0.32356355E+00 0.58965664E+04</pdfrwt>
<totfact> 0.40715435E-03</totfact>
</mgrwt>
</event>
<event>
 6    1  0.5196787E-004  0.2866649E+04  0.7818608E-02  0.8282870E-01
          2   -1    0    0  501    0  0.00000000000E+00  0.00000000000E+00  0.10951875356E+04  0.10951875356E+04  0.00000000000E+00 0.  1.
         -2   -1    0    0    0  501 -0.00000000000E+00 -0.00000000000E+00 -0.18758602992E+04  0.18758602992E+04  0.00000000000E+00 0. -1.
         23    2    1    2    0    0 -0.12137966093E+04  0.71814937130E+03 -0.64695014547E+03  0.15543889250E+04  0.92410557551E+02 0.  0.
         13    1    3    3    0    0 -0.81982516230E+03  0.53445618772E+03 -0.44456482660E+03  0.10748928311E+04  0.00000000000E+00 0.  1.
        -13    1    3    3    0    0 -0.39397144696E+03  0.18369318359E+03 -0.20238531887E+03  0.47949609385E+03  0.00000000000E+00 0. -1.
         22    1    1    2    0    0  0.12137966093E+04 -0.71814937130E+03 -0.13372261814E+03  0.14166589098E+04  0.00000000000E+00 0.  1.
<mgrwt>
<rscale>  0 0.28666488E+04</rscale>
<asrwt>0</asrwt>
<pdfrwt beam="1">  1        2 0.16849039E+00 0.28666488E+04</pdfrwt>
<pdfrwt beam="2">  1       -2 0.28859389E+00 0.28666488E+04</pdfrwt>
<totfact> 0.70847195E-01</totfact>
</mgrwt>
</event>
<event>
 6    1  0.5196787E-004  0.1970361E+04  0.7818608E-02  0.8620605E-01
         -2   -1    0    0    0  501 -0.00000000000E+00  0.00000000000E+00  0.57328911556E+03  0.57328911556E+03  0.00000000000E+00 0.  1.
          2   -1    0    0  501    0  0.00000000000E+00 -0.00000000000E+00 -0.16930039784E+04  0.16930039784E+04  0.00000000000E+00 0. -1.
         23    2    1    2    0    0 -0.76834872266E+03 -0.50552981163E+03 -0.16176900043E+03  0.93829443983E+03  0.91143273263E+02 0.  0.
         13    1    3    3    0    0 -0.35872733058E+03 -0.26541131961E+03 -0.11734242466E+03  0.46140839926E+03  0.00000000000E+00 0. -1.
        -13    1    3    3    0    0 -0.40962139207E+03 -0.24011849202E+03 -0.44426575773E+02  0.47688604057E+03  0.00000000000E+00 0.  1.
         22    1    1    2    0    0  0.76834872266E+03  0.50552981163E+03 -0.95794586242E+03  0.13279986541E+04  0.00000000000E+00 0. -1.
<mgrwt>
<rscale>  0 0.19703611E+04</rscale>
<asrwt>0</asrwt>
<pdfrwt beam="1">  1        2 0.26046215E+00 0.19703611E+04</pdfrwt>
<pdfrwt beam="2">  1       -2 0.88198326E-01 0.19703611E+04</pdfrwt>
<totfact> 0.10203209E+01</totfact>
</mgrwt>
</event>
<event>
 6    1  0.5196787E-004  0.1816904E+04  0.7818608E-02  0.8697361E-01
          2   -1    0    0  501    0  0.00000000000E+00  0.00000000000E+00  0.10373521216E+04  0.10373521216E+04  0.00000000000E+00 0.  1.
         -2   -1    0    0    0  501 -0.00000000000E+00 -0.00000000000E+00 -0.79556894399E+03  0.79556894399E+03  0.00000000000E+00 0. -1.
         23    2    1    2    0    0  0.23548547244E+03 -0.81084410534E+03  0.45290384743E+03  0.96258003576E+03  0.92286831820E+02 0.  0.
         11    1    3    3    0    0  0.15527628644E+03 -0.66171037305E+03  0.35133010848E+03  0.76511710741E+03  0.00000000000E+00 0. -1.
        -11    1    3    3    0    0  0.80209186004E+02 -0.14913373229E+03  0.10157373896E+03  0.19746292835E+03  0.00000000000E+00 0.  1.
         22    1    1    2    0    0 -0.23548547244E+03  0.81084410534E+03 -0.21112066986E+03  0.87034102979E+03  0.00000000000E+00 0. -1.
<mgrwt>
<rscale>  0 0.18169041E+04</rscale>
<asrwt>0</asrwt>
<pdfrwt beam="1">  1        2 0.15959264E+00 0.18169041E+04</pdfrwt>
<pdfrwt beam="2">  1       -2 0.12239522E+00 0.18169041E+04</pdfrwt>
<totfact> 0.11363194E+01</totfact>
</mgrwt>
</event>
<event>
 6    1  0.5196787E-004  0.2091046E+04  0.7818608E-02  0.8565198E-01
          2   -1    0    0  501    0  0.00000000000E+00  0.00000000000E+00  0.11356862490E+04  0.11356862490E+04  0.00000000000E+00 0.  1.
         -2   -1    0    0    0  501 -0.00000000000E+00 -0.00000000000E+00 -0.96251834713E+03  0.96251834713E+03  0.00000000000E+00 0. -1.
         23    2    1    2    0    0 -0.42532356413E+03 -0.19648353363E+03 -0.84882252312E+03  0.97394024023E+03  0.92487851031E+02 0.  0.
         11    1    3    3    0    0 -0.62229777778E+02 -0.68510668676E+02 -0.16136008783E+03  0.18601971646E+03  0.00000000000E+00 0. -1.
        -11    1    3    3    0    0 -0.36309378636E+03 -0.12797286496E+03 -0.68746243528E+03  0.78792052377E+03  0.00000000000E+00 0.  1.
         22    1    1    2    0    0  0.42532356413E+03  0.19648353363E+03  0.10219904250E+04  0.11242643559E+04  0.00000000000E+00 0.  1.
<mgrwt>
<rscale>  0 0.20910465E+04</rscale>
<asrwt>0</asrwt>
<pdfrwt beam="1">  1        2 0.17472096E+00 0.20910465E+04</pdfrwt>
<pdfrwt beam="2">  1       -2 0.14807975E+00 0.20910465E+04</pdfrwt>
<totfact> 0.59225141E+00</totfact>
</mgrwt>
</event>
<event>
 6    1  0.5196787E-004  0.2513107E+04  0.7818608E-02  0.8398331E-01
         -1   -1    0    0    0  501 -0.00000000000E+00  0.00000000000E+00  0.83095836883E+03  0.83095836883E+03  0.00000000000E+00 0. -1.
          1   -1    0    0  501    0  0.00000000000E+00 -0.00000000000E+00 -0.19001266181E+04  0.19001266181E+04  0.00000000000E+00 0.  1.
         23    2    1    2    0    0 -0.30986682961E+03 -0.11842371448E+04 -0.23495028898E+03  0.12497495515E+04  0.90759219761E+02 0.  0.
         11    1    3    3    0    0 -0.22492962938E+03 -0.99236494904E+03 -0.20069494013E+03  0.10371402939E+04  0.00000000000E+00 0. -1.
        -11    1    3    3    0    0 -0.84937200228E+02 -0.19187219571E+03 -0.34255348855E+02  0.21260925755E+03  0.00000000000E+00 0.  1.
         22    1    1    2    0    0  0.30986682961E+03  0.11842371448E+04 -0.83421796029E+03  0.14813354355E+04  0.00000000000E+00 0.  1.
<mgrwt>
<rscale>  0 0.25131065E+04</rscale>
<asrwt>0</asrwt>
<pdfrwt beam="1">  1        1 0.29232717E+00 0.25131065E+04</pdfrwt>
<pdfrwt beam="2">  1       -1 0.12783975E+00 0.25131065E+04</pdfrwt>
<totfact> 0.16351264E+00</totfact>
</mgrwt>
</event>
<event>
 6    1  0.5196787E-004  0.1646760E+04  0.7818608E-02  0.8792326E-01
         -2   -1    0    0    0  501 -0.00000000000E+00  0.00000000000E+00  0.72770655519E+03  0.72770655519E+03  0.00000000000E+00 0. -1.
          2   -1    0    0  501    0  0.00000000000E+00 -0.00000000000E+00 -0.93163143938E+03  0.93163143938E+03  0.00000000000E+00 0.  1.
         23    2    1    2    0    0  0.42213894964E+02  0.15773349796E+03  0.70824398042E+03  0.73266981940E+03  0.92377806620E+02 0.  0.
         11    1    3    3    0    0 -0.23696774265E+02  0.71490551998E+02  0.22097988091E+03  0.23346208237E+03  0.00000000000E+00 0.  1.
        -11    1    3    3    0    0  0.65910669229E+02  0.86242945958E+02  0.48726409951E+03  0.49920773703E+03  0.00000000000E+00 0. -1.
         22    1    1    2    0    0 -0.42213894964E+02 -0.15773349796E+03 -0.91216886461E+03  0.92666817517E+03  0.00000000000E+00 0.  1.
<mgrwt>
<rscale>  0 0.16467596E+04</rscale>
<asrwt>0</asrwt>
<pdfrwt beam="1">  1        2 0.14332791E+00 0.16467596E+04</pdfrwt>
<pdfrwt beam="2">  1       -2 0.11195486E+00 0.16467596E+04</pdfrwt>
<totfact> 0.16796409E+01</totfact>
</mgrwt>
</event>
<event>
 6    1  0.5196787E-004  0.9094128E+04  0.7818608E-02  0.7393160E-01
          2   -1    0    0  501    0  0.00000000000E+00  0.00000000000E+00  0.45426217416E+04  0.45426217416E+04  0.00000000000E+00 0.  1.
         -2   -1    0    0    0  501 -0.00000000000E+00 -0.00000000000E+00 -0.45515102022E+04  0.45515102022E+04  0.00000000000E+00 0. -1.
         23    2    1    2    0    0 -0.65307282533E+03 -0.43285037989E+04  0.12239343389E+04  0.45463521220E+04  0.94090906467E+02 0.  0.
         13    1    3    3    0    0 -0.47559494151E+03 -0.29469394020E+04  0.86702209607E+03  0.31084352499E+04  0.00000000000E+00 0. -1.
        -13    1    3    3    0    0 -0.17747788382E+03 -0.13815643969E+04  0.35691224287E+03  0.14379168721E+04  0.00000000000E+00 0.  1.
         22    1    1    2    0    0  0.65307282533E+03  0.43285037989E+04 -0.12328227996E+04  0.45477798218E+04  0.00000000000E+00 0. -1.
<mgrwt>
<rscale>  0 0.90941276E+04</rscale>
<asrwt>0</asrwt>
<pdfrwt beam="1">  1        2 0.69886488E+00 0.90941276E+04</pdfrwt>
<pdfrwt beam="2">  1       -2 0.70023234E+00 0.90941276E+04</pdfrwt>
<totfact> 0.13860641E-05</totfact>
</mgrwt>
</event>
<event>
 6    1  0.5196787E-004  0.3479582E+04  0.7818608E-02  0.8118646E-01
         -2   -1    0    0    0  501 -0.00000000000E+00  0.00000000000E+00  0.86059584513E+03  0.86059584513E+03  0.00000000000E+00 0. -1.
          2   -1    0    0  501    0  0.00000000000E+00 -0.00000000000E+00 -0.35171828073E+04  0.35171828073E+04  0.00000000000E+00 0.  1.
         23    2    1    2    0    0 -0.38542835474E+03  0.16793523847E+04 -0.16215226550E+04  0.23677693070E+04  0.90643928889E+02 0.  0.
         13    1    3    3    0    0 -0.16726997396E+03  0.54015917114E+03 -0.52409370183E+03  0.77098987195E+03  0.00000000000E+00 0. -1.
        -13    1    3    3    0    0 -0.21815838078E+03  0.11391932136E+04 -0.10974289531E+04  0.15967794350E+04  0.00000000000E+00 0.  1.
         22    1    1    2    0    0  0.38542835474E+03 -0.16793523847E+04 -0.10350643072E+04  0.20100093454E+04  0.00000000000E+00 0. -1.
<mgrwt>
<rscale>  0 0.34795821E+04</rscale>
<asrwt>0</asrwt>
<pdfrwt beam="1">  1        2 0.54110505E+00 0.34795821E+04</pdfrwt>
<pdfrwt beam="2">  1       -2 0.13239936E+00 0.34795821E+04</pdfrwt>
<totfact> 0.26938075E-01</totfact>
</mgrwt>
</event>
<event>
 6    1  0.5196787E-004  0.2671444E+04  0.7818608E-02  0.8344330E-01
          2   -1    0    0  501    0  0.00000000000E+00  0.00000000000E+00  0.36134994595E+04  0.36134994595E+04  0.00000000000E+00 0.  1.
         -2   -1    0    0    0  501 -0.00000000000E+00 -0.00000000000E+00 -0.49374664741E+03  0.49374664741E+03  0.00000000000E+00 0. -1.
         23    2    1    2    0    0 -0.39366259459E+03  0.10072826649E+04  0.27627712463E+04  0.29683762971E+04  0.93617712721E+02 0.  0.
         13    1    3    3    0    0 -0.18909606096E+03  0.37992719258E+03  0.10120098820E+04  0.10973905381E+04  0.00000000000E+00 0.  1.
        -13    1    3    3    0    0 -0.20456653363E+03  0.62735547235E+03  0.17507613643E+04  0.18709857589E+04  0.00000000000E+00 0. -1.
         22    1    1    2    0    0  0.39366259459E+03 -0.10072826649E+04  0.35698156577E+03  0.11388698098E+04  0.00000000000E+00 0. -1.
<mgrwt>
<rscale>  0 0.26714440E+04</rscale>
<asrwt>0</asrwt>
<pdfrwt beam="1">  1        2 0.55592298E+00 0.26714440E+04</pdfrwt>
<pdfrwt beam="2">  1       -2 0.75961025E-01 0.26714440E+04</pdfrwt>
<totfact> 0.92203752E-01</totfact>
</mgrwt>
</event>
<event>
 6    1  0.5196787E-004  0.9879717E+03  0.7818608E-02  0.9321837E-01
         -2   -1    0    0    0  501 -0.00000000000E+00  0.00000000000E+00  0.78717103135E+02  0.78717103135E+02  0.00000000000E+00 0. -1.
          2   -1    0    0  501    0  0.00000000000E+00 -0.00000000000E+00 -0.30999871726E+04  0.30999871726E+04  0.00000000000E+00 0.  1.
         23    2    1    2    0    0  0.39142231314E+03 -0.23528287746E+03 -0.95806617392E+03  0.10655597529E+04  0.94643192123E+02 0.  0.
         11    1    3    3    0    0  0.19983872314E+03 -0.83680568890E+02 -0.36999497679E+03  0.42875894827E+03  0.00000000000E+00 0. -1.
        -11    1    3    3    0    0  0.19158359000E+03 -0.15160230857E+03 -0.58807119713E+03  0.63680080466E+03  0.00000000000E+00 0.  1.
         22    1    1    2    0    0 -0.39142231314E+03  0.23528287746E+03 -0.20632038955E+04  0.21131445228E+04  0.00000000000E+00 0.  1.
<mgrwt>
<rscale>  0 0.98797168E+03</rscale>
<asrwt>0</asrwt>
<pdfrwt beam="1">  1        2 0.47692107E+00 0.98797168E+03</pdfrwt>
<pdfrwt beam="2">  1       -2 0.12110324E-01 0.98797168E+03</pdfrwt>
<totfact> 0.77678760E+01</totfact>
</mgrwt>
</event>
<event>
 6    1  0.5196787E-004  0.3872850E+04  0.7818608E-02  0.8030700E-01
          2   -1    0    0  501    0  0.00000000000E+00  0.00000000000E+00  0.20318261557E+04  0.20318261557E+04  0.00000000000E+00 0.  1.
         -2   -1    0    0    0  501 -0.00000000000E+00 -0.00000000000E+00 -0.18455031443E+04  0.18455031443E+04  0.00000000000E+00 0. -1.
         23    2    1    2    0    0 -0.98448344200E+03 -0.24184516419E+03  0.17437394585E+04  0.20190390318E+04  0.90523929938E+02 0.  0.
         13    1    3    3    0    0 -0.76827186404E+03 -0.18721581426E+03  0.12818326663E+04  0.15061163310E+04  0.00000000000E+00 0.  1.
        -13    1    3    3    0    0 -0.21621157796E+03 -0.54629349934E+02  0.46190679217E+03  0.51292270078E+03  0.00000000000E+00 0. -1.
         22    1    1    2    0    0  0.98448344200E+03  0.24184516419E+03 -0.15574164471E+04  0.18582902681E+04  0.00000000000E+00 0. -1.
<mgrwt>
<rscale>  0 0.38728499E+04</rscale>
<asrwt>0</asrwt>
<pdfrwt beam="1">  1        2 0.31258864E+00 0.38728499E+04</pdfrwt>
<pdfrwt beam="2">  1       -2 0.28392356E+00 0.38728499E+04</pdfrwt>
<totfact> 0.20375666E-01</totfact>
</mgrwt>
</event>
<event>
 6    1  0.5196787E-004  0.1826286E+04  0.7818608E-02  0.8692445E-01
          2   -1    0    0  501    0  0.00000000000E+00  0.00000000000E+00  0.13423506954E+04  0.13423506954E+04  0.00000000000E+00 0.  1.
         -2   -1    0    0    0  501 -0.00000000000E+00 -0.00000000000E+00 -0.62117131046E+03  0.62117131046E+03  0.00000000000E+00 0. -1.
         23    2    1    2    0    0  0.78821173175E+03 -0.13787826480E+03 -0.10628842382E+03  0.81243941781E+03  0.92045796234E+02 0.  0.
         13    1    3    3    0    0  0.55375135707E+03 -0.62155188396E+02 -0.98942652735E+02  0.56594476889E+03  0.00000000000E+00 0.  1.
        -13    1    3    3    0    0  0.23446037468E+03 -0.75723076408E+02 -0.73457710844E+01  0.24649464893E+03  0.00000000000E+00 0. -1.
         22    1    1    2    0    0 -0.78821173175E+03  0.13787826480E+03  0.82746780877E+03  0.11510825881E+04  0.00000000000E+00 0.  1.
<mgrwt>
<rscale>  0 0.18262856E+04</rscale>
<asrwt>0</asrwt>
<pdfrwt beam="1">  1        2 0.20651549E+00 0.18262856E+04</pdfrwt>
<pdfrwt beam="2">  1       -2 0.95564817E-01 0.18262856E+04</pdfrwt>
<totfact> 0.13527927E+01</totfact>
</mgrwt>
</event>
<event>
 6    1  0.5196787E-004  0.4123750E+04  0.7818608E-02  0.7980037E-01
          2   -1    0    0  501    0  0.00000000000E+00  0.00000000000E+00  0.27320832151E+04  0.27320832151E+04  0.00000000000E+00 0.  1.
         -2   -1    0    0    0  501 -0.00000000000E+00 -0.00000000000E+00 -0.15560756740E+04  0.15560756740E+04  0.00000000000E+00 0. -1.
         23    2    1    2    0    0 -0.13303216806E+04  0.46952349289E+03 -0.97398002912E+03  0.17166506475E+04  0.89689822814E+02 0.  0.
         13    1    3    3    0    0 -0.10364457238E+04  0.37095450833E+03 -0.80365723178E+03  0.13629717282E+04  0.00000000000E+00 0.  1.
        -13    1    3    3    0    0 -0.29387595679E+03  0.98568984558E+02 -0.17032279734E+03  0.35367891935E+03  0.00000000000E+00 0. -1.
         22    1    1    2    0    0  0.13303216806E+04 -0.46952349289E+03  0.21499875702E+04  0.25715082415E+04  0.00000000000E+00 0.  1.
<mgrwt>
<rscale>  0 0.41237499E+04</rscale>
<asrwt>0</asrwt>
<pdfrwt beam="1">  1        2 0.42032049E+00 0.41237499E+04</pdfrwt>
<pdfrwt beam="2">  1       -2 0.23939626E+00 0.41237499E+04</pdfrwt>
<totfact> 0.14824916E-01</totfact>
</mgrwt>
</event>
<event>
 6    1  0.5196787E-004  0.7465545E+04  0.7818608E-02  0.7531240E-01
         -2   -1    0    0    0  501 -0.00000000000E+00  0.00000000000E+00  0.41808976767E+04  0.41808976767E+04  0.00000000000E+00 0. -1.
          2   -1    0    0  501    0  0.00000000000E+00 -0.00000000000E+00 -0.33326794876E+04  0.33326794876E+04  0.00000000000E+00 0.  1.
         23    2    1    2    0    0  0.28678729564E+04  0.18035960614E+03 -0.19725927302E+04  0.34868912908E+04  0.10031905763E+03 0.  0.
         11    1    3    3    0    0  0.14936541083E+04  0.87920996335E+02 -0.96672338096E+03  0.17813721655E+04  0.00000000000E+00 0. -1.
        -11    1    3    3    0    0  0.13742188481E+04  0.92438609807E+02 -0.10058693492E+04  0.17055191253E+04  0.00000000000E+00 0.  1.
         22    1    1    2    0    0 -0.28678729564E+04 -0.18035960614E+03  0.28208109193E+04  0.40266858735E+04  0.00000000000E+00 0. -1.
<mgrwt>
<rscale>  0 0.74655454E+04</rscale>
<asrwt>0</asrwt>
<pdfrwt beam="1">  1        2 0.51271992E+00 0.74655454E+04</pdfrwt>
<pdfrwt beam="2">  1       -2 0.64321502E+00 0.74655454E+04</pdfrwt>
<totfact> 0.23322521E-04</totfact>
</mgrwt>
</event>
<event>
 6    1  0.5196787E-004  0.8891973E+03  0.7818608E-02  0.9439187E-01
         -1   -1    0    0    0  501 -0.00000000000E+00  0.00000000000E+00  0.10689626435E+03  0.10689626435E+03  0.00000000000E+00 0. -1.
          1   -1    0    0  501    0  0.00000000000E+00 -0.00000000000E+00 -0.18491568196E+04  0.18491568196E+04  0.00000000000E+00 0.  1.
         23    2    1    2    0    0 -0.47031861820E+00 -0.39677043084E+03 -0.12976412391E+04  0.13601392208E+04  0.93160713677E+02 0.  0.
         13    1    3    3    0    0  0.16546984220E+02 -0.50771632147E+02 -0.28291914768E+03  0.28791458011E+03  0.00000000000E+00 0.  1.
        -13    1    3    3    0    0 -0.17017302838E+02 -0.34599879870E+03 -0.10147220914E+04  0.10722246407E+04  0.00000000000E+00 0. -1.
         22    1    1    2    0    0  0.47031861820E+00  0.39677043084E+03 -0.44461931616E+03  0.59591386315E+03  0.00000000000E+00 0.  1.
<mgrwt>
<rscale>  0 0.88919729E+03</rscale>
<asrwt>0</asrwt>
<pdfrwt beam="1">  1        1 0.28448565E+00 0.88919729E+03</pdfrwt>
<pdfrwt beam="2">  1       -1 0.16445580E-01 0.88919729E+03</pdfrwt>
<totfact> 0.10828926E+02</totfact>
</mgrwt>
</event>
<event>
 6    1  0.5196787E-004  0.3198442E+04  0.7818608E-02  0.8189229E-01
         -2   -1    0    0    0  501 -0.00000000000E+00  0.00000000000E+00  0.25888146084E+04  0.25888146084E+04  0.00000000000E+00 0. -1.
          2   -1    0    0  501    0  0.00000000000E+00 -0.00000000000E+00 -0.98790713757E+03  0.98790713757E+03  0.00000000000E+00 0.  1.
         23    2    1    2    0    0 -0.30087244118E+03 -0.30444662271E+03  0.25227730637E+04  0.25603319864E+04  0.87772307144E+02 0.  0.
         11    1    3    3    0    0 -0.87787866649E+02 -0.14922352154E+03  0.10363020483E+04  0.10506646963E+04  0.00000000000E+00 0. -1.
        -11    1    3    3    0    0 -0.21308457453E+03 -0.15522310118E+03  0.14864710154E+04  0.15096672901E+04  0.00000000000E+00 0.  1.
         22    1    1    2    0    0  0.30087244118E+03  0.30444662271E+03 -0.92186559287E+03  0.10163897595E+04  0.00000000000E+00 0.  1.
<mgrwt>
<rscale>  0 0.31984424E+04</rscale>
<asrwt>0</asrwt>
<pdfrwt beam="1">  1        2 0.15198571E+00 0.31984424E+04</pdfrwt>
<pdfrwt beam="2">  1       -2 0.39827917E+00 0.31984424E+04</pdfrwt>
<totfact> 0.16437102E-01</totfact>
</mgrwt>
</event>
<event>
 6    1  0.5196787E-004  0.2815483E+04  0.7818608E-02  0.8298477E-01
          2   -1    0    0  501    0  0.00000000000E+00  0.00000000000E+00  0.13741546259E+04  0.13741546259E+04  0.00000000000E+00 0.  1.
         -2   -1    0    0    0  501 -0.00000000000E+00 -0.00000000000E+00 -0.14421497064E+04  0.14421497064E+04  0.00000000000E+00 0. -1.
         23    2    1    2    0    0 -0.77945508472E+03  0.82941817998E+03  0.79195659343E+03  0.13897695000E+04  0.93697763021E+02 0.  0.
         13    1    3    3    0    0 -0.97733401800E+02  0.11753945502E+03  0.14544870184E+03  0.21100394826E+03  0.00000000000E+00 0. -1.
        -13    1    3    3    0    0 -0.68172168292E+03  0.71187872496E+03  0.64650789159E+03  0.11787655517E+04  0.00000000000E+00 0.  1.
         22    1    1    2    0    0  0.77945508472E+03 -0.82941817998E+03 -0.85995167394E+03  0.14265348323E+04  0.00000000000E+00 0. -1.
<mgrwt>
<rscale>  0 0.28154834E+04</rscale>
<asrwt>0</asrwt>
<pdfrwt beam="1">  1        2 0.21140840E+00 0.28154834E+04</pdfrwt>
<pdfrwt beam="2">  1       -2 0.22186919E+00 0.28154834E+04</pdfrwt>
<totfact> 0.12516296E+00</totfact>
</mgrwt>
</event>
<event>
 6    1  0.5196787E-004  0.2831170E+04  0.7818608E-02  0.8293656E-01
         -2   -1    0    0    0  501 -0.00000000000E+00  0.00000000000E+00  0.21938733178E+04  0.21938733178E+04  0.00000000000E+00 0. -1.
          2   -1    0    0  501    0  0.00000000000E+00 -0.00000000000E+00 -0.91339839966E+03  0.91339839966E+03  0.00000000000E+00 0.  1.
         23    2    1    2    0    0 -0.31673397337E+03  0.13626092140E+04  0.86774983446E+03  0.16487223441E+04  0.90946757045E+02 0.  0.
         13    1    3    3    0    0 -0.12616116209E+03  0.47559444586E+03  0.35345360444E+03  0.60583509822E+03  0.00000000000E+00 0.  1.
        -13    1    3    3    0    0 -0.19057281128E+03  0.88701476814E+03  0.51429623003E+03  0.10428872458E+04  0.00000000000E+00 0. -1.
         22    1    1    2    0    0  0.31673397337E+03 -0.13626092140E+04  0.41272508369E+03  0.14585493734E+04  0.00000000000E+00 0. -1.
<mgrwt>
<rscale>  0 0.28311696E+04</rscale>
<asrwt>0</asrwt>
<pdfrwt beam="1">  1        2 0.14052283E+00 0.28311696E+04</pdfrwt>
<pdfrwt beam="2">  1       -2 0.33751897E+00 0.28311696E+04</pdfrwt>
<totfact> 0.46445253E-01</totfact>
</mgrwt>
</event>
<event>
 6    1  0.5196787E-004  0.5264573E+04  0.7818608E-02  0.7788942E-01
         -2   -1    0    0    0  501 -0.00000000000E+00  0.00000000000E+00  0.25517870637E+04  0.25517870637E+04  0.00000000000E+00 0. -1.
          2   -1    0    0  501    0  0.00000000000E+00 -0.00000000000E+00 -0.27153250186E+04  0.27153250186E+04  0.00000000000E+00 0.  1.
         23    2    1    2    0    0 -0.22517350508E+04 -0.19570179981E+03  0.12665031298E+04  0.25924854845E+04  0.91328398226E+02 0.  0.
         11    1    3    3    0    0 -0.15105155759E+04 -0.12459459748E+03  0.80031847251E+03  0.17139693044E+04  0.00000000000E+00 0. -1.
        -11    1    3    3    0    0 -0.74121947486E+03 -0.71107202329E+02  0.46618465730E+03  0.87851618018E+03  0.00000000000E+00 0.  1.
         22    1    1    2    0    0  0.22517350508E+04  0.19570179981E+03 -0.14300410848E+04  0.26746265978E+04  0.00000000000E+00 0.  1.
<mgrwt>
<rscale>  0 0.52645726E+04</rscale>
<asrwt>0</asrwt>
<pdfrwt beam="1">  1        2 0.41774231E+00 0.52645726E+04</pdfrwt>
<pdfrwt beam="2">  1       -2 0.39258263E+00 0.52645726E+04</pdfrwt>
<totfact> 0.15391551E-02</totfact>
</mgrwt>
</event>
<event>
 6    1  0.5196787E-004  0.5768438E+04  0.7818608E-02  0.7719795E-01
         -2   -1    0    0    0  501 -0.00000000000E+00  0.00000000000E+00  0.19712368523E+04  0.19712368523E+04  0.00000000000E+00 0. -1.
          2   -1    0    0  501    0  0.00000000000E+00 -0.00000000000E+00 -0.42200512452E+04  0.42200512452E+04  0.00000000000E+00 0.  1.
         23    2    1    2    0    0  0.11260261089E+04 -0.24404178195E+04 -0.22457134414E+04  0.35036155826E+04  0.92300368897E+02 0.  0.
         13    1    3    3    0    0  0.48778177958E+03 -0.11162581952E+04 -0.10682048050E+04  0.16201928676E+04  0.00000000000E+00 0.  1.
        -13    1    3    3    0    0  0.63824432928E+03 -0.13241596243E+04 -0.11775086364E+04  0.18834227149E+04  0.00000000000E+00 0. -1.
         22    1    1    2    0    0 -0.11260261089E+04  0.24404178195E+04 -0.31009515631E+01  0.26876725149E+04  0.00000000000E+00 0. -1.
<mgrwt>
<rscale>  0 0.57684384E+04</rscale>
<asrwt>0</asrwt>
<pdfrwt beam="1">  1        2 0.64923865E+00 0.57684384E+04</pdfrwt>
<pdfrwt beam="2">  1       -2 0.30326721E+00 0.57684384E+04</pdfrwt>
<totfact> 0.46105289E-03</totfact>
</mgrwt>
</event>
<event>
 6    1  0.5196787E-004  0.1401914E+04  0.7818608E-02  0.8952434E-01
         -2   -1    0    0    0  501 -0.00000000000E+00  0.00000000000E+00  0.46301996873E+03  0.46301996873E+03  0.00000000000E+00 0.  1.
          2   -1    0    0  501    0  0.00000000000E+00 -0.00000000000E+00 -0.10611658970E+04  0.10611658970E+04  0.00000000000E+00 0. -1.
         23    2    1    2    0    0 -0.60493343633E+03  0.13123074486E+03 -0.65101413802E+03  0.90292825545E+03  0.91071706942E+02 0.  0.
         13    1    3    3    0    0 -0.55297293657E+03  0.14525471821E+03 -0.59003833349E+03  0.82159797756E+03  0.00000000000E+00 0.  1.
        -13    1    3    3    0    0 -0.51960499760E+02 -0.14023973354E+02 -0.60975804534E+02  0.81330277896E+02  0.00000000000E+00 0. -1.
         22    1    1    2    0    0  0.60493343633E+03 -0.13123074486E+03  0.52868209708E+02  0.62125761033E+03  0.00000000000E+00 0.  1.
<mgrwt>
<rscale>  0 0.14019144E+04</rscale>
<asrwt>0</asrwt>
<pdfrwt beam="1">  1        2 0.16325629E+00 0.14019144E+04</pdfrwt>
<pdfrwt beam="2">  1       -2 0.71233842E-01 0.14019144E+04</pdfrwt>
<totfact> 0.40111107E+01</totfact>
</mgrwt>
</event>
<event>
 6    1  0.5196787E-004  0.1001154E+04  0.7818608E-02  0.9307280E-01
          1   -1    0    0  501    0  0.00000000000E+00  0.00000000000E+00  0.90021003108E+03  0.90021003108E+03  0.00000000000E+00 0.  1.
         -1   -1    0    0    0  501 -0.00000000000E+00 -0.00000000000E+00 -0.27835447703E+03  0.27835447703E+03  0.00000000000E+00 0. -1.
         23    2    1    2    0    0 -0.38130180208E+03  0.42411509484E+02 -0.62238974131E+02  0.39423350408E+03  0.66004283441E+02 0.  0.
         13    1    3    3    0    0 -0.14196318474E+03 -0.15458055380E+02 -0.16021483892E+02  0.14369824370E+03  0.00000000000E+00 0. -1.
        -13    1    3    3    0    0 -0.23933861734E+03  0.57869564864E+02 -0.46217490239E+02  0.25053526038E+03  0.00000000000E+00 0.  1.
         22    1    1    2    0    0  0.38130180208E+03 -0.42411509484E+02  0.68409452818E+03  0.78433100404E+03  0.00000000000E+00 0.  1.
<mgrwt>
<rscale>  0 0.10011543E+04</rscale>
<asrwt>0</asrwt>
<pdfrwt beam="1">  1        1 0.13849385E+00 0.10011543E+04</pdfrwt>
<pdfrwt beam="2">  1       -1 0.42823766E-01 0.10011543E+04</pdfrwt>
<totfact> 0.97867804E+01</totfact>
</mgrwt>
</event>
<event>
 6    1  0.5196787E-004  0.2700106E+04  0.7818608E-02  0.8334970E-01
         -2   -1    0    0    0  501 -0.00000000000E+00  0.00000000000E+00  0.44612116656E+03  0.44612116656E+03  0.00000000000E+00 0. -1.
          2   -1    0    0  501    0  0.00000000000E+00 -0.00000000000E+00 -0.40855346869E+04  0.40855346869E+04  0.00000000000E+00 0.  1.
         23    2    1    2    0    0  0.13148116790E+03  0.11838373739E+04 -0.76077238325E+03  0.14163175056E+04  0.91773810040E+02 0.  0.
         11    1    3    3    0    0  0.65857337525E+02  0.92183798875E+03 -0.60326565053E+03  0.11036538912E+04  0.00000000000E+00 0. -1.
        -11    1    3    3    0    0  0.65623830378E+02  0.26199938517E+03 -0.15750673273E+03  0.31266361444E+03  0.00000000000E+00 0.  1.
         22    1    1    2    0    0 -0.13148116790E+03 -0.11838373739E+04 -0.28786411371E+04  0.31153383479E+04  0.00000000000E+00 0.  1.
<mgrwt>
<rscale>  0 0.27001063E+04</rscale>
<asrwt>0</asrwt>
<pdfrwt beam="1">  1        2 0.62854378E+00 0.27001063E+04</pdfrwt>
<pdfrwt beam="2">  1       -2 0.68634028E-01 0.27001063E+04</pdfrwt>
<totfact> 0.49623871E-01</totfact>
</mgrwt>
</event>
<event>
 6    1  0.5196787E-004  0.1755529E+04  0.7818608E-02  0.8730313E-01
         -2   -1    0    0    0  501 -0.00000000000E+00  0.00000000000E+00  0.42686903732E+03  0.42686903732E+03  0.00000000000E+00 0. -1.
          2   -1    0    0  501    0  0.00000000000E+00 -0.00000000000E+00 -0.18049350313E+04  0.18049350313E+04  0.00000000000E+00 0.  1.
         23    2    1    2    0    0 -0.85373316955E+03  0.17307860621E+03 -0.57887536632E+03  0.10496356423E+04  0.88440732958E+02 0.  0.
         13    1    3    3    0    0 -0.51682467340E+03  0.11014563347E+03 -0.40193265535E+03  0.66391992216E+03  0.00000000000E+00 0.  1.
        -13    1    3    3    0    0 -0.33690849615E+03  0.62932972737E+02 -0.17694271097E+03  0.38571572019E+03  0.00000000000E+00 0. -1.
         22    1    1    2    0    0  0.85373316955E+03 -0.17307860621E+03 -0.79919062762E+03  0.11821684262E+04  0.00000000000E+00 0.  1.
<mgrwt>
<rscale>  0 0.17555294E+04</rscale>
<asrwt>0</asrwt>
<pdfrwt beam="1">  1        2 0.27768231E+00 0.17555294E+04</pdfrwt>
<pdfrwt beam="2">  1       -2 0.65672160E-01 0.17555294E+04</pdfrwt>
<totfact> 0.17344414E+01</totfact>
</mgrwt>
</event>
<event>
 6    1  0.5196787E-004  0.3837830E+04  0.7818608E-02  0.8038085E-01
         -2   -1    0    0    0  501 -0.00000000000E+00  0.00000000000E+00  0.16612819853E+04  0.16612819853E+04  0.00000000000E+00 0. -1.
          2   -1    0    0  501    0  0.00000000000E+00 -0.00000000000E+00 -0.22165023566E+04  0.22165023566E+04  0.00000000000E+00 0.  1.
         23    2    1    2    0    0 -0.10392634774E+04 -0.18235021747E+03  0.13403424801E+04  0.17083423167E+04  0.92711002526E+02 0.  0.
         13    1    3    3    0    0 -0.47446798376E+03 -0.83252437367E+02  0.53788614109E+03  0.72206117242E+03  0.00000000000E+00 0. -1.
        -13    1    3    3    0    0 -0.56479549366E+03 -0.99097780099E+02  0.80245633897E+03  0.98628114431E+03  0.00000000000E+00 0.  1.
         22    1    1    2    0    0  0.10392634774E+04  0.18235021747E+03 -0.18955628514E+04  0.21694420252E+04  0.00000000000E+00 0.  1.
<mgrwt>
<rscale>  0 0.38378303E+04</rscale>
<asrwt>0</asrwt>
<pdfrwt beam="1">  1        2 0.34100036E+00 0.38378303E+04</pdfrwt>
<pdfrwt beam="2">  1       -2 0.25558184E+00 0.38378303E+04</pdfrwt>
<totfact> 0.23993036E-01</totfact>
</mgrwt>
</event>
<event>
 6    1  0.5196787E-004  0.3532225E+04  0.7818608E-02  0.8106195E-01
          2   -1    0    0  501    0  0.00000000000E+00  0.00000000000E+00  0.10433402279E+04  0.10433402279E+04  0.00000000000E+00 0.  1.
         -2   -1    0    0    0  501 -0.00000000000E+00 -0.00000000000E+00 -0.29895838696E+04  0.29895838696E+04  0.00000000000E+00 0. -1.
         23    2    1    2    0    0  0.11439616040E+04 -0.64239376804E+03 -0.23217916551E+04  0.26682431036E+04  0.86526675097E+02 0.  0.
         13    1    3    3    0    0  0.24366113839E+03 -0.14973010753E+03 -0.57741767821E+03  0.64436094743E+03  0.00000000000E+00 0.  1.
        -13    1    3    3    0    0  0.90030046560E+03 -0.49266366052E+03 -0.17443739769E+04  0.20238821562E+04  0.00000000000E+00 0. -1.
         22    1    1    2    0    0 -0.11439616040E+04  0.64239376804E+03  0.37554801349E+03  0.13646809939E+04  0.00000000000E+00 0.  1.
<mgrwt>
<rscale>  0 0.35322249E+04</rscale>
<asrwt>0</asrwt>
<pdfrwt beam="1">  1        2 0.16051389E+00 0.35322249E+04</pdfrwt>
<pdfrwt beam="2">  1       -2 0.45993596E+00 0.35322249E+04</pdfrwt>
<totfact> 0.57753255E-02</totfact>
</mgrwt>
</event>
<event>
 6    1  0.5196787E-004  0.2331041E+04  0.7818608E-02  0.8465782E-01
         -2   -1    0    0    0  501 -0.00000000000E+00  0.00000000000E+00  0.39702243799E+03  0.39702243799E+03  0.00000000000E+00 0. -1.
          2   -1    0    0  501    0  0.00000000000E+00 -0.00000000000E+00 -0.34215656164E+04  0.34215656164E+04  0.00000000000E+00 0.  1.
         23    2    1    2    0    0 -0.11618895620E+04 -0.57605993602E+02 -0.15584403935E+04  0.19470210156E+04  0.94066840196E+02 0.  0.
         11    1    3    3    0    0 -0.10243481414E+04 -0.22341984692E+02 -0.13874453518E+04  0.17247587899E+04  0.00000000000E+00 0.  1.
        -11    1    3    3    0    0 -0.13754142060E+03 -0.35264008910E+02 -0.17099504173E+03  0.22226222576E+03  0.00000000000E+00 0. -1.
         22    1    1    2    0    0  0.11618895620E+04  0.57605993602E+02 -0.14661027849E+04  0.18715670388E+04  0.00000000000E+00 0.  1.
<mgrwt>
<rscale>  0 0.23310412E+04</rscale>
<asrwt>0</asrwt>
<pdfrwt beam="1">  1        2 0.52639473E+00 0.23310412E+04</pdfrwt>
<pdfrwt beam="2">  1       -2 0.61080372E-01 0.23310412E+04</pdfrwt>
<totfact> 0.20824965E+00</totfact>
</mgrwt>
</event>
<event>
 6    1  0.5196787E-004  0.2761839E+04  0.7818608E-02  0.8315215E-01
          2   -1    0    0  501    0  0.00000000000E+00  0.00000000000E+00  0.17049640052E+04  0.17049640052E+04  0.00000000000E+00 0.  1.
         -2   -1    0    0    0  501 -0.00000000000E+00 -0.00000000000E+00 -0.11184629863E+04  0.11184629863E+04  0.00000000000E+00 0. -1.
         23    2    1    2    0    0  0.11562756132E+04  0.68062872460E+03 -0.33874945780E+02  0.13452202767E+04  0.90781752268E+02 0.  0.
         11    1    3    3    0    0  0.57557349017E+03  0.28675379890E+03 -0.95431865393E+01  0.64312025017E+03  0.00000000000E+00 0.  1.
        -11    1    3    3    0    0  0.58070212300E+03  0.39387492570E+03 -0.24331759241E+02  0.70210002654E+03  0.00000000000E+00 0. -1.
         22    1    1    2    0    0 -0.11562756132E+04 -0.68062872460E+03  0.62037596467E+03  0.14782067149E+04  0.00000000000E+00 0.  1.
<mgrwt>
<rscale>  0 0.27618393E+04</rscale>
<asrwt>0</asrwt>
<pdfrwt beam="1">  1        2 0.26230215E+00 0.27618393E+04</pdfrwt>
<pdfrwt beam="2">  1       -2 0.17207123E+00 0.27618393E+04</pdfrwt>
<totfact> 0.17528550E+00</totfact>
</mgrwt>
</event>
<event>
 6    1  0.5196787E-004  0.1180936E+04  0.7818608E-02  0.9129709E-01
         -2   -1    0    0    0  501 -0.00000000000E+00  0.00000000000E+00  0.11682391126E+03  0.11682391126E+03  0.00000000000E+00 0. -1.
          2   -1    0    0  501    0  0.00000000000E+00 -0.00000000000E+00 -0.29844251794E+04  0.29844251794E+04  0.00000000000E+00 0.  1.
         23    2    1    2    0    0  0.33413876069E+03  0.25811421646E+03 -0.37153745734E+03  0.56972658282E+03  0.90976023364E+02 0.  0.
         13    1    3    3    0    0  0.16877881352E+03  0.12678059912E+03 -0.12585136265E+03  0.24576039894E+03  0.00000000000E+00 0.  1.
        -13    1    3    3    0    0  0.16535994717E+03  0.13133361734E+03 -0.24568609469E+03  0.32396618388E+03  0.00000000000E+00 0. -1.
         22    1    1    2    0    0 -0.33413876069E+03 -0.25811421646E+03 -0.24960638108E+04  0.25315225078E+04  0.00000000000E+00 0.  1.
<mgrwt>
<rscale>  0 0.11809356E+04</rscale>
<asrwt>0</asrwt>
<pdfrwt beam="1">  1        2 0.45914239E+00 0.11809356E+04</pdfrwt>
<pdfrwt beam="2">  1       -2 0.17972907E-01 0.11809356E+04</pdfrwt>
<totfact> 0.46000921E+01</totfact>
</mgrwt>
</event>
<event>
 6    1  0.6060302E-004  0.2747719E+04  0.7818608E-02  0.8319686E-01
          1   -1    0    0  501    0  0.00000000000E+00  0.00000000000E+00  0.18258540829E+04  0.18258540829E+04  0.00000000000E+00 0. -1.
         -1   -1    0    0    0  501 -0.00000000000E+00 -0.00000000000E+00 -0.10337569501E+04  0.10337569501E+04  0.00000000000E+00 0.  1.
         23    2    1    2    0    0 -0.60769176324E+03 -0.12268221835E+04  0.29670283752E+03  0.14036586104E+04  0.88560553501E+02 0.  0.
         13    1    3    3    0    0 -0.32500031125E+03 -0.61269858945E+03  0.10945637974E+03  0.70214347742E+03  0.00000000000E+00 0. -1.
        -13    1    3    3    0    0 -0.28269145199E+03 -0.61412359408E+03  0.18724645779E+03  0.70151513298E+03  0.00000000000E+00 0.  1.
         22    1    1    2    0    0  0.60769176324E+03  0.12268221835E+04  0.49539429532E+03  0.14559524226E+04  0.00000000000E+00 0. -1.
<mgrwt>
<rscale>  0 0.27477186E+04</rscale>
<asrwt>0</asrwt>
<pdfrwt beam="1">  1        1 0.28090063E+00 0.27477186E+04</pdfrwt>
<pdfrwt beam="2">  1       -1 0.15903953E+00 0.27477186E+04</pdfrwt>
<totfact> 0.10111016E+00</totfact>
</mgrwt>
</event>
<event>
 6    1  0.5196787E-004  0.5159523E+04  0.7818608E-02  0.7804360E-01
         -2   -1    0    0    0  501 -0.00000000000E+00  0.00000000000E+00  0.31338643776E+04  0.31338643776E+04  0.00000000000E+00 0. -1.
          2   -1    0    0  501    0  0.00000000000E+00 -0.00000000000E+00 -0.21236306495E+04  0.21236306495E+04  0.00000000000E+00 0.  1.
         23    2    1    2    0    0  0.31156884849E+03  0.11284944184E+04 -0.18362762830E+04  0.21796395979E+04  0.91342156880E+02 0.  0.
         11    1    3    3    0    0  0.16510770859E+03  0.69546816857E+03 -0.11864515026E+04  0.13851367069E+04  0.00000000000E+00 0. -1.
        -11    1    3    3    0    0  0.14646113990E+03  0.43302624978E+03 -0.64982478044E+03  0.79450289098E+03  0.00000000000E+00 0.  1.
         22    1    1    2    0    0 -0.31156884849E+03 -0.11284944184E+04  0.28465100111E+04  0.30778554292E+04  0.00000000000E+00 0. -1.
<mgrwt>
<rscale>  0 0.51595234E+04</rscale>
<asrwt>0</asrwt>
<pdfrwt beam="1">  1        2 0.32671241E+00 0.51595234E+04</pdfrwt>
<pdfrwt beam="2">  1       -2 0.48213298E+00 0.51595234E+04</pdfrwt>
<totfact> 0.88180399E-03</totfact>
</mgrwt>
</event>
<event>
 6    1  0.5196787E-004  0.1196637E+04  0.7818608E-02  0.9115806E-01
         -2   -1    0    0    0  501 -0.00000000000E+00  0.00000000000E+00  0.31882030121E+03  0.31882030121E+03  0.00000000000E+00 0. -1.
          2   -1    0    0  501    0  0.00000000000E+00 -0.00000000000E+00 -0.11228419071E+04  0.11228419071E+04  0.00000000000E+00 0.  1.
         23    2    1    2    0    0 -0.17728861981E+03  0.17850916641E+03 -0.10538197300E+04  0.10871260607E+04  0.89500118456E+02 0.  0.
         13    1    3    3    0    0 -0.66976229073E+02  0.13667248805E+02 -0.29432509438E+03  0.30215868369E+03  0.00000000000E+00 0.  1.
        -13    1    3    3    0    0 -0.11031239073E+03  0.16484191761E+03 -0.75949463566E+03  0.78496737699E+03  0.00000000000E+00 0. -1.
         22    1    1    2    0    0  0.17728861981E+03 -0.17850916641E+03  0.24979812409E+03  0.35453614767E+03  0.00000000000E+00 0. -1.
<mgrwt>
<rscale>  0 0.11966366E+04</rscale>
<asrwt>0</asrwt>
<pdfrwt beam="1">  1        2 0.17274491E+00 0.11966366E+04</pdfrwt>
<pdfrwt beam="2">  1       -2 0.49049277E-01 0.11966366E+04</pdfrwt>
<totfact> 0.81899158E+01</totfact>
</mgrwt>
</event>
<event>
 6    1  0.5196787E-004  0.1852598E+04  0.7818608E-02  0.8678818E-01
          2   -1    0    0  501    0  0.00000000000E+00  0.00000000000E+00  0.17514930112E+04  0.17514930112E+04  0.00000000000E+00 0.  1.
         -2   -1    0    0    0  501 -0.00000000000E+00 -0.00000000000E+00 -0.48988498007E+03  0.48988498007E+03  0.00000000000E+00 0. -1.
         23    2    1    2    0    0 -0.32858883564E+03 -0.19598574699E+03  0.16501009273E+04  0.16961186344E+04  0.87202727466E+02 0.  0.
         11    1    3    3    0    0 -0.16696063541E+03 -0.95045874191E+02  0.64054616803E+03  0.66873684313E+03  0.00000000000E+00 0. -1.
        -11    1    3    3    0    0 -0.16162820023E+03 -0.10093987280E+03  0.10095547593E+04  0.10273817912E+04  0.00000000000E+00 0.  1.
         22    1    1    2    0    0  0.32858883564E+03  0.19598574699E+03 -0.38849289615E+03  0.54525935690E+03  0.00000000000E+00 0. -1.
<mgrwt>
<rscale>  0 0.18525983E+04</rscale>
<asrwt>0</asrwt>
<pdfrwt beam="1">  1        2 0.26946046E+00 0.18525983E+04</pdfrwt>
<pdfrwt beam="2">  1       -2 0.75366921E-01 0.18525983E+04</pdfrwt>
<totfact> 0.13632520E+01</totfact>
</mgrwt>
</event>
<event>
 6    1  0.5196787E-004  0.7049716E+03  0.7818608E-02  0.9708768E-01
          2   -1    0    0  501    0  0.00000000000E+00  0.00000000000E+00  0.23286628068E+03  0.23286628068E+03  0.00000000000E+00 0.  1.
         -2   -1    0    0    0  501 -0.00000000000E+00 -0.00000000000E+00 -0.53355181624E+03  0.53355181624E+03  0.00000000000E+00 0. -1.
         23    2    1    2    0    0  0.32382641487E+03  0.11049193533E+03 -0.21428488573E+03  0.41351997136E+03  0.89491562290E+02 0.  0.
         11    1    3    3    0    0  0.11182136891E+03  0.82786409014E+02 -0.97528867746E+02  0.16991023544E+03  0.00000000000E+00 0.  1.
        -11    1    3    3    0    0  0.21200504596E+03  0.27705526312E+02 -0.11675601799E+03  0.24360973592E+03  0.00000000000E+00 0. -1.
         22    1    1    2    0    0 -0.32382641487E+03 -0.11049193533E+03 -0.86400649828E+02  0.35289812557E+03  0.00000000000E+00 0.  1.
<mgrwt>
<rscale>  0 0.70497157E+03</rscale>
<asrwt>0</asrwt>
<pdfrwt beam="1">  1        2 0.35825582E-01 0.70497157E+03</pdfrwt>
<pdfrwt beam="2">  1       -2 0.82084893E-01 0.70497157E+03</pdfrwt>
<totfact> 0.19193753E+02</totfact>
</mgrwt>
</event>
<event>
 6    1  0.5196787E-004  0.3435985E+04  0.7818608E-02  0.8129130E-01
         -2   -1    0    0    0  501 -0.00000000000E+00  0.00000000000E+00  0.13624286476E+04  0.13624286476E+04  0.00000000000E+00 0. -1.
          2   -1    0    0  501    0  0.00000000000E+00 -0.00000000000E+00 -0.21663507091E+04  0.21663507091E+04  0.00000000000E+00 0.  1.
         23    2    1    2    0    0  0.37650876885E+03 -0.13035114294E+04  0.67804289366E+03  0.15195205313E+04  0.91102028828E+02 0.  0.
         13    1    3    3    0    0  0.77797691657E+02 -0.28508562040E+03  0.19029596913E+03  0.35148093497E+03  0.00000000000E+00 0.  1.
        -13    1    3    3    0    0  0.29871107719E+03 -0.10184258090E+04  0.48774692453E+03  0.11680395963E+04  0.00000000000E+00 0. -1.
         22    1    1    2    0    0 -0.37650876885E+03  0.13035114294E+04 -0.14819649551E+04  0.20092588255E+04  0.00000000000E+00 0.  1.
<mgrwt>
<rscale>  0 0.34359850E+04</rscale>
<asrwt>0</asrwt>
<pdfrwt beam="1">  1        2 0.33328472E+00 0.34359850E+04</pdfrwt>
<pdfrwt beam="2">  1       -2 0.20960441E+00 0.34359850E+04</pdfrwt>
<totfact> 0.51319382E-01</totfact>
</mgrwt>
</event>
<event>
 6    1  0.5196787E-004  0.2338106E+04  0.7818608E-02  0.8463046E-01
          2   -1    0    0  501    0  0.00000000000E+00  0.00000000000E+00  0.21152597936E+04  0.21152597936E+04  0.00000000000E+00 0.  1.
         -2   -1    0    0    0  501 -0.00000000000E+00 -0.00000000000E+00 -0.64610757960E+03  0.64610757960E+03  0.00000000000E+00 0. -1.
         23    2    1    2    0    0  0.29399566349E+03 -0.32310169049E+03 -0.54276650133E+03  0.70257037747E+03  0.90451687510E+02 0.  0.
         13    1    3    3    0    0  0.91220080180E+02 -0.53346813726E+02 -0.16583633442E+03  0.19664352361E+03  0.00000000000E+00 0.  1.
        -13    1    3    3    0    0  0.20277558331E+03 -0.26975487677E+03 -0.37693016691E+03  0.50592685386E+03  0.00000000000E+00 0. -1.
         22    1    1    2    0    0 -0.29399566349E+03  0.32310169049E+03  0.20119187153E+04  0.20587969957E+04  0.00000000000E+00 0.  1.
<mgrwt>
<rscale>  0 0.23381064E+04</rscale>
<asrwt>0</asrwt>
<pdfrwt beam="1">  1        2 0.32542458E+00 0.23381064E+04</pdfrwt>
<pdfrwt beam="2">  1       -2 0.99401167E-01 0.23381064E+04</pdfrwt>
<totfact> 0.43623814E+00</totfact>
</mgrwt>
</event>
<event>
 6    1  0.5196787E-004  0.6248797E+04  0.7818608E-02  0.7660297E-01
          2   -1    0    0  501    0  0.00000000000E+00  0.00000000000E+00  0.47480800113E+04  0.47480800113E+04  0.00000000000E+00 0.  1.
         -2   -1    0    0    0  501 -0.00000000000E+00 -0.00000000000E+00 -0.20559608923E+04  0.20559608923E+04  0.00000000000E+00 0. -1.
         23    2    1    2    0    0  0.15504427234E+04 -0.62670714624E+03  0.42191696094E+04  0.45394178256E+04  0.91035798144E+02 0.  0.
         13    1    3    3    0    0  0.96620215424E+03 -0.34617178085E+03  0.26307137315E+04  0.28238336073E+04  0.00000000000E+00 0. -1.
        -13    1    3    3    0    0  0.58424056913E+03 -0.28053536540E+03  0.15884558779E+04  0.17155842183E+04  0.00000000000E+00 0.  1.
         22    1    1    2    0    0 -0.15504427234E+04  0.62670714624E+03 -0.15270504904E+04  0.22646230781E+04  0.00000000000E+00 0. -1.
<mgrwt>
<rscale>  0 0.62487973E+04</rscale>
<asrwt>0</asrwt>
<pdfrwt beam="1">  1        2 0.73047384E+00 0.62487973E+04</pdfrwt>
<pdfrwt beam="2">  1       -2 0.31630168E+00 0.62487973E+04</pdfrwt>
<totfact> 0.11148417E-03</totfact>
</mgrwt>
</event>
<event>
 6    1  0.5196787E-004  0.1344375E+04  0.7818608E-02  0.8995097E-01
         -2   -1    0    0    0  501 -0.00000000000E+00  0.00000000000E+00  0.22936858846E+03  0.22936858846E+03  0.00000000000E+00 0. -1.
          2   -1    0    0  501    0  0.00000000000E+00 -0.00000000000E+00 -0.19699125602E+04  0.19699125602E+04  0.00000000000E+00 0.  1.
         23    2    1    2    0    0  0.60553354385E+03 -0.18166411877E+03 -0.12321901064E+04  0.13880497530E+04  0.93364521977E+02 0.  0.
         13    1    3    3    0    0  0.16391195852E+03 -0.91703585996E+02 -0.38892424357E+03  0.43190131403E+03  0.00000000000E+00 0. -1.
        -13    1    3    3    0    0  0.44162158533E+03 -0.89960532776E+02 -0.84326586279E+03  0.95614843902E+03  0.00000000000E+00 0.  1.
         22    1    1    2    0    0 -0.60553354385E+03  0.18166411877E+03 -0.50835386538E+03  0.81123139561E+03  0.00000000000E+00 0. -1.
<mgrwt>
<rscale>  0 0.13443750E+04</rscale>
<asrwt>0</asrwt>
<pdfrwt beam="1">  1        2 0.30306349E+00 0.13443750E+04</pdfrwt>
<pdfrwt beam="2">  1       -2 0.35287473E-01 0.13443750E+04</pdfrwt>
<totfact> 0.51203366E+01</totfact>
</mgrwt>
</event>
<event>
 6    1  0.5196787E-004  0.3444952E+04  0.7818608E-02  0.8126961E-01
          1   -1    0    0  501    0  0.00000000000E+00  0.00000000000E+00  0.21268642097E+04  0.21268642097E+04  0.00000000000E+00 0.  1.
         -1   -1    0    0    0  501 -0.00000000000E+00 -0.00000000000E+00 -0.13949753029E+04  0.13949753029E+04  0.00000000000E+00 0. -1.
         23    2    1    2    0    0  0.11548516870E+04 -0.47787803875E+03 -0.84372353104E+03  0.15107193290E+04  0.91398333026E+02 0.  0.
         13    1    3    3    0    0  0.23109586481E+03 -0.76042035922E+02 -0.12734832146E+03  0.27460022749E+03  0.00000000000E+00 0. -1.
        -13    1    3    3    0    0  0.92375582218E+03 -0.40183600283E+03 -0.71637520958E+03  0.12361191015E+04  0.00000000000E+00 0.  1.
         22    1    1    2    0    0 -0.11548516870E+04  0.47787803875E+03  0.15756124379E+04  0.20111201837E+04  0.00000000000E+00 0.  1.
<mgrwt>
<rscale>  0 0.34449517E+04</rscale>
<asrwt>0</asrwt>
<pdfrwt beam="1">  1        1 0.32720988E+00 0.34449517E+04</pdfrwt>
<pdfrwt beam="2">  1       -1 0.21461158E+00 0.34449517E+04</pdfrwt>
<totfact> 0.23959782E-01</totfact>
</mgrwt>
</event>
<event>
 6    1  0.5196787E-004  0.1970793E+04  0.7818608E-02  0.8620399E-01
         -2   -1    0    0    0  501 -0.00000000000E+00  0.00000000000E+00  0.60517678368E+03  0.60517678368E+03  0.00000000000E+00 0.  1.
          2   -1    0    0  501    0  0.00000000000E+00 -0.00000000000E+00 -0.16045002701E+04  0.16045002701E+04  0.00000000000E+00 0. -1.
         23    2    1    2    0    0 -0.37618748299E+02  0.74546543158E+03 -0.12182883414E+04  0.14318084996E+04  0.93355325446E+02 0.  0.
         13    1    3    3    0    0 -0.16621858583E+02  0.22106795027E+02 -0.59545968600E+02  0.65656065566E+02  0.00000000000E+00 0.  1.
        -13    1    3    3    0    0 -0.20996889716E+02  0.72335863656E+03 -0.11587423728E+04  0.13661524340E+04  0.00000000000E+00 0. -1.
         22    1    1    2    0    0  0.37618748299E+02 -0.74546543158E+03  0.21896485497E+03  0.77786855421E+03  0.00000000000E+00 0.  1.
<mgrwt>
<rscale>  0 0.19707931E+04</rscale>
<asrwt>0</asrwt>
<pdfrwt beam="1">  1        2 0.24684619E+00 0.19707931E+04</pdfrwt>
<pdfrwt beam="2">  1       -2 0.93104122E-01 0.19707931E+04</pdfrwt>
<totfact> 0.10087039E+01</totfact>
</mgrwt>
</event>
<event>
 6    1  0.5196787E-004  0.1121584E+04  0.7818608E-02  0.9184406E-01
         -2   -1    0    0    0  501 -0.00000000000E+00  0.00000000000E+00  0.74963365666E+03  0.74963365666E+03  0.00000000000E+00 0. -1.
          2   -1    0    0  501    0  0.00000000000E+00 -0.00000000000E+00 -0.41952192564E+03  0.41952192564E+03  0.00000000000E+00 0.  1.
         23    2    1    2    0    0  0.28157732495E+03 -0.46373629731E+03  0.33777916808E+02  0.55097205549E+03  0.89956183206E+02 0.  0.
         11    1    3    3    0    0  0.27373333938E+03 -0.40793744819E+03  0.45664775960E+02  0.49338440844E+03  0.00000000000E+00 0.  1.
        -11    1    3    3    0    0  0.78439855715E+01 -0.55798849117E+02 -0.11886859152E+02  0.57587647051E+02  0.00000000000E+00 0. -1.
         22    1    1    2    0    0 -0.28157732495E+03  0.46373629731E+03  0.29633381422E+03  0.61818352681E+03  0.00000000000E+00 0. -1.
<mgrwt>
<rscale>  0 0.11215842E+04</rscale>
<asrwt>0</asrwt>
<pdfrwt beam="1">  1        2 0.64541835E-01 0.11215842E+04</pdfrwt>
<pdfrwt beam="2">  1       -2 0.11532825E+00 0.11215842E+04</pdfrwt>
<totfact> 0.43734632E+01</totfact>
</mgrwt>
</event>
<event>
 6    1  0.5196787E-004  0.1235669E+04  0.7818608E-02  0.9082196E-01
          2   -1    0    0  501    0  0.00000000000E+00  0.00000000000E+00  0.59649489095E+03  0.59649489095E+03  0.00000000000E+00 0.  1.
         -2   -1    0    0    0  501 -0.00000000000E+00 -0.00000000000E+00 -0.63993742311E+03  0.63993742311E+03  0.00000000000E+00 0. -1.
         23    2    1    2    0    0  0.18746136608E+03  0.41130641825E+03 -0.43842079623E+03  0.63616357212E+03  0.90424346610E+02 0.  0.
         13    1    3    3    0    0  0.19605252374E+03  0.37135334949E+03 -0.39444483188E+03  0.57613073832E+03  0.00000000000E+00 0.  1.
        -13    1    3    3    0    0 -0.85911576613E+01  0.39953068760E+02 -0.43975964354E+02  0.60032833801E+02  0.00000000000E+00 0. -1.
         22    1    1    2    0    0 -0.18746136608E+03 -0.41130641825E+03  0.39497826407E+03  0.60026874194E+03  0.00000000000E+00 0.  1.
<mgrwt>
<rscale>  0 0.12356689E+04</rscale>
<asrwt>0</asrwt>
<pdfrwt beam="1">  1        2 0.91768445E-01 0.12356689E+04</pdfrwt>
<pdfrwt beam="2">  1       -2 0.98451911E-01 0.12356689E+04</pdfrwt>
<totfact> 0.42154715E+01</totfact>
</mgrwt>
</event>
<event>
 6    1  0.5196787E-004  0.1680349E+04  0.7818608E-02  0.8772652E-01
          2   -1    0    0  501    0  0.00000000000E+00  0.00000000000E+00  0.22926336842E+04  0.22926336842E+04  0.00000000000E+00 0.  1.
         -2   -1    0    0    0  501 -0.00000000000E+00 -0.00000000000E+00 -0.30789605489E+03  0.30789605489E+03  0.00000000000E+00 0. -1.
         23    2    1    2    0    0 -0.34540354311E+03 -0.73876971547E+03  0.12906740774E+04  0.15296382814E+04  0.94177479869E+02 0.  0.
         11    1    3    3    0    0 -0.23143026750E+03 -0.55555152047E+03  0.10084293584E+04  0.11743624788E+04  0.00000000000E+00 0.  1.
        -11    1    3    3    0    0 -0.11397327561E+03 -0.18321819500E+03  0.28224471897E+03  0.35527580261E+03  0.00000000000E+00 0. -1.
         22    1    1    2    0    0  0.34540354311E+03  0.73876971547E+03  0.69406355191E+03  0.10708914577E+04  0.00000000000E+00 0.  1.
<mgrwt>
<rscale>  0 0.16803486E+04</rscale>
<asrwt>0</asrwt>
<pdfrwt beam="1">  1        2 0.35271286E+00 0.16803486E+04</pdfrwt>
<pdfrwt beam="2">  1       -2 0.47368625E-01 0.16803486E+04</pdfrwt>
<totfact> 0.18441646E+01</totfact>
</mgrwt>
</event>
<event>
 6    1  0.5196787E-004  0.1386527E+04  0.7818608E-02  0.8963629E-01
          2   -1    0    0  501    0  0.00000000000E+00  0.00000000000E+00  0.38823110120E+03  0.38823110120E+03  0.00000000000E+00 0.  1.
         -2   -1    0    0    0  501 -0.00000000000E+00 -0.00000000000E+00 -0.12379589479E+04  0.12379589479E+04  0.00000000000E+00 0. -1.
         23    2    1    2    0    0  0.49678722376E+03 -0.38213127544E+03 -0.76534055603E+03  0.99377952402E+03  0.95024829953E+02 0.  0.
         13    1    3    3    0    0  0.17597492960E+03 -0.96682828280E+02 -0.19537752204E+03  0.28015553046E+03  0.00000000000E+00 0.  1.
        -13    1    3    3    0    0  0.32081229416E+03 -0.28544844716E+03 -0.56996303399E+03  0.71362399356E+03  0.00000000000E+00 0. -1.
         22    1    1    2    0    0 -0.49678722376E+03  0.38213127544E+03 -0.84387290627E+02  0.63241052504E+03  0.00000000000E+00 0.  1.
<mgrwt>
<rscale>  0 0.13865268E+04</rscale>
<asrwt>0</asrwt>
<pdfrwt beam="1">  1        2 0.59727862E-01 0.13865268E+04</pdfrwt>
<pdfrwt beam="2">  1       -2 0.19045522E+00 0.13865268E+04</pdfrwt>
<totfact> 0.12319078E+01</totfact>
</mgrwt>
</event>
<event>
 6    1  0.5196787E-004  0.1122485E+04  0.7818608E-02  0.9183550E-01
          2   -1    0    0  501    0  0.00000000000E+00  0.00000000000E+00  0.94237458347E+03  0.94237458347E+03  0.00000000000E+00 0.  1.
         -2   -1    0    0    0  501 -0.00000000000E+00 -0.00000000000E+00 -0.33425444773E+03  0.33425444773E+03  0.00000000000E+00 0. -1.
         23    2    1    2    0    0 -0.47878506712E+03  0.80561804200E+02 -0.45449231875E+01  0.49491052737E+03  0.95866725113E+02 0.  0.
         13    1    3    3    0    0 -0.37919463405E+03  0.78384475425E+02  0.32634239650E+02  0.38858421234E+03  0.00000000000E+00 0. -1.
        -13    1    3    3    0    0 -0.99590433071E+02  0.21773287742E+01 -0.37179162837E+02  0.10632631504E+03  0.00000000000E+00 0.  1.
         22    1    1    2    0    0  0.47878506712E+03 -0.80561804200E+02  0.61266505893E+03  0.78171850383E+03  0.00000000000E+00 0.  1.
<mgrwt>
<rscale>  0 0.11224846E+04</rscale>
<asrwt>0</asrwt>
<pdfrwt beam="1">  1        2 0.14498070E+00 0.11224846E+04</pdfrwt>
<pdfrwt beam="2">  1       -2 0.51423761E-01 0.11224846E+04</pdfrwt>
<totfact> 0.97291504E+01</totfact>
</mgrwt>
</event>
<event>
 6    1  0.5196787E-004  0.1355039E+04  0.7818608E-02  0.8987023E-01
          2   -1    0    0  501    0  0.00000000000E+00  0.00000000000E+00  0.53027764946E+03  0.53027764946E+03  0.00000000000E+00 0.  1.
         -2   -1    0    0    0  501 -0.00000000000E+00 -0.00000000000E+00 -0.86564571663E+03  0.86564571663E+03  0.00000000000E+00 0. -1.
         23    2    1    2    0    0  0.48553727286E+03 -0.15400617853E+03  0.28687314025E+03  0.59177881031E+03  0.91878263893E+02 0.  0.
         13    1    3    3    0    0  0.21046005251E+03 -0.33089163216E+02  0.82893126057E+02  0.22860357996E+03  0.00000000000E+00 0. -1.
        -13    1    3    3    0    0  0.27507722035E+03 -0.12091701531E+03  0.20398001420E+03  0.36317523035E+03  0.00000000000E+00 0.  1.
         22    1    1    2    0    0 -0.48553727286E+03  0.15400617853E+03 -0.62224120743E+03  0.80414455577E+03  0.00000000000E+00 0. -1.
<mgrwt>
<rscale>  0 0.13550389E+04</rscale>
<asrwt>0</asrwt>
<pdfrwt beam="1">  1        2 0.81581178E-01 0.13550389E+04</pdfrwt>
<pdfrwt beam="2">  1       -2 0.13317626E+00 0.13550389E+04</pdfrwt>
<totfact> 0.22912288E+01</totfact>
</mgrwt>
</event>
<event>
 6    1  0.5196787E-004  0.1110877E+04  0.7818608E-02  0.9194654E-01
          2   -1    0    0  501    0  0.00000000000E+00  0.00000000000E+00  0.85686852821E+03  0.85686852821E+03  0.00000000000E+00 0.  1.
         -2   -1    0    0    0  501 -0.00000000000E+00 -0.00000000000E+00 -0.36004612181E+03  0.36004612181E+03  0.00000000000E+00 0. -1.
         23    2    1    2    0    0 -0.19818277609E+03 -0.66344128494E+02 -0.30944554759E+03  0.38400050692E+03  0.89564983499E+02 0.  0.
         13    1    3    3    0    0 -0.82840013026E+02  0.17599251755E+02 -0.11216162730E+03  0.14054334584E+03  0.00000000000E+00 0.  1.
        -13    1    3    3    0    0 -0.11534276307E+03 -0.83943380249E+02 -0.19728392029E+03  0.24345716109E+03  0.00000000000E+00 0. -1.
         22    1    1    2    0    0  0.19818277609E+03  0.66344128494E+02  0.80626795399E+03  0.83291414309E+03  0.00000000000E+00 0.  1.
<mgrwt>
<rscale>  0 0.11108775E+04</rscale>
<asrwt>0</asrwt>
<pdfrwt beam="1">  1        2 0.13182593E+00 0.11108775E+04</pdfrwt>
<pdfrwt beam="2">  1       -2 0.55391711E-01 0.11108775E+04</pdfrwt>
<totfact> 0.95426990E+01</totfact>
</mgrwt>
</event>
<event>
 6    1  0.5196787E-004  0.5683281E+04  0.7818608E-02  0.7730961E-01
          2   -1    0    0  501    0  0.00000000000E+00  0.00000000000E+00  0.35384224880E+04  0.35384224880E+04  0.00000000000E+00 0.  1.
         -2   -1    0    0    0  501 -0.00000000000E+00 -0.00000000000E+00 -0.22820683902E+04  0.22820683902E+04  0.00000000000E+00 0. -1.
         23    2    1    2    0    0  0.26741245063E+04 -0.55066483577E+03 -0.17589262472E+03  0.27373910889E+04  0.90543479211E+02 0.  0.
         13    1    3    3    0    0  0.13119180792E+04 -0.22895728705E+03 -0.65221191924E+02  0.13333432753E+04  0.00000000000E+00 0. -1.
        -13    1    3    3    0    0  0.13622064271E+04 -0.32170754873E+03 -0.11067143279E+03  0.14040478136E+04  0.00000000000E+00 0.  1.
         22    1    1    2    0    0 -0.26741245063E+04  0.55066483577E+03  0.14322467226E+04  0.30830997893E+04  0.00000000000E+00 0. -1.
<mgrwt>
<rscale>  0 0.56832815E+04</rscale>
<asrwt>0</asrwt>
<pdfrwt beam="1">  1        2 0.54437269E+00 0.56832815E+04</pdfrwt>
<pdfrwt beam="2">  1       -2 0.35108745E+00 0.56832815E+04</pdfrwt>
<totfact> 0.80518945E-03</totfact>
</mgrwt>
</event>
<event>
 6    1  0.5196787E-004  0.3503352E+04  0.7818608E-02  0.8112996E-01
          1   -1    0    0  501    0  0.00000000000E+00  0.00000000000E+00  0.15662681484E+04  0.15662681484E+04  0.00000000000E+00 0.  1.
         -1   -1    0    0    0  501 -0.00000000000E+00 -0.00000000000E+00 -0.19590316406E+04  0.19590316406E+04  0.00000000000E+00 0. -1.
         23    2    1    2    0    0  0.27796353869E+03  0.53529770285E+03 -0.18500261162E+04  0.19481435778E+04  0.94124436217E+02 0.  0.
         13    1    3    3    0    0  0.21583208421E+03  0.35711815933E+03 -0.13781533545E+04  0.14399387268E+04  0.00000000000E+00 0.  1.
        -13    1    3    3    0    0  0.62131454483E+02  0.17817954352E+03 -0.47187276171E+03  0.50820485102E+03  0.00000000000E+00 0. -1.
         22    1    1    2    0    0 -0.27796353869E+03 -0.53529770285E+03  0.14572626239E+04  0.15771562112E+04  0.00000000000E+00 0.  1.
<mgrwt>
<rscale>  0 0.35033520E+04</rscale>
<asrwt>0</asrwt>
<pdfrwt beam="1">  1        1 0.24096433E+00 0.35033520E+04</pdfrwt>
<pdfrwt beam="2">  1       -1 0.30138948E+00 0.35033520E+04</pdfrwt>
<totfact> 0.15528105E-01</totfact>
</mgrwt>
</event>
<event>
 6    1  0.5196787E-004  0.8572334E+03  0.7818608E-02  0.9480680E-01
          2   -1    0    0  501    0  0.00000000000E+00  0.00000000000E+00  0.65286493237E+03  0.65286493237E+03  0.00000000000E+00 0.  1.
         -2   -1    0    0    0  501 -0.00000000000E+00 -0.00000000000E+00 -0.28139401845E+03  0.28139401845E+03  0.00000000000E+00 0. -1.
         23    2    1    2    0    0 -0.41807784405E+03  0.41153115999E+02  0.12640887793E+03  0.44790716032E+03  0.90326946149E+02 0.  0.
         13    1    3    3    0    0 -0.33288510410E+03  0.56534244593E+02  0.12859224295E+03  0.36130953252E+03  0.00000000000E+00 0.  1.
        -13    1    3    3    0    0 -0.85192739954E+02 -0.15381128594E+02 -0.21833650179E+01  0.86597627799E+02  0.00000000000E+00 0. -1.
         22    1    1    2    0    0  0.41807784405E+03 -0.41153115999E+02  0.24506203599E+03  0.48635179050E+03  0.00000000000E+00 0.  1.
<mgrwt>
<rscale>  0 0.85723343E+03</rscale>
<asrwt>0</asrwt>
<pdfrwt beam="1">  1        2 0.10044076E+00 0.85723343E+03</pdfrwt>
<pdfrwt beam="2">  1       -2 0.43291388E-01 0.85723343E+03</pdfrwt>
<totfact> 0.22724250E+02</totfact>
</mgrwt>
</event>
<event>
 6    1  0.5196787E-004  0.1314929E+04  0.7818608E-02  0.9017810E-01
         -2   -1    0    0    0  501 -0.00000000000E+00  0.00000000000E+00  0.88846360375E+03  0.88846360375E+03  0.00000000000E+00 0. -1.
          2   -1    0    0  501    0  0.00000000000E+00 -0.00000000000E+00 -0.48652458957E+03  0.48652458957E+03  0.00000000000E+00 0.  1.
         23    2    1    2    0    0  0.27328199239E+03  0.59318949119E+03  0.16203290899E+03  0.67920679148E+03  0.92251732642E+02 0.  0.
         11    1    3    3    0    0  0.19525723792E+03  0.46965104702E+03  0.15958523627E+03  0.53307123592E+03  0.00000000000E+00 0. -1.
        -11    1    3    3    0    0  0.78024754464E+02  0.12353844417E+03  0.24476727143E+01  0.14613555556E+03  0.00000000000E+00 0.  1.
         22    1    1    2    0    0 -0.27328199239E+03 -0.59318949119E+03  0.23990610520E+03  0.69578140183E+03  0.00000000000E+00 0. -1.
<mgrwt>
<rscale>  0 0.13149287E+04</rscale>
<asrwt>0</asrwt>
<pdfrwt beam="1">  1        2 0.74849937E-01 0.13149287E+04</pdfrwt>
<pdfrwt beam="2">  1       -2 0.13668671E+00 0.13149287E+04</pdfrwt>
<totfact> 0.23770030E+01</totfact>
</mgrwt>
</event>
<event>
 6    1  0.5196787E-004  0.2831472E+04  0.7818608E-02  0.8293564E-01
          2   -1    0    0  501    0  0.00000000000E+00  0.00000000000E+00  0.18736347434E+04  0.18736347434E+04  0.00000000000E+00 0. -1.
         -2   -1    0    0    0  501 -0.00000000000E+00 -0.00000000000E+00 -0.10697435700E+04  0.10697435700E+04  0.00000000000E+00 0.  1.
         23    2    1    2    0    0  0.10460149815E+04 -0.78516996177E+03 -0.15681956463E+03  0.13205399565E+04  0.92704856043E+02 0.  0.
         13    1    3    3    0    0  0.83550928237E+03 -0.60133621341E+03 -0.15531337023E+03  0.10410587137E+04  0.00000000000E+00 0. -1.
        -13    1    3    3    0    0  0.21050569914E+03 -0.18383374837E+03 -0.15061943967E+01  0.27948124271E+03  0.00000000000E+00 0.  1.
         22    1    1    2    0    0 -0.10460149815E+04  0.78516996177E+03  0.96071073806E+03  0.16228383569E+04  0.00000000000E+00 0. -1.
<mgrwt>
<rscale>  0 0.28314722E+04</rscale>
<asrwt>0</asrwt>
<pdfrwt beam="1">  1        2 0.28825150E+00 0.28314722E+04</pdfrwt>
<pdfrwt beam="2">  1       -2 0.16457593E+00 0.28314722E+04</pdfrwt>
<totfact> 0.15895450E+00</totfact>
</mgrwt>
</event>
<event>
 6    1  0.5196787E-004  0.1849636E+04  0.7818608E-02  0.8680340E-01
          2   -1    0    0  501    0  0.00000000000E+00  0.00000000000E+00  0.18407287497E+04  0.18407287497E+04  0.00000000000E+00 0.  1.
         -2   -1    0    0    0  501 -0.00000000000E+00 -0.00000000000E+00 -0.46464650668E+03  0.46464650668E+03  0.00000000000E+00 0. -1.
         23    2    1    2    0    0 -0.89721540731E+03 -0.19489587504E+02  0.42322724999E+03  0.99644135092E+03  0.91644582858E+02 0.  0.
         13    1    3    3    0    0 -0.72477801529E+03 -0.46689243228E+02  0.32015685712E+03  0.79371498036E+03  0.00000000000E+00 0. -1.
        -13    1    3    3    0    0 -0.17243739201E+03  0.27199655724E+02  0.10307039287E+03  0.20272637057E+03  0.00000000000E+00 0.  1.
         22    1    1    2    0    0  0.89721540731E+03  0.19489587504E+02  0.95285499305E+03  0.13089339055E+04  0.00000000000E+00 0.  1.
<mgrwt>
<rscale>  0 0.18496358E+04</rscale>
<asrwt>0</asrwt>
<pdfrwt beam="1">  1        2 0.28318903E+00 0.18496358E+04</pdfrwt>
<pdfrwt beam="2">  1       -2 0.71484079E-01 0.18496358E+04</pdfrwt>
<totfact> 0.13673169E+01</totfact>
</mgrwt>
</event>
<event>
 6    1  0.5196787E-004  0.2948498E+04  0.7818608E-02  0.8258592E-01
         -2   -1    0    0    0  501 -0.00000000000E+00  0.00000000000E+00  0.13139854797E+04  0.13139854797E+04  0.00000000000E+00 0. -1.
          2   -1    0    0  501    0  0.00000000000E+00 -0.00000000000E+00 -0.16540594989E+04  0.16540594989E+04  0.00000000000E+00 0.  1.
         23    2    1    2    0    0  0.12595939647E+03  0.10284950047E+04 -0.12237443099E+04  0.16062296728E+04  0.93572867338E+02 0.  0.
         11    1    3    3    0    0  0.62926341432E+02  0.22537755544E+03 -0.30246958885E+03  0.38241681333E+03  0.00000000000E+00 0.  1.
        -11    1    3    3    0    0  0.63033055040E+02  0.80311744927E+03 -0.92127472104E+03  0.12238128595E+04  0.00000000000E+00 0. -1.
         22    1    1    2    0    0 -0.12595939647E+03 -0.10284950047E+04  0.88367029072E+03  0.13618153058E+04  0.00000000000E+00 0. -1.
<mgrwt>
<rscale>  0 0.29484980E+04</rscale>
<asrwt>0</asrwt>
<pdfrwt beam="1">  1        2 0.25447069E+00 0.29484980E+04</pdfrwt>
<pdfrwt beam="2">  1       -2 0.20215161E+00 0.29484980E+04</pdfrwt>
<totfact> 0.11514519E+00</totfact>
</mgrwt>
</event>
<event>
 6    1  0.5196787E-004  0.2759199E+04  0.7818608E-02  0.8316049E-01
          2   -1    0    0  501    0  0.00000000000E+00  0.00000000000E+00  0.23158338980E+04  0.23158338980E+04  0.00000000000E+00 0.  1.
         -2   -1    0    0    0  501 -0.00000000000E+00 -0.00000000000E+00 -0.82186142680E+03  0.82186142680E+03  0.00000000000E+00 0. -1.
         23    2    1    2    0    0 -0.12466859952E+04  0.56554805285E+03  0.56791799177E+03  0.14849256888E+04  0.91667252235E+02 0.  0.
         11    1    3    3    0    0 -0.78165689011E+03  0.31850296847E+03  0.38220802438E+03  0.92656063412E+03  0.00000000000E+00 0. -1.
        -11    1    3    3    0    0 -0.46502910511E+03  0.24704508437E+03  0.18570996739E+03  0.55836505469E+03  0.00000000000E+00 0.  1.
         22    1    1    2    0    0  0.12466859952E+04 -0.56554805285E+03  0.92605447942E+03  0.16527696360E+04  0.00000000000E+00 0.  1.
<mgrwt>
<rscale>  0 0.27591988E+04</rscale>
<asrwt>0</asrwt>
<pdfrwt beam="1">  1        2 0.35628214E+00 0.27591988E+04</pdfrwt>
<pdfrwt beam="2">  1       -2 0.12644022E+00 0.27591988E+04</pdfrwt>
<totfact> 0.18058981E+00</totfact>
</mgrwt>
</event>
<event>
 6    1  0.5196787E-004  0.6120753E+04  0.7818608E-02  0.7675608E-01
          2   -1    0    0  501    0  0.00000000000E+00  0.00000000000E+00  0.39550523584E+04  0.39550523584E+04  0.00000000000E+00 0.  1.
         -2   -1    0    0    0  501 -0.00000000000E+00 -0.00000000000E+00 -0.23680857358E+04  0.23680857358E+04  0.00000000000E+00 0. -1.
         23    2    1    2    0    0  0.23404971933E+04 -0.19623592402E+04  0.98121553381E+03  0.32093437399E+04  0.91227284677E+02 0.  0.
         13    1    3    3    0    0  0.59495325223E+03 -0.45114839015E+03  0.25470849142E+03  0.78891105828E+03  0.00000000000E+00 0.  1.
        -13    1    3    3    0    0  0.17455439411E+04 -0.15112108500E+04  0.72650704239E+03  0.24204326816E+04  0.00000000000E+00 0. -1.
         22    1    1    2    0    0 -0.23404971933E+04  0.19623592402E+04  0.60575108878E+03  0.31137943543E+04  0.00000000000E+00 0.  1.
<mgrwt>
<rscale>  0 0.61207526E+04</rscale>
<asrwt>0</asrwt>
<pdfrwt beam="1">  1        2 0.60846959E+00 0.61207526E+04</pdfrwt>
<pdfrwt beam="2">  1       -2 0.36432088E+00 0.61207526E+04</pdfrwt>
<totfact> 0.31148311E-03</totfact>
</mgrwt>
</event>
<event>
 6    1  0.5196787E-004  0.2981754E+04  0.7818608E-02  0.8248961E-01
         -2   -1    0    0    0  501 -0.00000000000E+00  0.00000000000E+00  0.59118054233E+03  0.59118054233E+03  0.00000000000E+00 0.  1.
          2   -1    0    0  501    0  0.00000000000E+00 -0.00000000000E+00 -0.37597880627E+04  0.37597880627E+04  0.00000000000E+00 0. -1.
         23    2    1    2    0    0 -0.21225287743E+03 -0.31437090449E+03 -0.36875312201E+04  0.37081916952E+04  0.94439396340E+02 0.  0.
         13    1    3    3    0    0 -0.74282300548E+02 -0.68269575306E+02 -0.13340102111E+04  0.13378198079E+04  0.00000000000E+00 0.  1.
        -13    1    3    3    0    0 -0.13797057688E+03 -0.24610132918E+03 -0.23535210091E+04  0.23703718874E+04  0.00000000000E+00 0. -1.
         22    1    1    2    0    0  0.21225287743E+03  0.31437090449E+03  0.51892369977E+03  0.64277690979E+03  0.00000000000E+00 0.  1.
<mgrwt>
<rscale>  0 0.29817535E+04</rscale>
<asrwt>0</asrwt>
<pdfrwt beam="1">  1        2 0.57842895E+00 0.29817535E+04</pdfrwt>
<pdfrwt beam="2">  1       -2 0.90950849E-01 0.29817535E+04</pdfrwt>
<totfact> 0.46547804E-01</totfact>
</mgrwt>
</event>
<event>
 6    1  0.5196787E-004  0.2219851E+04  0.7818608E-02  0.8510211E-01
         -2   -1    0    0    0  501 -0.00000000000E+00  0.00000000000E+00  0.66446826309E+03  0.66446826309E+03  0.00000000000E+00 0. -1.
          2   -1    0    0  501    0  0.00000000000E+00 -0.00000000000E+00 -0.18540153360E+04  0.18540153360E+04  0.00000000000E+00 0.  1.
         23    2    1    2    0    0 -0.45267498302E+03 -0.40140591753E+03 -0.16487990336E+04  0.17589089061E+04  0.95817199312E+02 0.  0.
         13    1    3    3    0    0 -0.92341820503E+02 -0.66941169827E+02 -0.21854727244E+03  0.24651783368E+03  0.00000000000E+00 0. -1.
        -13    1    3    3    0    0 -0.36033316252E+03 -0.33446474770E+03 -0.14302517612E+04  0.15123910724E+04  0.00000000000E+00 0.  1.
         22    1    1    2    0    0  0.45267498302E+03  0.40140591753E+03  0.45925196070E+03  0.75957469303E+03  0.00000000000E+00 0. -1.
<mgrwt>
<rscale>  0 0.22198508E+04</rscale>
<asrwt>0</asrwt>
<pdfrwt beam="1">  1        2 0.28523313E+00 0.22198508E+04</pdfrwt>
<pdfrwt beam="2">  1       -2 0.10222589E+00 0.22198508E+04</pdfrwt>
<totfact> 0.57599659E+00</totfact>
</mgrwt>
</event>
<event>
 6    1  0.5196787E-004  0.4337174E+04  0.7818608E-02  0.7939780E-01
          2   -1    0    0  501    0  0.00000000000E+00  0.00000000000E+00  0.20084498839E+04  0.20084498839E+04  0.00000000000E+00 0.  1.
         -2   -1    0    0    0  501 -0.00000000000E+00 -0.00000000000E+00 -0.23414925020E+04  0.23414925020E+04  0.00000000000E+00 0. -1.
         23    2    1    2    0    0 -0.13801372895E+04 -0.10115940200E+04 -0.15012275074E+04  0.22780453482E+04  0.87779158317E+02 0.  0.
         11    1    3    3    0    0 -0.89406733711E+03 -0.68840668382E+03 -0.10314908881E+04  0.15288013664E+04  0.00000000000E+00 0. -1.
        -11    1    3    3    0    0 -0.48606995237E+03 -0.32318733614E+03 -0.46973661924E+03  0.74924398182E+03  0.00000000000E+00 0.  1.
         22    1    1    2    0    0  0.13801372895E+04  0.10115940200E+04  0.11681848893E+04  0.20718970377E+04  0.00000000000E+00 0.  1.
<mgrwt>
<rscale>  0 0.43371744E+04</rscale>
<asrwt>0</asrwt>
<pdfrwt beam="1">  1        2 0.30899229E+00 0.43371744E+04</pdfrwt>
<pdfrwt beam="2">  1       -2 0.36022961E+00 0.43371744E+04</pdfrwt>
<totfact> 0.67997086E-02</totfact>
</mgrwt>
</event>
<event>
 6    1  0.5196787E-004  0.1177396E+04  0.7818608E-02  0.9132875E-01
          2   -1    0    0  501    0  0.00000000000E+00  0.00000000000E+00  0.69733443996E+03  0.69733443996E+03  0.00000000000E+00 0. -1.
         -2   -1    0    0    0  501 -0.00000000000E+00 -0.00000000000E+00 -0.49698622576E+03  0.49698622576E+03  0.00000000000E+00 0.  1.
         23    2    1    2    0    0 -0.41956475244E+03 -0.21255100444E+03 -0.25258325632E+03  0.54135862396E+03  0.89768298294E+02 0.  0.
         11    1    3    3    0    0 -0.21621419011E+03 -0.15750343895E+03 -0.12722437996E+03  0.29621268059E+03  0.00000000000E+00 0. -1.
        -11    1    3    3    0    0 -0.20335056233E+03 -0.55047565492E+02 -0.12535887636E+03  0.24514594337E+03  0.00000000000E+00 0.  1.
         22    1    1    2    0    0  0.41956475244E+03  0.21255100444E+03  0.45293147053E+03  0.65296204176E+03  0.00000000000E+00 0. -1.
<mgrwt>
<rscale>  0 0.11773965E+04</rscale>
<asrwt>0</asrwt>
<pdfrwt beam="1">  1        2 0.10728222E+00 0.11773965E+04</pdfrwt>
<pdfrwt beam="2">  1       -2 0.76459419E-01 0.11773965E+04</pdfrwt>
<totfact> 0.62273524E+01</totfact>
</mgrwt>
</event>
<event>
 6    1  0.5196787E-004  0.2837734E+04  0.7818608E-02  0.8291648E-01
         -2   -1    0    0    0  501 -0.00000000000E+00  0.00000000000E+00  0.13509109938E+04  0.13509109938E+04  0.00000000000E+00 0. -1.
          2   -1    0    0  501    0  0.00000000000E+00 -0.00000000000E+00 -0.14902411844E+04  0.14902411844E+04  0.00000000000E+00 0.  1.
         23    2    1    2    0    0  0.41418757654E+03  0.13551269610E+04 -0.10271818054E+03  0.14236681860E+04  0.91431124018E+02 0.  0.
         11    1    3    3    0    0  0.12042264896E+03  0.40694389453E+03  0.10984941947E+02  0.42452987718E+03  0.00000000000E+00 0. -1.
        -11    1    3    3    0    0  0.29376492758E+03  0.94818306644E+03 -0.11370312249E+03  0.99913830886E+03  0.00000000000E+00 0.  1.
         22    1    1    2    0    0 -0.41418757654E+03 -0.13551269610E+04 -0.36612010041E+02  0.14174839922E+04  0.00000000000E+00 0. -1.
<mgrwt>
<rscale>  0 0.28377337E+04</rscale>
<asrwt>0</asrwt>
<pdfrwt beam="1">  1        2 0.22926788E+00 0.28377337E+04</pdfrwt>
<pdfrwt beam="2">  1       -2 0.20783246E+00 0.28377337E+04</pdfrwt>
<totfact> 0.13189416E+00</totfact>
</mgrwt>
</event>
<event>
 6    1  0.5196787E-004  0.1315171E+04  0.7818608E-02  0.9017620E-01
          2   -1    0    0  501    0  0.00000000000E+00  0.00000000000E+00  0.30814553008E+04  0.30814553008E+04  0.00000000000E+00 0.  1.
         -2   -1    0    0    0  501 -0.00000000000E+00 -0.00000000000E+00 -0.14032935872E+03  0.14032935872E+03  0.00000000000E+00 0. -1.
         23    2    1    2    0    0  0.35559917411E+02  0.55270627253E+03  0.23318601796E+04  0.23984053418E+04  0.89596625650E+02 0.  0.
         11    1    3    3    0    0  0.57681676581E+02  0.39987366062E+03  0.17856925677E+04  0.18308260613E+04  0.00000000000E+00 0. -1.
        -11    1    3    3    0    0 -0.22121759170E+02  0.15283261191E+03  0.54616761184E+03  0.56757928056E+03  0.00000000000E+00 0.  1.
         22    1    1    2    0    0 -0.35559917411E+02 -0.55270627253E+03  0.60926576253E+03  0.82337931770E+03  0.00000000000E+00 0. -1.
<mgrwt>
<rscale>  0 0.13151709E+04</rscale>
<asrwt>0</asrwt>
<pdfrwt beam="1">  1        2 0.47406999E+00 0.13151709E+04</pdfrwt>
<pdfrwt beam="2">  1       -2 0.21589134E-01 0.13151709E+04</pdfrwt>
<totfact> 0.28624323E+01</totfact>
</mgrwt>
</event>
<event>
 6    1  0.5196787E-004  0.5809371E+04  0.7818608E-02  0.7714497E-01
         -2   -1    0    0    0  501 -0.00000000000E+00  0.00000000000E+00  0.43168836865E+04  0.43168836865E+04  0.00000000000E+00 0. -1.
          2   -1    0    0  501    0  0.00000000000E+00 -0.00000000000E+00 -0.19544647317E+04  0.19544647317E+04  0.00000000000E+00 0.  1.
         23    2    1    2    0    0 -0.68353905117E+03  0.22058934883E+04  0.30822214142E+04  0.38524008585E+04  0.87816924468E+02 0.  0.
         11    1    3    3    0    0 -0.22084207409E+03  0.80072559648E+03  0.11638880907E+04  0.14298839779E+04  0.00000000000E+00 0. -1.
        -11    1    3    3    0    0 -0.46269697708E+03  0.14051678918E+04  0.19183333235E+04  0.24225168806E+04  0.00000000000E+00 0.  1.
         22    1    1    2    0    0  0.68353905117E+03 -0.22058934883E+04 -0.71980245943E+03  0.24189475597E+04  0.00000000000E+00 0.  1.
<mgrwt>
<rscale>  0 0.58093707E+04</rscale>
<asrwt>0</asrwt>
<pdfrwt beam="1">  1        2 0.30068688E+00 0.58093707E+04</pdfrwt>
<pdfrwt beam="2">  1       -2 0.66413595E+00 0.58093707E+04</pdfrwt>
<totfact> 0.14857430E-03</totfact>
</mgrwt>
</event>
<event>
 6    1  0.5196787E-004  0.1669623E+04  0.7818608E-02  0.8778881E-01
         -2   -1    0    0    0  501 -0.00000000000E+00  0.00000000000E+00  0.30627508708E+03  0.30627508708E+03  0.00000000000E+00 0. -1.
          2   -1    0    0  501    0  0.00000000000E+00 -0.00000000000E+00 -0.22754399834E+04  0.22754399834E+04  0.00000000000E+00 0.  1.
         23    2    1    2    0    0 -0.73756892896E+03 -0.15616396917E+03 -0.44944196868E+03  0.88526203929E+03  0.11530691549E+03 0.  0.
         13    1    3    3    0    0 -0.38492845852E+03 -0.13971159242E+03 -0.23221120938E+03  0.47075608652E+03  0.00000000000E+00 0. -1.
        -13    1    3    3    0    0 -0.35264047044E+03 -0.16452376749E+02 -0.21723075931E+03  0.41450595277E+03  0.00000000000E+00 0.  1.
         22    1    1    2    0    0  0.73756892896E+03  0.15616396917E+03 -0.15197229276E+04  0.16964530312E+04  0.00000000000E+00 0.  1.
<mgrwt>
<rscale>  0 0.16696234E+04</rscale>
<asrwt>0</asrwt>
<pdfrwt beam="1">  1        2 0.35006769E+00 0.16696234E+04</pdfrwt>
<pdfrwt beam="2">  1       -2 0.47119244E-01 0.16696234E+04</pdfrwt>
<totfact> 0.19077931E+01</totfact>
</mgrwt>
</event>
<event>
 6    1  0.5196787E-004  0.1412707E+04  0.7818608E-02  0.8944671E-01
          2   -1    0    0  501    0  0.00000000000E+00  0.00000000000E+00  0.11094860481E+04  0.11094860481E+04  0.00000000000E+00 0.  1.
         -2   -1    0    0    0  501 -0.00000000000E+00 -0.00000000000E+00 -0.44969975453E+03  0.44969975453E+03  0.00000000000E+00 0. -1.
         23    2    1    2    0    0  0.44010006189E+03 -0.49966105365E+03  0.81101141726E+02  0.67701476594E+03  0.91773444393E+02 0.  0.
         13    1    3    3    0    0  0.31663544728E+03 -0.37571793228E+03  0.98785661427E+02  0.50117918753E+03  0.00000000000E+00 0. -1.
        -13    1    3    3    0    0  0.12346461461E+03 -0.12394312137E+03 -0.17684519701E+02  0.17583557841E+03  0.00000000000E+00 0.  1.
         22    1    1    2    0    0 -0.44010006189E+03  0.49966105365E+03  0.57868515185E+03  0.88217103669E+03  0.00000000000E+00 0.  1.
<mgrwt>
<rscale>  0 0.14127075E+04</rscale>
<asrwt>0</asrwt>
<pdfrwt beam="1">  1        2 0.17069016E+00 0.14127075E+04</pdfrwt>
<pdfrwt beam="2">  1       -2 0.69184578E-01 0.14127075E+04</pdfrwt>
<totfact> 0.39867339E+01</totfact>
</mgrwt>
</event>
<event>
 6    1  0.5196787E-004  0.3952490E+04  0.7818608E-02  0.8014200E-01
          2   -1    0    0  501    0  0.00000000000E+00  0.00000000000E+00  0.23911305014E+04  0.23911305014E+04  0.00000000000E+00 0.  1.
         -2   -1    0    0    0  501 -0.00000000000E+00 -0.00000000000E+00 -0.16333460353E+04  0.16333460353E+04  0.00000000000E+00 0. -1.
         23    2    1    2    0    0 -0.58222250285E+03 -0.61125672094E+02 -0.15417866548E+04  0.16515570836E+04  0.88404303777E+02 0.  0.
         11    1    3    3    0    0 -0.34277449033E+03  0.74177248122E+01 -0.87527653870E+03  0.94003105962E+03  0.00000000000E+00 0.  1.
        -11    1    3    3    0    0 -0.23944801252E+03 -0.68543396906E+02 -0.66651011611E+03  0.71152602401E+03  0.00000000000E+00 0. -1.
         22    1    1    2    0    0  0.58222250285E+03  0.61125672094E+02  0.22995711209E+04  0.23729194531E+04  0.00000000000E+00 0.  1.
<mgrwt>
<rscale>  0 0.39524896E+04</rscale>
<asrwt>0</asrwt>
<pdfrwt beam="1">  1        2 0.36786623E+00 0.39524896E+04</pdfrwt>
<pdfrwt beam="2">  1       -2 0.25128400E+00 0.39524896E+04</pdfrwt>
<totfact> 0.20101209E-01</totfact>
</mgrwt>
</event>
<event>
 6    1  0.5196787E-004  0.2152157E+04  0.7818608E-02  0.8538610E-01
          2   -1    0    0  501    0  0.00000000000E+00  0.00000000000E+00  0.81992222704E+03  0.81992222704E+03  0.00000000000E+00 0.  1.
         -2   -1    0    0    0  501 -0.00000000000E+00 -0.00000000000E+00 -0.14122617296E+04  0.14122617296E+04  0.00000000000E+00 0. -1.
         23    2    1    2    0    0  0.90266414955E+03 -0.30363301217E+03  0.21848349362E+03  0.98141239313E+03  0.91867706135E+02 0.  0.
         13    1    3    3    0    0  0.31003707631E+03 -0.14374264638E+03  0.54386156751E+02  0.34603871333E+03  0.00000000000E+00 0. -1.
        -13    1    3    3    0    0  0.59262707325E+03 -0.15989036578E+03  0.16409733687E+03  0.63537367980E+03  0.00000000000E+00 0.  1.
         22    1    1    2    0    0 -0.90266414955E+03  0.30363301217E+03 -0.81082299622E+03  0.12507715635E+04  0.00000000000E+00 0. -1.
<mgrwt>
<rscale>  0 0.21521569E+04</rscale>
<asrwt>0</asrwt>
<pdfrwt beam="1">  1        2 0.12614188E+00 0.21521569E+04</pdfrwt>
<pdfrwt beam="2">  1       -2 0.21727103E+00 0.21521569E+04</pdfrwt>
<totfact> 0.31446323E+00</totfact>
</mgrwt>
</event>
<event>
 6    1  0.5196787E-004  0.2092174E+04  0.7818608E-02  0.8564699E-01
         -2   -1    0    0    0  501 -0.00000000000E+00  0.00000000000E+00  0.26481519365E+03  0.26481519365E+03  0.00000000000E+00 0. -1.
          2   -1    0    0  501    0  0.00000000000E+00 -0.00000000000E+00 -0.41323088644E+04  0.41323088644E+04  0.00000000000E+00 0.  1.
         23    2    1    2    0    0 -0.57719433048E+03 -0.21913632507E+03 -0.37070242979E+04  0.37592177611E+04  0.92276789488E+02 0.  0.
         13    1    3    3    0    0 -0.20396655526E+03 -0.11836408691E+03 -0.12674116442E+04  0.12891643373E+04  0.00000000000E+00 0. -1.
        -13    1    3    3    0    0 -0.37322777522E+03 -0.10077223816E+03 -0.24396126538E+04  0.24700534238E+04  0.00000000000E+00 0.  1.
         22    1    1    2    0    0  0.57719433048E+03  0.21913632507E+03 -0.16046937285E+03  0.63790629698E+03  0.00000000000E+00 0. -1.
<mgrwt>
<rscale>  0 0.20921742E+04</rscale>
<asrwt>0</asrwt>
<pdfrwt beam="1">  1        2 0.63573978E+00 0.20921742E+04</pdfrwt>
<pdfrwt beam="2">  1       -2 0.40740802E-01 0.20921742E+04</pdfrwt>
<totfact> 0.14127062E+00</totfact>
</mgrwt>
</event>
<event>
 6    1  0.5196787E-004  0.2291992E+04  0.7818608E-02  0.8481085E-01
         -2   -1    0    0    0  501 -0.00000000000E+00  0.00000000000E+00  0.53365508001E+03  0.53365508001E+03  0.00000000000E+00 0. -1.
          2   -1    0    0  501    0  0.00000000000E+00 -0.00000000000E+00 -0.24609664157E+04  0.24609664157E+04  0.00000000000E+00 0.  1.
         23    2    1    2    0    0 -0.74968946145E+03  0.12066785204E+03 -0.20829524303E+04  0.22194962352E+04  0.10429617555E+03 0.  0.
         13    1    3    3    0    0 -0.53073517119E+03  0.75412250433E+02 -0.13274294295E+04  0.14315850375E+04  0.00000000000E+00 0.  1.
        -13    1    3    3    0    0 -0.21895429026E+03  0.45255601605E+02 -0.75552300079E+03  0.78791119768E+03  0.00000000000E+00 0. -1.
         22    1    1    2    0    0  0.74968946145E+03 -0.12066785204E+03  0.15564109458E+03  0.77512526049E+03  0.00000000000E+00 0. -1.
<mgrwt>
<rscale>  0 0.22919923E+04</rscale>
<asrwt>0</asrwt>
<pdfrwt beam="1">  1        2 0.37861023E+00 0.22919923E+04</pdfrwt>
<pdfrwt beam="2">  1       -2 0.82100779E-01 0.22919923E+04</pdfrwt>
<totfact> 0.43369282E+00</totfact>
</mgrwt>
</event>
<event>
 6    1  0.5196787E-004  0.2899938E+04  0.7818608E-02  0.8272896E-01
         -2   -1    0    0    0  501 -0.00000000000E+00  0.00000000000E+00  0.10747344695E+04  0.10747344695E+04  0.00000000000E+00 0. -1.
          2   -1    0    0  501    0  0.00000000000E+00 -0.00000000000E+00 -0.19562137405E+04  0.19562137405E+04  0.00000000000E+00 0.  1.
         23    2    1    2    0    0  0.44685745449E+03  0.63339438740E+03 -0.17201327291E+04  0.18889282201E+04  0.91231464576E+02 0.  0.
         13    1    3    3    0    0  0.34216207787E+03  0.41273974868E+03 -0.11989117515E+04  0.13133234086E+04  0.00000000000E+00 0. -1.
        -13    1    3    3    0    0  0.10469537662E+03  0.22065463872E+03 -0.52122097766E+03  0.57560481150E+03  0.00000000000E+00 0.  1.
         22    1    1    2    0    0 -0.44685745449E+03 -0.63339438740E+03  0.83865345809E+03  0.11420199899E+04  0.00000000000E+00 0. -1.
<mgrwt>
<rscale>  0 0.28999382E+04</rscale>
<asrwt>0</asrwt>
<pdfrwt beam="1">  1        2 0.30095596E+00 0.28999382E+04</pdfrwt>
<pdfrwt beam="2">  1       -2 0.16534376E+00 0.28999382E+04</pdfrwt>
<totfact> 0.14040742E+00</totfact>
</mgrwt>
</event>
<event>
 6    1  0.5196787E-004  0.2618659E+04  0.7818608E-02  0.8361891E-01
          2   -1    0    0  501    0  0.00000000000E+00  0.00000000000E+00  0.13873645565E+04  0.13873645565E+04  0.00000000000E+00 0.  1.
         -2   -1    0    0    0  501 -0.00000000000E+00 -0.00000000000E+00 -0.12356838391E+04  0.12356838391E+04  0.00000000000E+00 0. -1.
         23    2    1    2    0    0 -0.11027879947E+04 -0.68946858026E+03 -0.50997324684E+02  0.13067708135E+04  0.11636557626E+03 0.  0.
         11    1    3    3    0    0 -0.46741146187E+03 -0.34819676801E+03 -0.55913615100E+02  0.58552608507E+03  0.00000000000E+00 0. -1.
        -11    1    3    3    0    0 -0.63537653284E+03 -0.34127181225E+03  0.49162904164E+01  0.72124472839E+03  0.00000000000E+00 0.  1.
         22    1    1    2    0    0  0.11027879947E+04  0.68946858026E+03  0.20267804217E+03  0.13162775821E+04  0.00000000000E+00 0. -1.
<mgrwt>
<rscale>  0 0.26186592E+04</rscale>
<asrwt>0</asrwt>
<pdfrwt beam="1">  1        2 0.21344070E+00 0.26186592E+04</pdfrwt>
<pdfrwt beam="2">  1       -2 0.19010521E+00 0.26186592E+04</pdfrwt>
<totfact> 0.20112342E+00</totfact>
</mgrwt>
</event>
<event>
 6    1  0.5196787E-004  0.2103039E+04  0.7818608E-02  0.8559906E-01
         -2   -1    0    0    0  501 -0.00000000000E+00  0.00000000000E+00  0.12655302572E+04  0.12655302572E+04  0.00000000000E+00 0. -1.
          2   -1    0    0  501    0  0.00000000000E+00 -0.00000000000E+00 -0.87369999412E+03  0.87369999412E+03  0.00000000000E+00 0.  1.
         23    2    1    2    0    0 -0.94411795348E+03  0.83094739938E+02  0.65504343300E+03  0.11555917920E+04  0.89705321231E+02 0.  0.
         13    1    3    3    0    0 -0.28580259872E+03 -0.16099666340E+02  0.19774531231E+03  0.34791598588E+03  0.00000000000E+00 0.  1.
        -13    1    3    3    0    0 -0.65831535476E+03  0.99194406278E+02  0.45729812069E+03  0.80767580609E+03  0.00000000000E+00 0. -1.
         22    1    1    2    0    0  0.94411795348E+03 -0.83094739938E+02 -0.26321316992E+03  0.98363845935E+03  0.00000000000E+00 0.  1.
<mgrwt>
<rscale>  0 0.21030395E+04</rscale>
<asrwt>0</asrwt>
<pdfrwt beam="1">  1        2 0.13441538E+00 0.21030395E+04</pdfrwt>
<pdfrwt beam="2">  1       -2 0.19469696E+00 0.21030395E+04</pdfrwt>
<totfact> 0.40579850E+00</totfact>
</mgrwt>
</event>
<event>
 6    1  0.5196787E-004  0.2053004E+04  0.7818608E-02  0.8582233E-01
          2   -1    0    0  501    0  0.00000000000E+00  0.00000000000E+00  0.14042948979E+04  0.14042948979E+04  0.00000000000E+00 0.  1.
         -2   -1    0    0    0  501 -0.00000000000E+00 -0.00000000000E+00 -0.75034543280E+03  0.75034543280E+03  0.00000000000E+00 0. -1.
         23    2    1    2    0    0  0.51824240381E+03  0.42876801459E+03  0.11382546008E+04  0.13258046028E+04  0.98575398388E+02 0.  0.
         11    1    3    3    0    0  0.10011800166E+03  0.86238298933E+02  0.30751109247E+03  0.33469946288E+03  0.00000000000E+00 0. -1.
        -11    1    3    3    0    0  0.41812440214E+03  0.34252971565E+03  0.83074350831E+03  0.99110513992E+03  0.00000000000E+00 0.  1.
         22    1    1    2    0    0 -0.51824240381E+03 -0.42876801459E+03 -0.48430513567E+03  0.82883572792E+03  0.00000000000E+00 0. -1.
<mgrwt>
<rscale>  0 0.20530039E+04</rscale>
<asrwt>0</asrwt>
<pdfrwt beam="1">  1        2 0.21604537E+00 0.20530039E+04</pdfrwt>
<pdfrwt beam="2">  1       -2 0.11543776E+00 0.20530039E+04</pdfrwt>
<totfact> 0.77775172E+00</totfact>
</mgrwt>
</event>
<event>
 6    1  0.5196787E-004  0.2581717E+04  0.7818608E-02  0.8374438E-01
          2   -1    0    0  501    0  0.00000000000E+00  0.00000000000E+00  0.11773986343E+04  0.11773986343E+04  0.00000000000E+00 0.  1.
         -2   -1    0    0    0  501 -0.00000000000E+00 -0.00000000000E+00 -0.14152519447E+04  0.14152519447E+04  0.00000000000E+00 0. -1.
         23    2    1    2    0    0 -0.59781173703E+03 -0.11257037298E+04 -0.31526431031E+03  0.13157088328E+04  0.84323111615E+02 0.  0.
         13    1    3    3    0    0 -0.84706903333E+02 -0.12076560132E+03 -0.16207556740E+02  0.14839903918E+03  0.00000000000E+00 0.  1.
        -13    1    3    3    0    0 -0.51310483369E+03 -0.10049381285E+04 -0.29905675357E+03  0.11673097936E+04  0.00000000000E+00 0. -1.
         22    1    1    2    0    0  0.59781173703E+03  0.11257037298E+04  0.77410999936E+02  0.12769417462E+04  0.00000000000E+00 0. -1.
<mgrwt>
<rscale>  0 0.25817170E+04</rscale>
<asrwt>0</asrwt>
<pdfrwt beam="1">  1        2 0.18113825E+00 0.25817170E+04</pdfrwt>
<pdfrwt beam="2">  1       -2 0.21773107E+00 0.25817170E+04</pdfrwt>
<totfact> 0.17687069E+00</totfact>
</mgrwt>
</event>
<event>
 6    1  0.5196787E-004  0.2189649E+04  0.7818608E-02  0.8522749E-01
         -2   -1    0    0    0  501 -0.00000000000E+00  0.00000000000E+00  0.44135209925E+03  0.44135209925E+03  0.00000000000E+00 0. -1.
          2   -1    0    0  501    0  0.00000000000E+00 -0.00000000000E+00 -0.27158367329E+04  0.27158367329E+04  0.00000000000E+00 0.  1.
         23    2    1    2    0    0  0.86822113155E+03  0.56939001904E+03 -0.16315007954E+04  0.19359430980E+04  0.89821522968E+02 0.  0.
         13    1    3    3    0    0  0.83408793566E+03  0.53359193270E+03 -0.15792914294E+04  0.18640237268E+04  0.00000000000E+00 0. -1.
        -13    1    3    3    0    0  0.34133195894E+02  0.35798086339E+02 -0.52209365987E+02  0.71919371134E+02  0.00000000000E+00 0.  1.
         22    1    1    2    0    0 -0.86822113155E+03 -0.56939001904E+03 -0.64298383821E+03  0.12212457342E+04  0.00000000000E+00 0. -1.
<mgrwt>
<rscale>  0 0.21896486E+04</rscale>
<asrwt>0</asrwt>
<pdfrwt beam="1">  1        2 0.41782105E+00 0.21896486E+04</pdfrwt>
<pdfrwt beam="2">  1       -2 0.67900321E-01 0.21896486E+04</pdfrwt>
<totfact> 0.47242415E+00</totfact>
</mgrwt>
</event>
<event>
 6    1  0.5196787E-004  0.8817321E+03  0.7818608E-02  0.9448710E-01
          2   -1    0    0  501    0  0.00000000000E+00  0.00000000000E+00  0.26914600424E+03  0.26914600424E+03  0.00000000000E+00 0.  1.
         -2   -1    0    0    0  501 -0.00000000000E+00 -0.00000000000E+00 -0.72214654537E+03  0.72214654537E+03  0.00000000000E+00 0. -1.
         23    2    1    2    0    0  0.11304961822E+03 -0.28378877947E+03  0.11581996565E+03  0.34563547619E+03  0.11284205962E+03 0.  0.
         11    1    3    3    0    0  0.95998315508E+02 -0.15113847312E+03  0.18027030426E+02  0.17995412878E+03  0.00000000000E+00 0. -1.
        -11    1    3    3    0    0  0.17051302713E+02 -0.13265030635E+03  0.97792935226E+02  0.16568134741E+03  0.00000000000E+00 0.  1.
         22    1    1    2    0    0 -0.11304961822E+03  0.28378877947E+03 -0.56882050678E+03  0.64565707343E+03  0.00000000000E+00 0. -1.
<mgrwt>
<rscale>  0 0.88173206E+03</rscale>
<asrwt>0</asrwt>
<pdfrwt beam="1">  1        2 0.41407078E-01 0.88173206E+03</pdfrwt>
<pdfrwt beam="2">  1       -2 0.11109947E+00 0.88173206E+03</pdfrwt>
<totfact> 0.79786347E+01</totfact>
</mgrwt>
</event>
<event>
 6    1  0.5196787E-004  0.1889840E+04  0.7818608E-02  0.8659930E-01
         -2   -1    0    0    0  501 -0.00000000000E+00  0.00000000000E+00  0.49832410191E+03  0.49832410191E+03  0.00000000000E+00 0. -1.
          2   -1    0    0  501    0  0.00000000000E+00 -0.00000000000E+00 -0.17917536546E+04  0.17917536546E+04  0.00000000000E+00 0.  1.
         23    2    1    2    0    0 -0.11539158152E+03 -0.38255152787E+03  0.38646338089E+03  0.56331744979E+03  0.91168612544E+02 0.  0.
         13    1    3    3    0    0 -0.51352014978E+02 -0.19278784622E+03  0.25489008144E+03  0.32368678797E+03  0.00000000000E+00 0.  1.
        -13    1    3    3    0    0 -0.64039566543E+02 -0.18976368165E+03  0.13157329945E+03  0.23963066182E+03  0.00000000000E+00 0. -1.
         22    1    1    2    0    0  0.11539158152E+03  0.38255152787E+03 -0.16798929336E+04  0.17267603067E+04  0.00000000000E+00 0.  1.
<mgrwt>
<rscale>  0 0.18898402E+04</rscale>
<asrwt>0</asrwt>
<pdfrwt beam="1">  1        2 0.27565441E+00 0.18898402E+04</pdfrwt>
<pdfrwt beam="2">  1       -2 0.76665247E-01 0.18898402E+04</pdfrwt>
<totfact> 0.12428338E+01</totfact>
</mgrwt>
</event>
<event>
 6    1  0.5196787E-004  0.3239171E+04  0.7818608E-02  0.8178548E-01
         -2   -1    0    0    0  501 -0.00000000000E+00  0.00000000000E+00  0.12011565191E+04  0.12011565191E+04  0.00000000000E+00 0. -1.
          2   -1    0    0  501    0  0.00000000000E+00 -0.00000000000E+00 -0.21837758379E+04  0.21837758379E+04  0.00000000000E+00 0.  1.
         23    2    1    2    0    0  0.15856143283E+04  0.17683501124E+03 -0.77689012528E+03  0.17762782860E+04  0.78503906037E+02 0.  0.
         13    1    3    3    0    0  0.24862683753E+03  0.47853031914E+02 -0.10069032924E+03  0.27247708052E+03  0.00000000000E+00 0. -1.
        -13    1    3    3    0    0  0.13369874907E+04  0.12898197932E+03 -0.67619979604E+03  0.15038012055E+04  0.00000000000E+00 0.  1.
         22    1    1    2    0    0 -0.15856143283E+04 -0.17683501124E+03 -0.20572919352E+03  0.16086540710E+04  0.00000000000E+00 0. -1.
<mgrwt>
<rscale>  0 0.32391706E+04</rscale>
<asrwt>0</asrwt>
<pdfrwt beam="1">  1        2 0.33596551E+00 0.32391706E+04</pdfrwt>
<pdfrwt beam="2">  1       -2 0.18479331E+00 0.32391706E+04</pdfrwt>
<totfact> 0.74405659E-01</totfact>
</mgrwt>
</event>
<event>
 6    1  0.5196787E-004  0.1499803E+04  0.7818608E-02  0.8884584E-01
         -1   -1    0    0    0  501 -0.00000000000E+00  0.00000000000E+00  0.45707126000E+03  0.45707126000E+03  0.00000000000E+00 0. -1.
          1   -1    0    0  501    0  0.00000000000E+00 -0.00000000000E+00 -0.12303379121E+04  0.12303379121E+04  0.00000000000E+00 0.  1.
         23    2    1    2    0    0 -0.23893140028E+02 -0.21654404247E+03  0.41606921762E+03  0.47828468906E+03  0.90445815090E+02 0.  0.
         11    1    3    3    0    0  0.21799078020E+02 -0.13415183424E+03  0.29561529921E+03  0.32536182868E+03  0.00000000000E+00 0.  1.
        -11    1    3    3    0    0 -0.45692218048E+02 -0.82392208235E+02  0.12045391841E+03  0.15292286039E+03  0.00000000000E+00 0. -1.
         22    1    1    2    0    0  0.23893140028E+02  0.21654404247E+03 -0.11893358697E+04  0.12091244830E+04  0.00000000000E+00 0.  1.
<mgrwt>
<rscale>  0 0.14998028E+04</rscale>
<asrwt>0</asrwt>
<pdfrwt beam="1">  1        1 0.18928275E+00 0.14998028E+04</pdfrwt>
<pdfrwt beam="2">  1       -1 0.70318656E-01 0.14998028E+04</pdfrwt>
<totfact> 0.20080032E+01</totfact>
</mgrwt>
</event>
<event>
 6    1  0.5196787E-004  0.1313207E+04  0.7818608E-02  0.9019157E-01
          1   -1    0    0  501    0  0.00000000000E+00  0.00000000000E+00  0.18841474091E+04  0.18841474091E+04  0.00000000000E+00 0. -1.
         -1   -1    0    0    0  501 -0.00000000000E+00 -0.00000000000E+00 -0.22881883727E+03  0.22881883727E+03  0.00000000000E+00 0.  1.
         23    2    1    2    0    0 -0.36275631499E+03 -0.29855010596E+03  0.15623659705E+04  0.16340441702E+04  0.91589379394E+02 0.  0.
         13    1    3    3    0    0 -0.73842230775E+02 -0.53640164061E+02  0.19692672987E+03  0.21704856412E+03  0.00000000000E+00 0. -1.
        -13    1    3    3    0    0 -0.28891408422E+03 -0.24490994189E+03  0.13654392406E+04  0.14169956061E+04  0.00000000000E+00 0.  1.
         22    1    1    2    0    0  0.36275631499E+03  0.29855010596E+03  0.92962601320E+02  0.47892207620E+03  0.00000000000E+00 0.  1.
<mgrwt>
<rscale>  0 0.13132074E+04</rscale>
<asrwt>0</asrwt>
<pdfrwt beam="1">  1        1 0.28986882E+00 0.13132074E+04</pdfrwt>
<pdfrwt beam="2">  1       -1 0.35202899E-01 0.13132074E+04</pdfrwt>
<totfact> 0.26942379E+01</totfact>
</mgrwt>
</event>
<event>
 6    1  0.5196787E-004  0.5585284E+04  0.7818608E-02  0.7744062E-01
          2   -1    0    0  501    0  0.00000000000E+00  0.00000000000E+00  0.43938960017E+04  0.43938960017E+04  0.00000000000E+00 0.  1.
         -2   -1    0    0    0  501 -0.00000000000E+00 -0.00000000000E+00 -0.17749282774E+04  0.17749282774E+04  0.00000000000E+00 0. -1.
         23    2    1    2    0    0 -0.20546583614E+04  0.16799434661E+04  0.35277313520E+03  0.26789146890E+04  0.91126255389E+02 0.  0.
         11    1    3    3    0    0 -0.14247306122E+04  0.11463810668E+04  0.20295654941E+03  0.18399016899E+04  0.00000000000E+00 0.  1.
        -11    1    3    3    0    0 -0.62992774925E+03  0.53356239930E+03  0.14981658579E+03  0.83901299906E+03  0.00000000000E+00 0. -1.
         22    1    1    2    0    0  0.20546583614E+04 -0.16799434661E+04  0.22661945891E+04  0.34899095901E+04  0.00000000000E+00 0. -1.
<mgrwt>
<rscale>  0 0.55852843E+04</rscale>
<asrwt>0</asrwt>
<pdfrwt beam="1">  1        2 0.67598399E+00 0.55852843E+04</pdfrwt>
<pdfrwt beam="2">  1       -2 0.27306589E+00 0.55852843E+04</pdfrwt>
<totfact> 0.49706950E-03</totfact>
</mgrwt>
</event>
<event>
 6    1  0.5196787E-004  0.1240253E+04  0.7818608E-02  0.9078335E-01
          2   -1    0    0  501    0  0.00000000000E+00  0.00000000000E+00  0.14310324335E+04  0.14310324335E+04  0.00000000000E+00 0.  1.
         -2   -1    0    0    0  501 -0.00000000000E+00 -0.00000000000E+00 -0.26872675144E+03  0.26872675144E+03  0.00000000000E+00 0. -1.
         23    2    1    2    0    0 -0.57066253065E+03 -0.13238010996E+03  0.31951829110E+03  0.67337192677E+03  0.90319411039E+02 0.  0.
         11    1    3    3    0    0 -0.34916984482E+03 -0.92440837182E+02  0.14775306003E+03  0.39025101621E+03  0.00000000000E+00 0.  1.
        -11    1    3    3    0    0 -0.22149268583E+03 -0.39939272781E+02  0.17176523107E+03  0.28312091055E+03  0.00000000000E+00 0. -1.
         22    1    1    2    0    0  0.57066253065E+03  0.13238010996E+03  0.84278739098E+03  0.10263872582E+04  0.00000000000E+00 0.  1.
<mgrwt>
<rscale>  0 0.12402527E+04</rscale>
<asrwt>0</asrwt>
<pdfrwt beam="1">  1        2 0.22015883E+00 0.12402527E+04</pdfrwt>
<pdfrwt beam="2">  1       -2 0.41342578E-01 0.12402527E+04</pdfrwt>
<totfact> 0.75734078E+01</totfact>
</mgrwt>
</event>
<event>
 6    1  0.5196787E-004  0.8060310E+03  0.7818608E-02  0.9551328E-01
         -2   -1    0    0    0  501 -0.00000000000E+00  0.00000000000E+00  0.87796355605E+02  0.87796355605E+02  0.00000000000E+00 0. -1.
          2   -1    0    0  501    0  0.00000000000E+00 -0.00000000000E+00 -0.18499800742E+04  0.18499800742E+04  0.00000000000E+00 0.  1.
         23    2    1    2    0    0 -0.29327011918E+03 -0.13956207885E+03 -0.14458475100E+04  0.14843963095E+04  0.86443303378E+02 0.  0.
         13    1    3    3    0    0 -0.12931664913E+03 -0.15266471832E+02 -0.58093141007E+03  0.59534625565E+03  0.00000000000E+00 0. -1.
        -13    1    3    3    0    0 -0.16395347005E+03 -0.12429560701E+03 -0.86491609994E+03  0.88905005383E+03  0.00000000000E+00 0.  1.
         22    1    1    2    0    0  0.29327011918E+03  0.13956207885E+03 -0.31633620857E+03  0.45338012032E+03  0.00000000000E+00 0. -1.
<mgrwt>
<rscale>  0 0.80603104E+03</rscale>
<asrwt>0</asrwt>
<pdfrwt beam="1">  1        2 0.28461229E+00 0.80603104E+03</pdfrwt>
<pdfrwt beam="2">  1       -2 0.13507133E-01 0.80603104E+03</pdfrwt>
<totfact> 0.34373723E+02</totfact>
</mgrwt>
</event>
<event>
 6    1  0.5196787E-004  0.4038444E+04  0.7818608E-02  0.7996836E-01
         -2   -1    0    0    0  501 -0.00000000000E+00  0.00000000000E+00  0.19151547752E+04  0.19151547752E+04  0.00000000000E+00 0. -1.
          2   -1    0    0  501    0  0.00000000000E+00 -0.00000000000E+00 -0.21289440577E+04  0.21289440577E+04  0.00000000000E+00 0.  1.
         23    2    1    2    0    0  0.55841827746E+03  0.26074213503E+02  0.18349606503E+04  0.19204493504E+04  0.92381180059E+02 0.  0.
         13    1    3    3    0    0  0.43789473837E+03  0.58443309529E+02  0.14217121241E+04  0.14887688828E+04  0.00000000000E+00 0.  1.
        -13    1    3    3    0    0  0.12052353909E+03 -0.32369096026E+02  0.41324852611E+03  0.43168046769E+03  0.00000000000E+00 0. -1.
         22    1    1    2    0    0 -0.55841827746E+03 -0.26074213503E+02 -0.20487499328E+04  0.21236494824E+04  0.00000000000E+00 0.  1.
<mgrwt>
<rscale>  0 0.40384439E+04</rscale>
<asrwt>0</asrwt>
<pdfrwt beam="1">  1        2 0.32752985E+00 0.40384439E+04</pdfrwt>
<pdfrwt beam="2">  1       -2 0.29463920E+00 0.40384439E+04</pdfrwt>
<totfact> 0.15260205E-01</totfact>
</mgrwt>
</event>
<event>
 6    1  0.5196787E-004  0.1124050E+04  0.7818608E-02  0.9182063E-01
         -2   -1    0    0    0  501 -0.00000000000E+00  0.00000000000E+00  0.20485014297E+03  0.20485014297E+03  0.00000000000E+00 0. -1.
          2   -1    0    0  501    0  0.00000000000E+00 -0.00000000000E+00 -0.15419676986E+04  0.15419676986E+04  0.00000000000E+00 0.  1.
         23    2    1    2    0    0  0.10660033908E+03  0.46462352290E+03 -0.22418538180E+03  0.53609216088E+03  0.99484014869E+02 0.  0.
         13    1    3    3    0    0  0.34219545030E+01  0.20009732949E+03 -0.12170365948E+03  0.23422730791E+03  0.00000000000E+00 0. -1.
        -13    1    3    3    0    0  0.10317838458E+03  0.26452619341E+03 -0.10248172232E+03  0.30186485297E+03  0.00000000000E+00 0.  1.
         22    1    1    2    0    0 -0.10660033908E+03 -0.46462352290E+03 -0.11129321738E+04  0.12107256807E+04  0.00000000000E+00 0.  1.
<mgrwt>
<rscale>  0 0.11240504E+04</rscale>
<asrwt>0</asrwt>
<pdfrwt beam="1">  1        2 0.23722581E+00 0.11240504E+04</pdfrwt>
<pdfrwt beam="2">  1       -2 0.31515406E-01 0.11240504E+04</pdfrwt>
<totfact> 0.11135000E+02</totfact>
</mgrwt>
</event>
<event>
 6    1  0.5196787E-004  0.1303421E+04  0.7818608E-02  0.9026857E-01
         -2   -1    0    0    0  501 -0.00000000000E+00  0.00000000000E+00  0.19704587578E+03  0.19704587578E+03  0.00000000000E+00 0. -1.
          2   -1    0    0  501    0  0.00000000000E+00 -0.00000000000E+00 -0.21554704912E+04  0.21554704912E+04  0.00000000000E+00 0.  1.
         23    2    1    2    0    0  0.36257915149E+03  0.41745879106E+03 -0.37014957202E+03  0.67074554526E+03  0.84577760042E+02 0.  0.
         13    1    3    3    0    0  0.30864244890E+03  0.30466002570E+03 -0.30060116909E+03  0.52767315204E+03  0.00000000000E+00 0.  1.
        -13    1    3    3    0    0  0.53936702589E+02  0.11279876536E+03 -0.69548402926E+02  0.14307239322E+03  0.00000000000E+00 0. -1.
         22    1    1    2    0    0 -0.36257915149E+03 -0.41745879106E+03 -0.15882750434E+04  0.16817708217E+04  0.00000000000E+00 0.  1.
<mgrwt>
<rscale>  0 0.13034210E+04</rscale>
<asrwt>0</asrwt>
<pdfrwt beam="1">  1        2 0.33161085E+00 0.13034210E+04</pdfrwt>
<pdfrwt beam="2">  1       -2 0.30314749E-01 0.13034210E+04</pdfrwt>
<totfact> 0.54002462E+01</totfact>
</mgrwt>
</event>
<event>
 6    1  0.5196787E-004  0.1338924E+04  0.7818608E-02  0.8999255E-01
          2   -1    0    0  501    0  0.00000000000E+00  0.00000000000E+00  0.19619731000E+03  0.19619731000E+03  0.00000000000E+00 0.  1.
         -2   -1    0    0    0  501 -0.00000000000E+00 -0.00000000000E+00 -0.22843298816E+04  0.22843298816E+04  0.00000000000E+00 0. -1.
         23    2    1    2    0    0 -0.65192649583E+03  0.13510373619E+03 -0.10937680977E+04  0.12838560244E+04  0.93254835220E+02 0.  0.
         11    1    3    3    0    0 -0.17843950383E+03 -0.43929921591E+01 -0.27763894434E+03  0.33006565759E+03  0.00000000000E+00 0. -1.
        -11    1    3    3    0    0 -0.47348699200E+03  0.13949672835E+03 -0.81612915340E+03  0.95379036682E+03  0.00000000000E+00 0.  1.
         22    1    1    2    0    0  0.65192649583E+03 -0.13510373619E+03 -0.99436447384E+03  0.11966711672E+04  0.00000000000E+00 0. -1.
<mgrwt>
<rscale>  0 0.13389240E+04</rscale>
<asrwt>0</asrwt>
<pdfrwt beam="1">  1        2 0.30184202E-01 0.13389240E+04</pdfrwt>
<pdfrwt beam="2">  1       -2 0.35143537E+00 0.13389240E+04</pdfrwt>
<totfact> 0.26620108E+00</totfact>
</mgrwt>
</event>
<event>
 6    1  0.5196787E-004  0.8934651E+03  0.7818608E-02  0.9433787E-01
         -2   -1    0    0    0  501 -0.00000000000E+00  0.00000000000E+00  0.13516260130E+03  0.13516260130E+03  0.00000000000E+00 0. -1.
          2   -1    0    0  501    0  0.00000000000E+00 -0.00000000000E+00 -0.14765177804E+04  0.14765177804E+04  0.00000000000E+00 0.  1.
         23    2    1    2    0    0  0.13510219795E+03  0.24922335436E+03 -0.12896394770E+04  0.13235148076E+04  0.90313791643E+02 0.  0.
         13    1    3    3    0    0  0.74450060275E+02  0.21380849934E+03 -0.93869521021E+03  0.96561150757E+03  0.00000000000E+00 0. -1.
        -13    1    3    3    0    0  0.60652137676E+02  0.35414855015E+02 -0.35094426680E+03  0.35790330002E+03  0.00000000000E+00 0.  1.
         22    1    1    2    0    0 -0.13510219795E+03 -0.24922335436E+03 -0.51715702051E+02  0.28816557408E+03  0.00000000000E+00 0. -1.
<mgrwt>
<rscale>  0 0.89346513E+03</rscale>
<asrwt>0</asrwt>
<pdfrwt beam="1">  1        2 0.22715659E+00 0.89346513E+03</pdfrwt>
<pdfrwt beam="2">  1       -2 0.20794246E-01 0.89346513E+03</pdfrwt>
<totfact> 0.26190619E+02</totfact>
</mgrwt>
</event>
<event>
 6    1  0.5196787E-004  0.1472948E+04  0.7818608E-02  0.8902644E-01
         -2   -1    0    0    0  501 -0.00000000000E+00  0.00000000000E+00  0.10856028954E+04  0.10856028954E+04  0.00000000000E+00 0.  1.
          2   -1    0    0  501    0  0.00000000000E+00 -0.00000000000E+00 -0.49962471950E+03  0.49962471950E+03  0.00000000000E+00 0. -1.
         23    2    1    2    0    0 -0.17494293662E+03 -0.83393576302E+02  0.10556782391E+04  0.10771157483E+04  0.90345287630E+02 0.  0.
         13    1    3    3    0    0 -0.20470347265E+02 -0.51569703313E+02  0.24004583869E+03  0.24637466203E+03  0.00000000000E+00 0.  1.
        -13    1    3    3    0    0 -0.15447258935E+03 -0.31823872989E+02  0.81563240046E+03  0.83074108628E+03  0.00000000000E+00 0. -1.
         22    1    1    2    0    0  0.17494293662E+03  0.83393576302E+02 -0.46970006321E+03  0.50811186664E+03  0.00000000000E+00 0. -1.
<mgrwt>
<rscale>  0 0.14729481E+04</rscale>
<asrwt>0</asrwt>
<pdfrwt beam="1">  1        2 0.76865342E-01 0.14729481E+04</pdfrwt>
<pdfrwt beam="2">  1       -2 0.16701583E+00 0.14729481E+04</pdfrwt>
<totfact> 0.13344888E+01</totfact>
</mgrwt>
</event>
<event>
 6    1  0.6353581E-004  0.4113087E+04  0.7818608E-02  0.7982114E-01
          2   -1    0    0  501    0  0.00000000000E+00  0.00000000000E+00  0.22416776563E+04  0.22416776563E+04  0.00000000000E+00 0.  1.
         -2   -1    0    0    0  501 -0.00000000000E+00 -0.00000000000E+00 -0.18866988761E+04  0.18866988761E+04  0.00000000000E+00 0. -1.
         23    2    1    2    0    0 -0.10642595825E+03  0.11338076348E+04  0.18950137491E+04  0.22130295814E+04  0.97860009096E+02 0.  0.
         13    1    3    3    0    0 -0.79109750030E+02  0.46898645982E+03  0.85490086206E+03  0.97829552590E+03  0.00000000000E+00 0.  1.
        -13    1    3    3    0    0 -0.27316208218E+02  0.66482117493E+03  0.10401128871E+04  0.12347340555E+04  0.00000000000E+00 0. -1.
         22    1    1    2    0    0  0.10642595825E+03 -0.11338076348E+04 -0.15400349690E+04  0.19153469511E+04  0.00000000000E+00 0.  1.
<mgrwt>
<rscale>  0 0.41130868E+04</rscale>
<asrwt>0</asrwt>
<pdfrwt beam="1">  1        2 0.34487348E+00 0.41130868E+04</pdfrwt>
<pdfrwt beam="2">  1       -2 0.29026137E+00 0.41130868E+04</pdfrwt>
<totfact> 0.13941442E-01</totfact>
</mgrwt>
</event>
<event>
 6    1  0.5196787E-004  0.1184182E+04  0.7818608E-02  0.9126816E-01
         -2   -1    0    0    0  501 -0.00000000000E+00  0.00000000000E+00  0.93524579679E+02  0.93524579679E+02  0.00000000000E+00 0.  1.
          2   -1    0    0  501    0  0.00000000000E+00 -0.00000000000E+00 -0.37484429385E+04  0.37484429385E+04  0.00000000000E+00 0. -1.
         23    2    1    2    0    0 -0.19063112837E+03  0.42380222902E+03 -0.30106215862E+04  0.30475703332E+04  0.88848430183E+02 0.  0.
         13    1    3    3    0    0 -0.64584703727E+02  0.20208145998E+03 -0.11311524959E+04  0.11508753492E+04  0.00000000000E+00 0.  1.
        -13    1    3    3    0    0 -0.12604642464E+03  0.22172076903E+03 -0.18794690904E+04  0.18966949840E+04  0.00000000000E+00 0. -1.
         22    1    1    2    0    0  0.19063112837E+03 -0.42380222902E+03 -0.64429677258E+03  0.79439718503E+03  0.00000000000E+00 0.  1.
<mgrwt>
<rscale>  0 0.11841817E+04</rscale>
<asrwt>0</asrwt>
<pdfrwt beam="1">  1        2 0.57668350E+00 0.11841817E+04</pdfrwt>
<pdfrwt beam="2">  1       -2 0.14388398E-01 0.11841817E+04</pdfrwt>
<totfact> 0.20672804E+01</totfact>
</mgrwt>
</event>
<event>
 6    1  0.5196787E-004  0.7781103E+03  0.7818608E-02  0.9592253E-01
         -2   -1    0    0    0  501 -0.00000000000E+00  0.00000000000E+00  0.23310411537E+03  0.23310411537E+03  0.00000000000E+00 0. -1.
          2   -1    0    0  501    0  0.00000000000E+00 -0.00000000000E+00 -0.64934042905E+03  0.64934042905E+03  0.00000000000E+00 0.  1.
         23    2    1    2    0    0 -0.23704915783E+03 -0.94447863664E+02  0.11391068277E+03  0.29408365175E+03  0.91634318894E+02 0.  0.
         13    1    3    3    0    0 -0.10968756474E+03 -0.22946026601E+02  0.94794106694E+02  0.14677807963E+03  0.00000000000E+00 0. -1.
        -13    1    3    3    0    0 -0.12736159309E+03 -0.71501837063E+02  0.19116576080E+02  0.14730557213E+03  0.00000000000E+00 0.  1.
         22    1    1    2    0    0  0.23704915783E+03  0.94447863664E+02 -0.53014699645E+03  0.58836089267E+03  0.00000000000E+00 0.  1.
<mgrwt>
<rscale>  0 0.77811034E+03</rscale>
<asrwt>0</asrwt>
<pdfrwt beam="1">  1        2 0.99898527E-01 0.77811034E+03</pdfrwt>
<pdfrwt beam="2">  1       -2 0.35862172E-01 0.77811034E+03</pdfrwt>
<totfact> 0.33107014E+02</totfact>
</mgrwt>
</event>
<event>
 6    1  0.5196787E-004  0.2157441E+04  0.7818608E-02  0.8536354E-01
          2   -1    0    0  501    0  0.00000000000E+00  0.00000000000E+00  0.31383899362E+04  0.31383899362E+04  0.00000000000E+00 0.  1.
         -2   -1    0    0    0  501 -0.00000000000E+00 -0.00000000000E+00 -0.37077549058E+03  0.37077549058E+03  0.00000000000E+00 0. -1.
         23    2    1    2    0    0  0.75960070613E+03 -0.72637208393E+03  0.17680289270E+04  0.20587238230E+04  0.88362070241E+02 0.  0.
         11    1    3    3    0    0  0.48836872212E+02 -0.33637290147E+02  0.68411645696E+02  0.90535410988E+02  0.00000000000E+00 0. -1.
        -11    1    3    3    0    0  0.71076383391E+03 -0.69273479378E+03  0.16996172813E+04  0.19681884120E+04  0.00000000000E+00 0.  1.
         22    1    1    2    0    0 -0.75960070613E+03  0.72637208393E+03  0.99958551861E+03  0.14504416038E+04  0.00000000000E+00 0. -1.
<mgrwt>
<rscale>  0 0.21574411E+04</rscale>
<asrwt>0</asrwt>
<pdfrwt beam="1">  1        2 0.48282920E+00 0.21574411E+04</pdfrwt>
<pdfrwt beam="2">  1       -2 0.57042385E-01 0.21574411E+04</pdfrwt>
<totfact> 0.37647156E+00</totfact>
</mgrwt>
</event>
<event>
 6    1  0.5196787E-004  0.2271729E+04  0.7818608E-02  0.8489152E-01
          2   -1    0    0  501    0  0.00000000000E+00  0.00000000000E+00  0.94826291083E+03  0.94826291083E+03  0.00000000000E+00 0.  1.
         -2   -1    0    0    0  501 -0.00000000000E+00 -0.00000000000E+00 -0.13605802103E+04  0.13605802103E+04  0.00000000000E+00 0. -1.
         23    2    1    2    0    0  0.64947002159E+03  0.81636221755E+03 -0.65846251555E+03  0.12370007603E+04  0.91320410292E+02 0.  0.
         13    1    3    3    0    0  0.31055226596E+03  0.39507761419E+03 -0.26348827307E+03  0.56741087509E+03  0.00000000000E+00 0.  1.
        -13    1    3    3    0    0  0.33891775564E+03  0.42128460336E+03 -0.39497424248E+03  0.66958988518E+03  0.00000000000E+00 0. -1.
         22    1    1    2    0    0 -0.64947002159E+03 -0.81636221755E+03  0.24614521607E+03  0.10718423609E+04  0.00000000000E+00 0.  1.
<mgrwt>
<rscale>  0 0.22717286E+04</rscale>
<asrwt>0</asrwt>
<pdfrwt beam="1">  1        2 0.14588660E+00 0.22717286E+04</pdfrwt>
<pdfrwt beam="2">  1       -2 0.20932003E+00 0.22717286E+04</pdfrwt>
<totfact> 0.28604633E+00</totfact>
</mgrwt>
</event>
<event>
 6    1  0.5196787E-004  0.3880492E+04  0.7818608E-02  0.8029099E-01
          2   -1    0    0  501    0  0.00000000000E+00  0.00000000000E+00  0.22796459430E+04  0.22796459430E+04  0.00000000000E+00 0.  1.
         -2   -1    0    0    0  501 -0.00000000000E+00 -0.00000000000E+00 -0.16513765196E+04  0.16513765196E+04  0.00000000000E+00 0. -1.
         23    2    1    2    0    0  0.78648592002E+03 -0.74742282434E+03 -0.13138317268E+04  0.17063971328E+04  0.91849810797E+02 0.  0.
         11    1    3    3    0    0  0.43793873096E+03 -0.35331972009E+03 -0.67040348224E+03  0.87525195554E+03  0.00000000000E+00 0. -1.
        -11    1    3    3    0    0  0.34854718906E+03 -0.39410310425E+03 -0.64342824453E+03  0.83114517724E+03  0.00000000000E+00 0.  1.
         22    1    1    2    0    0 -0.78648592002E+03  0.74742282434E+03  0.19421011501E+04  0.22246253298E+04  0.00000000000E+00 0.  1.
<mgrwt>
<rscale>  0 0.38804916E+04</rscale>
<asrwt>0</asrwt>
<pdfrwt beam="1">  1        2 0.35071476E+00 0.38804916E+04</pdfrwt>
<pdfrwt beam="2">  1       -2 0.25405793E+00 0.38804916E+04</pdfrwt>
<totfact> 0.22502665E-01</totfact>
</mgrwt>
</event>
<event>
 6    1  0.5196787E-004  0.3094885E+04  0.7818608E-02  0.8217143E-01
         -2   -1    0    0    0  501 -0.00000000000E+00  0.00000000000E+00  0.17458054305E+04  0.17458054305E+04  0.00000000000E+00 0. -1.
          2   -1    0    0  501    0  0.00000000000E+00 -0.00000000000E+00 -0.13716176485E+04  0.13716176485E+04  0.00000000000E+00 0.  1.
         23    2    1    2    0    0  0.63452131476E+03 -0.32205061258E+03  0.15699042872E+04  0.17259950870E+04  0.90142518642E+02 0.  0.
         11    1    3    3    0    0  0.12378040241E+03 -0.56343795889E+02  0.39198280081E+03  0.41490568505E+03  0.00000000000E+00 0.  1.
        -11    1    3    3    0    0  0.51074091235E+03 -0.26570681669E+03  0.11779214864E+04  0.13110894020E+04  0.00000000000E+00 0. -1.
         22    1    1    2    0    0 -0.63452131476E+03  0.32205061258E+03 -0.11957165052E+04  0.13914279919E+04  0.00000000000E+00 0.  1.
<mgrwt>
<rscale>  0 0.30948845E+04</rscale>
<asrwt>0</asrwt>
<pdfrwt beam="1">  1        2 0.21101810E+00 0.30948845E+04</pdfrwt>
<pdfrwt beam="2">  1       -2 0.26858545E+00 0.30948845E+04</pdfrwt>
<totfact> 0.63091435E-01</totfact>
</mgrwt>
</event>
<event>
 6    1  0.5196787E-004  0.2863543E+04  0.7818608E-02  0.8283808E-01
          2   -1    0    0  501    0  0.00000000000E+00  0.00000000000E+00  0.31305197451E+04  0.31305197451E+04  0.00000000000E+00 0.  1.
         -2   -1    0    0    0  501 -0.00000000000E+00 -0.00000000000E+00 -0.65483366520E+03  0.65483366520E+03  0.00000000000E+00 0. -1.
         23    2    1    2    0    0 -0.12458358240E+04  0.51418620698E+03  0.60600255150E+03  0.14805300218E+04  0.90750741455E+02 0.  0.
         13    1    3    3    0    0 -0.67865500376E+03  0.31857508686E+03  0.30617787341E+03  0.80981948004E+03  0.00000000000E+00 0.  1.
        -13    1    3    3    0    0 -0.56718082028E+03  0.19561112012E+03  0.29982467810E+03  0.67071054174E+03  0.00000000000E+00 0. -1.
         22    1    1    2    0    0  0.12458358240E+04 -0.51418620698E+03  0.18696835283E+04  0.23048233885E+04  0.00000000000E+00 0.  1.
<mgrwt>
<rscale>  0 0.28635431E+04</rscale>
<asrwt>0</asrwt>
<pdfrwt beam="1">  1        2 0.48161841E+00 0.28635431E+04</pdfrwt>
<pdfrwt beam="2">  1       -2 0.10074364E+00 0.28635431E+04</pdfrwt>
<totfact> 0.10101017E+00</totfact>
</mgrwt>
</event>
<event>
 6    1  0.5196787E-004  0.4520409E+03  0.7818608E-02  0.1027115E+00
          2   -1    0    0  501    0  0.00000000000E+00  0.00000000000E+00  0.31108709365E+03  0.31108709365E+03  0.00000000000E+00 0.  1.
         -2   -1    0    0    0  501 -0.00000000000E+00 -0.00000000000E+00 -0.16421527228E+03  0.16421527228E+03  0.00000000000E+00 0. -1.
         23    2    1    2    0    0 -0.14824688185E+03 -0.66341392696E+01 -0.88994451662E+02  0.19663760580E+03  0.93408703057E+02 0.  0.
         11    1    3    3    0    0 -0.39214096950E+02 -0.43623347769E+02 -0.42649462973E+02  0.72523917173E+02  0.00000000000E+00 0.  1.
        -11    1    3    3    0    0 -0.10903278490E+03  0.36989208500E+02 -0.46344988689E+02  0.12411368863E+03  0.00000000000E+00 0. -1.
         22    1    1    2    0    0  0.14824688185E+03  0.66341392696E+01  0.23586627303E+03  0.27866476013E+03  0.00000000000E+00 0.  1.
<mgrwt>
<rscale>  0 0.45204094E+03</rscale>
<asrwt>0</asrwt>
<pdfrwt beam="1">  1        2 0.47859552E-01 0.45204094E+03</pdfrwt>
<pdfrwt beam="2">  1       -2 0.25263888E-01 0.45204094E+03</pdfrwt>
<totfact> 0.14764773E+03</totfact>
</mgrwt>
</event>
<event>
 6    1  0.5196787E-004  0.1874240E+04  0.7818608E-02  0.8667786E-01
         -1   -1    0    0    0  501 -0.00000000000E+00  0.00000000000E+00  0.37720929748E+03  0.37720929748E+03  0.00000000000E+00 0. -1.
          1   -1    0    0  501    0  0.00000000000E+00 -0.00000000000E+00 -0.23281351650E+04  0.23281351650E+04  0.00000000000E+00 0.  1.
         23    2    1    2    0    0 -0.58187160437E+03  0.21055506296E+03  0.33604850832E+02  0.62657796029E+03  0.92534619512E+02 0.  0.
         13    1    3    3    0    0 -0.16024865962E+03  0.24929210374E+02  0.34950454832E+02  0.16589946574E+03  0.00000000000E+00 0. -1.
        -13    1    3    3    0    0 -0.42162294475E+03  0.18562585259E+03 -0.13456039994E+01  0.46067849455E+03  0.00000000000E+00 0.  1.
         22    1    1    2    0    0  0.58187160437E+03 -0.21055506296E+03 -0.19845307183E+04  0.20787665022E+04  0.00000000000E+00 0.  1.
<mgrwt>
<rscale>  0 0.18742404E+04</rscale>
<asrwt>0</asrwt>
<pdfrwt beam="1">  1        1 0.35817464E+00 0.18742404E+04</pdfrwt>
<pdfrwt beam="2">  1       -1 0.58032200E-01 0.18742404E+04</pdfrwt>
<totfact> 0.50239872E+00</totfact>
</mgrwt>
</event>
<event>
 6    1  0.5196787E-004  0.2475089E+04  0.7818608E-02  0.8411914E-01
         -2   -1    0    0    0  501 -0.00000000000E+00  0.00000000000E+00  0.81464046886E+03  0.81464046886E+03  0.00000000000E+00 0. -1.
          2   -1    0    0  501    0  0.00000000000E+00 -0.00000000000E+00 -0.18799901068E+04  0.18799901068E+04  0.00000000000E+00 0.  1.
         23    2    1    2    0    0 -0.88343399933E+03  0.29782172121E+03 -0.14166516065E+04  0.16983542677E+04  0.91389472706E+02 0.  0.
         11    1    3    3    0    0 -0.32685265643E+03  0.65873741181E+02 -0.52680134227E+03  0.62345141191E+03  0.00000000000E+00 0. -1.
        -11    1    3    3    0    0 -0.55658134290E+03  0.23194798003E+03 -0.88985026420E+03  0.10749028558E+04  0.00000000000E+00 0.  1.
         22    1    1    2    0    0  0.88343399933E+03 -0.29782172121E+03  0.35130196849E+03  0.99627630799E+03  0.00000000000E+00 0. -1.
<mgrwt>
<rscale>  0 0.24750887E+04</rscale>
<asrwt>0</asrwt>
<pdfrwt beam="1">  1        2 0.28922925E+00 0.24750887E+04</pdfrwt>
<pdfrwt beam="2">  1       -2 0.12532930E+00 0.24750887E+04</pdfrwt>
<totfact> 0.33164436E+00</totfact>
</mgrwt>
</event>
<event>
 6    1  0.5196787E-004  0.1350801E+04  0.7818608E-02  0.8990222E-01
         -2   -1    0    0    0  501 -0.00000000000E+00  0.00000000000E+00  0.12412157773E+04  0.12412157773E+04  0.00000000000E+00 0. -1.
          2   -1    0    0  501    0  0.00000000000E+00 -0.00000000000E+00 -0.36751534106E+03  0.36751534106E+03  0.00000000000E+00 0.  1.
         23    2    1    2    0    0 -0.11806413286E+03 -0.24721679264E+03 -0.29228377911E+03  0.41099388821E+03  0.91819859427E+02 0.  0.
         11    1    3    3    0    0 -0.55543680426E+02 -0.16764748399E+03 -0.12827028282E+03  0.21827515841E+03  0.00000000000E+00 0. -1.
        -11    1    3    3    0    0 -0.62520452431E+02 -0.79569308651E+02 -0.16401349629E+03  0.19271872980E+03  0.00000000000E+00 0.  1.
         22    1    1    2    0    0  0.11806413286E+03  0.24721679264E+03  0.11659842153E+04  0.11977372301E+04  0.00000000000E+00 0. -1.
<mgrwt>
<rscale>  0 0.13508010E+04</rscale>
<asrwt>0</asrwt>
<pdfrwt beam="1">  1        2 0.56540822E-01 0.13508010E+04</pdfrwt>
<pdfrwt beam="2">  1       -2 0.19095627E+00 0.13508010E+04</pdfrwt>
<totfact> 0.13035491E+01</totfact>
</mgrwt>
</event>
<event>
 6    1  0.5196787E-004  0.7616909E+03  0.7818608E-02  0.9617186E-01
          2   -1    0    0  501    0  0.00000000000E+00  0.00000000000E+00  0.83177131296E+03  0.83177131296E+03  0.00000000000E+00 0.  1.
         -2   -1    0    0    0  501 -0.00000000000E+00 -0.00000000000E+00 -0.17437875633E+03  0.17437875633E+03  0.00000000000E+00 0. -1.
         23    2    1    2    0    0 -0.18394780925E+03 -0.29728847446E+03  0.15303892245E+03  0.39248092237E+03  0.91668582736E+02 0.  0.
         13    1    3    3    0    0 -0.13368855810E+03 -0.12950092292E+03  0.73490338171E+02  0.20010984336E+03  0.00000000000E+00 0. -1.
        -13    1    3    3    0    0 -0.50259251150E+02 -0.16778755154E+03  0.79548584282E+02  0.19237107901E+03  0.00000000000E+00 0.  1.
         22    1    1    2    0    0  0.18394780925E+03  0.29728847446E+03  0.50435363418E+03  0.61366914693E+03  0.00000000000E+00 0. -1.
<mgrwt>
<rscale>  0 0.76169087E+03</rscale>
<asrwt>0</asrwt>
<pdfrwt beam="1">  1        2 0.12796482E+00 0.76169087E+03</pdfrwt>
<pdfrwt beam="2">  1       -2 0.26827501E-01 0.76169087E+03</pdfrwt>
<totfact> 0.41421148E+02</totfact>
</mgrwt>
</event>
<event>
 6    1  0.5196787E-004  0.1411877E+04  0.7818608E-02  0.8945266E-01
          2   -1    0    0  501    0  0.00000000000E+00  0.00000000000E+00  0.52879432669E+03  0.52879432669E+03  0.00000000000E+00 0.  1.
         -2   -1    0    0    0  501 -0.00000000000E+00 -0.00000000000E+00 -0.94242590504E+03  0.94242590504E+03  0.00000000000E+00 0. -1.
         23    2    1    2    0    0  0.59911016339E+03 -0.10895405374E+03 -0.57383340493E+03  0.84156270661E+03  0.90216621781E+02 0.  0.
         11    1    3    3    0    0  0.17932518904E+03 -0.20477546642E+02 -0.11823487247E+03  0.21576917854E+03  0.00000000000E+00 0. -1.
        -11    1    3    3    0    0  0.41978497435E+03 -0.88476507097E+02 -0.45559853245E+03  0.62579352807E+03  0.00000000000E+00 0.  1.
         22    1    1    2    0    0 -0.59911016339E+03  0.10895405374E+03  0.16020182658E+03  0.62965752512E+03  0.00000000000E+00 0. -1.
<mgrwt>
<rscale>  0 0.14118774E+04</rscale>
<asrwt>0</asrwt>
<pdfrwt beam="1">  1        2 0.81352973E-01 0.14118774E+04</pdfrwt>
<pdfrwt beam="2">  1       -2 0.14498860E+00 0.14118774E+04</pdfrwt>
<totfact> 0.18366967E+01</totfact>
</mgrwt>
</event>
<event>
 6    1  0.5196787E-004  0.3980770E+04  0.7818608E-02  0.8008437E-01
          2   -1    0    0  501    0  0.00000000000E+00  0.00000000000E+00  0.36967492502E+04  0.36967492502E+04  0.00000000000E+00 0.  1.
         -2   -1    0    0    0  501 -0.00000000000E+00 -0.00000000000E+00 -0.10716530417E+04  0.10716530417E+04  0.00000000000E+00 0. -1.
         23    2    1    2    0    0  0.97200547334E+03 -0.75267042971E+03  0.31867320785E+04  0.34168319954E+04  0.90399827302E+02 0.  0.
         13    1    3    3    0    0  0.35522650616E+03 -0.24148397839E+03  0.12079824990E+04  0.12820772599E+04  0.00000000000E+00 0.  1.
        -13    1    3    3    0    0  0.61677896718E+03 -0.51118645132E+03  0.19787495795E+04  0.21347547355E+04  0.00000000000E+00 0. -1.
         22    1    1    2    0    0 -0.97200547334E+03  0.75267042971E+03 -0.56163587004E+03  0.13515702965E+04  0.00000000000E+00 0. -1.
<mgrwt>
<rscale>  0 0.39807701E+04</rscale>
<asrwt>0</asrwt>
<pdfrwt beam="1">  1        2 0.56873065E+00 0.39807701E+04</pdfrwt>
<pdfrwt beam="2">  1       -2 0.16486970E+00 0.39807701E+04</pdfrwt>
<totfact> 0.10733418E-01</totfact>
</mgrwt>
</event>
<event>
 6    1  0.5196787E-004  0.4274857E+04  0.7818608E-02  0.7951284E-01
          2   -1    0    0  501    0  0.00000000000E+00  0.00000000000E+00  0.40625393536E+04  0.40625393536E+04  0.00000000000E+00 0.  1.
         -2   -1    0    0    0  501 -0.00000000000E+00 -0.00000000000E+00 -0.11245678829E+04  0.11245678829E+04  0.00000000000E+00 0. -1.
         23    2    1    2    0    0  0.86488480128E+03 -0.23979356308E+03  0.38221447976E+04  0.39272305979E+04  0.93928926198E+02 0.  0.
         13    1    3    3    0    0  0.31298764202E+03 -0.13218310072E+03  0.13856973765E+04  0.14267413414E+04  0.00000000000E+00 0. -1.
        -13    1    3    3    0    0  0.55189715926E+03 -0.10761046237E+03  0.24364474211E+04  0.25004892565E+04  0.00000000000E+00 0.  1.
         22    1    1    2    0    0 -0.86488480128E+03  0.23979356308E+03 -0.88417332693E+03  0.12598766386E+04  0.00000000000E+00 0. -1.
<mgrwt>
<rscale>  0 0.42748573E+04</rscale>
<asrwt>0</asrwt>
<pdfrwt beam="1">  1        2 0.62500605E+00 0.42748573E+04</pdfrwt>
<pdfrwt beam="2">  1       -2 0.17301045E+00 0.42748573E+04</pdfrwt>
<totfact> 0.47402328E-02</totfact>
</mgrwt>
</event>
<event>
 6    1  0.5196787E-004  0.2384737E+04  0.7818608E-02  0.8445240E-01
          2   -1    0    0  501    0  0.00000000000E+00  0.00000000000E+00  0.25853937437E+04  0.25853937437E+04  0.00000000000E+00 0.  1.
         -2   -1    0    0    0  501 -0.00000000000E+00 -0.00000000000E+00 -0.54991353355E+03  0.54991353355E+03  0.00000000000E+00 0. -1.
         23    2    1    2    0    0  0.12497995488E+03  0.16979578294E+03  0.25598490372E+04  0.25701406968E+04  0.91353767818E+02 0.  0.
         11    1    3    3    0    0 -0.56848734649E+00  0.43143717080E+02  0.27742362514E+03  0.28075892023E+03  0.00000000000E+00 0. -1.
        -11    1    3    3    0    0  0.12554844223E+03  0.12665206586E+03  0.22824254120E+04  0.22893817765E+04  0.00000000000E+00 0.  1.
         22    1    1    2    0    0 -0.12497995488E+03 -0.16979578294E+03 -0.52436882700E+03  0.56516658053E+03  0.00000000000E+00 0. -1.
<mgrwt>
<rscale>  0 0.23847373E+04</rscale>
<asrwt>0</asrwt>
<pdfrwt beam="1">  1        2 0.39775288E+00 0.23847373E+04</pdfrwt>
<pdfrwt beam="2">  1       -2 0.84602083E-01 0.23847373E+04</pdfrwt>
<totfact> 0.34033034E+00</totfact>
</mgrwt>
</event>
<event>
 6    1  0.5196787E-004  0.5951114E+04  0.7818608E-02  0.7696493E-01
         -2   -1    0    0    0  501 -0.00000000000E+00  0.00000000000E+00  0.29336781073E+04  0.29336781073E+04  0.00000000000E+00 0. -1.
          2   -1    0    0  501    0  0.00000000000E+00 -0.00000000000E+00 -0.30180332698E+04  0.30180332698E+04  0.00000000000E+00 0.  1.
         23    2    1    2    0    0 -0.22714905267E+04  0.18237186080E+04  0.56129859904E+03  0.29680077132E+04  0.91623654570E+02 0.  0.
         11    1    3    3    0    0 -0.93395267989E+03  0.75206473032E+03  0.18521557423E+03  0.12133316842E+04  0.00000000000E+00 0. -1.
        -11    1    3    3    0    0 -0.13375378469E+04  0.10716538777E+04  0.37608302481E+03  0.17546760290E+04  0.00000000000E+00 0.  1.
         22    1    1    2    0    0  0.22714905267E+04 -0.18237186080E+04 -0.64565376152E+03  0.29837036639E+04  0.00000000000E+00 0.  1.
<mgrwt>
<rscale>  0 0.59511136E+04</rscale>
<asrwt>0</asrwt>
<pdfrwt beam="1">  1        2 0.46431281E+00 0.59511136E+04</pdfrwt>
<pdfrwt beam="2">  1       -2 0.45133510E+00 0.59511136E+04</pdfrwt>
<totfact> 0.39149939E-03</totfact>
</mgrwt>
</event>
<event>
 6    1  0.5196787E-004  0.2221269E+04  0.7818608E-02  0.8509627E-01
          2   -1    0    0  501    0  0.00000000000E+00  0.00000000000E+00  0.23740976204E+04  0.23740976204E+04  0.00000000000E+00 0.  1.
         -2   -1    0    0    0  501 -0.00000000000E+00 -0.00000000000E+00 -0.51956957421E+03  0.51956957421E+03  0.00000000000E+00 0. -1.
         23    2    1    2    0    0 -0.64363483456E+03  0.89920956380E+03  0.10326351007E+04  0.15158603672E+04  0.93025597029E+02 0.  0.
         13    1    3    3    0    0 -0.21115743308E+03  0.31334425961E+03  0.41234760204E+03  0.55928761070E+03  0.00000000000E+00 0.  1.
        -13    1    3    3    0    0 -0.43247740149E+03  0.58586530419E+03  0.62028749867E+03  0.95657275649E+03  0.00000000000E+00 0. -1.
         22    1    1    2    0    0  0.64363483456E+03 -0.89920956380E+03  0.82189294553E+03  0.13778068275E+04  0.00000000000E+00 0.  1.
<mgrwt>
<rscale>  0 0.22212689E+04</rscale>
<asrwt>0</asrwt>
<pdfrwt beam="1">  1        2 0.36524578E+00 0.22212689E+04</pdfrwt>
<pdfrwt beam="2">  1       -2 0.79933782E-01 0.22212689E+04</pdfrwt>
<totfact> 0.51977914E+00</totfact>
</mgrwt>
</event>
<event>
 6    1  0.5196787E-004  0.2340820E+04  0.7818608E-02  0.8461998E-01
          2   -1    0    0  501    0  0.00000000000E+00  0.00000000000E+00  0.33859663090E+04  0.33859663090E+04  0.00000000000E+00 0.  1.
         -2   -1    0    0    0  501 -0.00000000000E+00 -0.00000000000E+00 -0.40456960430E+03  0.40456960430E+03  0.00000000000E+00 0. -1.
         23    2    1    2    0    0 -0.11602748490E+03  0.11202177077E+04  0.98663428478E+03  0.14998095652E+04  0.87358055971E+02 0.  0.
         13    1    3    3    0    0 -0.30641040179E+02  0.26320992221E+03  0.28274348406E+03  0.38750769576E+03  0.00000000000E+00 0.  1.
        -13    1    3    3    0    0 -0.85386444721E+02  0.85700778553E+03  0.70389080071E+03  0.11123018694E+04  0.00000000000E+00 0. -1.
         22    1    1    2    0    0  0.11602748490E+03 -0.11202177077E+04  0.19947624200E+04  0.22907263481E+04  0.00000000000E+00 0. -1.
<mgrwt>
<rscale>  0 0.23408196E+04</rscale>
<asrwt>0</asrwt>
<pdfrwt beam="1">  1        2 0.52091787E+00 0.23408196E+04</pdfrwt>
<pdfrwt beam="2">  1       -2 0.62241480E-01 0.23408196E+04</pdfrwt>
<totfact> 0.21139224E+00</totfact>
</mgrwt>
</event>
<event>
 6    1  0.5196787E-004  0.1646371E+04  0.7818608E-02  0.8792556E-01
          2   -1    0    0  501    0  0.00000000000E+00  0.00000000000E+00  0.15996886639E+04  0.15996886639E+04  0.00000000000E+00 0.  1.
         -2   -1    0    0    0  501 -0.00000000000E+00 -0.00000000000E+00 -0.42360412990E+03  0.42360412990E+03  0.00000000000E+00 0. -1.
         23    2    1    2    0    0 -0.78259887105E+03  0.17406490451E+03  0.80501221609E+03  0.11398595767E+04  0.92063036354E+02 0.  0.
         11    1    3    3    0    0 -0.33485019146E+03  0.70268102791E+02  0.28022666494E+03  0.44225472381E+03  0.00000000000E+00 0.  1.
        -11    1    3    3    0    0 -0.44774867959E+03  0.10379680172E+03  0.52478555115E+03  0.69760485292E+03  0.00000000000E+00 0. -1.
         22    1    1    2    0    0  0.78259887105E+03 -0.17406490451E+03  0.37107231796E+03  0.88343321712E+03  0.00000000000E+00 0.  1.
<mgrwt>
<rscale>  0 0.16463714E+04</rscale>
<asrwt>0</asrwt>
<pdfrwt beam="1">  1        2 0.24610594E+00 0.16463714E+04</pdfrwt>
<pdfrwt beam="2">  1       -2 0.65169867E-01 0.16463714E+04</pdfrwt>
<totfact> 0.23139822E+01</totfact>
</mgrwt>
</event>
<event>
 6    1  0.5196787E-004  0.1753519E+04  0.7818608E-02  0.8731415E-01
         -2   -1    0    0    0  501 -0.00000000000E+00  0.00000000000E+00  0.44080354784E+03  0.44080354784E+03  0.00000000000E+00 0.  1.
          2   -1    0    0  501    0  0.00000000000E+00 -0.00000000000E+00 -0.17438780390E+04  0.17438780390E+04  0.00000000000E+00 0. -1.
         23    2    1    2    0    0 -0.17184795017E+03 -0.38142284757E+03  0.30358295911E+03  0.52445170242E+03  0.88723550893E+02 0.  0.
         13    1    3    3    0    0 -0.87015200390E+02 -0.16446412882E+03  0.18759410834E+03  0.26421893242E+03  0.00000000000E+00 0.  1.
        -13    1    3    3    0    0 -0.84832749780E+02 -0.21695871875E+03  0.11598885077E+03  0.26023276999E+03  0.00000000000E+00 0. -1.
         22    1    1    2    0    0  0.17184795017E+03  0.38142284757E+03 -0.16066574503E+04  0.16602298844E+04  0.00000000000E+00 0. -1.
<mgrwt>
<rscale>  0 0.17535195E+04</rscale>
<asrwt>0</asrwt>
<pdfrwt beam="1">  1        2 0.26828893E+00 0.17535195E+04</pdfrwt>
<pdfrwt beam="2">  1       -2 0.67815931E-01 0.17535195E+04</pdfrwt>
<totfact> 0.17496209E+01</totfact>
</mgrwt>
</event>
<event>
 6    1  0.5196787E-004  0.1630007E+04  0.7818608E-02  0.8802323E-01
          2   -1    0    0  501    0  0.00000000000E+00  0.00000000000E+00  0.74251527982E+03  0.74251527982E+03  0.00000000000E+00 0.  1.
         -2   -1    0    0    0  501 -0.00000000000E+00 -0.00000000000E+00 -0.89456867703E+03  0.89456867703E+03  0.00000000000E+00 0. -1.
         23    2    1    2    0    0  0.65955668636E+03  0.35591750297E+03  0.24051263902E+03  0.79103408584E+03  0.78716605602E+02 0.  0.
         11    1    3    3    0    0  0.44377089801E+03  0.19715718927E+03  0.16089608469E+03  0.51155754053E+03  0.00000000000E+00 0.  1.
        -11    1    3    3    0    0  0.21578578835E+03  0.15876031369E+03  0.79616554336E+02  0.27947654532E+03  0.00000000000E+00 0. -1.
         22    1    1    2    0    0 -0.65955668636E+03 -0.35591750297E+03 -0.39256603623E+03  0.84604987101E+03  0.00000000000E+00 0. -1.
<mgrwt>
<rscale>  0 0.16300073E+04</rscale>
<asrwt>0</asrwt>
<pdfrwt beam="1">  1        2 0.11423312E+00 0.16300073E+04</pdfrwt>
<pdfrwt beam="2">  1       -2 0.13762595E+00 0.16300073E+04</pdfrwt>
<totfact> 0.13641962E+01</totfact>
</mgrwt>
</event>
<event>
 6    1  0.5196787E-004  0.3991074E+04  0.7818608E-02  0.8006350E-01
         -2   -1    0    0    0  501 -0.00000000000E+00  0.00000000000E+00  0.13899464918E+04  0.13899464918E+04  0.00000000000E+00 0. -1.
          2   -1    0    0  501    0  0.00000000000E+00 -0.00000000000E+00 -0.28649799740E+04  0.28649799740E+04  0.00000000000E+00 0.  1.
         23    2    1    2    0    0  0.46731555313E+03  0.18760088761E+04 -0.21457170892E+03  0.19469929721E+04  0.83351577862E+02 0.  0.
         13    1    3    3    0    0  0.18828236270E+03  0.62514539289E+03 -0.96147649518E+02  0.65992528431E+03  0.00000000000E+00 0. -1.
        -13    1    3    3    0    0  0.27903319043E+03  0.12508634832E+04 -0.11842405940E+03  0.12870676878E+04  0.00000000000E+00 0.  1.
         22    1    1    2    0    0 -0.46731555313E+03 -0.18760088761E+04 -0.12604617733E+04  0.23079334937E+04  0.00000000000E+00 0. -1.
<mgrwt>
<rscale>  0 0.39910745E+04</rscale>
<asrwt>0</asrwt>
<pdfrwt beam="1">  1        2 0.44076614E+00 0.39910745E+04</pdfrwt>
<pdfrwt beam="2">  1       -2 0.21383792E+00 0.39910745E+04</pdfrwt>
<totfact> 0.18023470E-01</totfact>
</mgrwt>
</event>
<event>
 6    1  0.6240927E-004  0.3407668E+04  0.7818608E-02  0.8136027E-01
         -2   -1    0    0    0  501 -0.00000000000E+00  0.00000000000E+00  0.15391267510E+04  0.15391267510E+04  0.00000000000E+00 0. -1.
          2   -1    0    0  501    0  0.00000000000E+00 -0.00000000000E+00 -0.18861676228E+04  0.18861676228E+04  0.00000000000E+00 0.  1.
         23    2    1    2    0    0  0.18815247376E+03  0.16499965391E+04  0.20413716189E+03  0.16755266299E+04  0.88473579909E+02 0.  0.
         13    1    3    3    0    0  0.14138405078E+03  0.91715596437E+03  0.13849441451E+03  0.93826713448E+03  0.00000000000E+00 0.  1.
        -13    1    3    3    0    0  0.46768422974E+02  0.73284057472E+03  0.65642747381E+02  0.73725949545E+03  0.00000000000E+00 0. -1.
         22    1    1    2    0    0 -0.18815247376E+03 -0.16499965391E+04 -0.55117803373E+03  0.17497677438E+04  0.00000000000E+00 0.  1.
<mgrwt>
<rscale>  0 0.34076684E+04</rscale>
<asrwt>0</asrwt>
<pdfrwt beam="1">  1        2 0.29017963E+00 0.34076684E+04</pdfrwt>
<pdfrwt beam="2">  1       -2 0.23678873E+00 0.34076684E+04</pdfrwt>
<totfact> 0.49629396E-01</totfact>
</mgrwt>
</event>
<event>
 6    1  0.5196787E-004  0.1977257E+04  0.7818608E-02  0.8617328E-01
         -2   -1    0    0    0  501 -0.00000000000E+00  0.00000000000E+00  0.69978209330E+03  0.69978209330E+03  0.00000000000E+00 0. -1.
          2   -1    0    0  501    0  0.00000000000E+00 -0.00000000000E+00 -0.13967015997E+04  0.13967015997E+04  0.00000000000E+00 0.  1.
         23    2    1    2    0    0  0.47896687971E+03  0.77549901039E+03  0.51041918055E+02  0.91739324716E+03  0.90537868150E+02 0.  0.
         13    1    3    3    0    0  0.72876942813E+02  0.11322690167E+03 -0.24515445136E+02  0.13686631107E+03  0.00000000000E+00 0. -1.
        -13    1    3    3    0    0  0.40608993690E+03  0.66227210872E+03  0.75557363191E+02  0.78052693610E+03  0.00000000000E+00 0.  1.
         22    1    1    2    0    0 -0.47896687971E+03 -0.77549901039E+03 -0.74796142441E+03  0.11790904458E+04  0.00000000000E+00 0. -1.
<mgrwt>
<rscale>  0 0.19772575E+04</rscale>
<asrwt>0</asrwt>
<pdfrwt beam="1">  1        2 0.21487717E+00 0.19772575E+04</pdfrwt>
<pdfrwt beam="2">  1       -2 0.10765878E+00 0.19772575E+04</pdfrwt>
<totfact> 0.93641673E+00</totfact>
</mgrwt>
</event>
<event>
 6    1  0.5196787E-004  0.3441016E+04  0.7818608E-02  0.8127912E-01
          2   -1    0    0  501    0  0.00000000000E+00  0.00000000000E+00  0.31953491128E+04  0.31953491128E+04  0.00000000000E+00 0.  1.
         -2   -1    0    0    0  501 -0.00000000000E+00 -0.00000000000E+00 -0.92639276656E+03  0.92639276656E+03  0.00000000000E+00 0. -1.
         23    2    1    2    0    0  0.28356069694E+03 -0.61017241056E+03  0.30304209760E+04  0.31055994574E+04  0.92626447139E+02 0.  0.
         13    1    3    3    0    0  0.14717283674E+03 -0.25149180351E+03  0.14784316581E+04  0.15068736306E+04  0.00000000000E+00 0. -1.
        -13    1    3    3    0    0  0.13638786020E+03 -0.35868060705E+03  0.15519893179E+04  0.15987258268E+04  0.00000000000E+00 0.  1.
         22    1    1    2    0    0 -0.28356069694E+03  0.61017241056E+03 -0.76146462971E+03  0.10161424220E+04  0.00000000000E+00 0. -1.
<mgrwt>
<rscale>  0 0.34410163E+04</rscale>
<asrwt>0</asrwt>
<pdfrwt beam="1">  1        2 0.49159216E+00 0.34410163E+04</pdfrwt>
<pdfrwt beam="2">  1       -2 0.14252197E+00 0.34410163E+04</pdfrwt>
<totfact> 0.36925573E-01</totfact>
</mgrwt>
</event>
<event>
 6    1  0.5196787E-004  0.2424286E+04  0.7818608E-02  0.8430467E-01
         -2   -1    0    0    0  501 -0.00000000000E+00  0.00000000000E+00  0.14417639921E+04  0.14417639921E+04  0.00000000000E+00 0. -1.
          2   -1    0    0  501    0  0.00000000000E+00 -0.00000000000E+00 -0.10190925430E+04  0.10190925430E+04  0.00000000000E+00 0.  1.
         23    2    1    2    0    0 -0.63117710310E+03  0.13795335198E+03 -0.82738480242E+03  0.10537118039E+04  0.91253994637E+02 0.  0.
         11    1    3    3    0    0 -0.59708112324E+03  0.13457551624E+03 -0.74298898187E+03  0.96262612913E+03  0.00000000000E+00 0. -1.
        -11    1    3    3    0    0 -0.34095979864E+02  0.33778357361E+01 -0.84395820544E+02  0.91085674737E+02  0.00000000000E+00 0.  1.
         22    1    1    2    0    0  0.63117710310E+03 -0.13795335198E+03  0.12500562514E+04  0.14071447312E+04  0.00000000000E+00 0. -1.
<mgrwt>
<rscale>  0 0.24242862E+04</rscale>
<asrwt>0</asrwt>
<pdfrwt beam="1">  1        2 0.15678347E+00 0.24242862E+04</pdfrwt>
<pdfrwt beam="2">  1       -2 0.22180984E+00 0.24242862E+04</pdfrwt>
<totfact> 0.21151871E+00</totfact>
</mgrwt>
</event>
<event>
 6    1  0.5196787E-004  0.2085346E+04  0.7818608E-02  0.8567726E-01
         -1   -1    0    0    0  501 -0.00000000000E+00  0.00000000000E+00  0.20999651598E+04  0.20999651598E+04  0.00000000000E+00 0. -1.
          1   -1    0    0  501    0  0.00000000000E+00 -0.00000000000E+00 -0.51770718936E+03  0.51770718936E+03  0.00000000000E+00 0.  1.
         23    2    1    2    0    0 -0.78757341538E+03 -0.59016881745E+03  0.12167057656E+04  0.15678154388E+04  0.95400275665E+02 0.  0.
         13    1    3    3    0    0 -0.31339536759E+03 -0.23911889924E+03  0.56239231404E+03  0.68678935584E+03  0.00000000000E+00 0. -1.
        -13    1    3    3    0    0 -0.47417804779E+03 -0.35104991821E+03  0.65431345152E+03  0.88102608299E+03  0.00000000000E+00 0.  1.
         22    1    1    2    0    0  0.78757341538E+03  0.59016881745E+03  0.36555220492E+03  0.10498569104E+04  0.00000000000E+00 0.  1.
<mgrwt>
<rscale>  0 0.20853461E+04</rscale>
<asrwt>0</asrwt>
<pdfrwt beam="1">  1        1 0.79647261E-01 0.20853461E+04</pdfrwt>
<pdfrwt beam="2">  1       -1 0.32307156E+00 0.20853461E+04</pdfrwt>
<totfact> 0.90962763E-01</totfact>
</mgrwt>
</event>
<event>
 6    1  0.5196787E-004  0.2882680E+04  0.7818608E-02  0.8278049E-01
          2   -1    0    0  501    0  0.00000000000E+00  0.00000000000E+00  0.20722656450E+04  0.20722656450E+04  0.00000000000E+00 0.  1.
         -2   -1    0    0    0  501 -0.00000000000E+00 -0.00000000000E+00 -0.10025069775E+04  0.10025069775E+04  0.00000000000E+00 0. -1.
         23    2    1    2    0    0  0.87612085702E+02 -0.12348678348E+04  0.13196660058E+04  0.18118283939E+04  0.92894105834E+02 0.  0.
         13    1    3    3    0    0  0.69244381677E+02 -0.41716284762E+03  0.42176303985E+03  0.59724675604E+03  0.00000000000E+00 0. -1.
        -13    1    3    3    0    0  0.18367704026E+02 -0.81770498717E+03  0.89790296598E+03  0.12145816378E+04  0.00000000000E+00 0.  1.
         22    1    1    2    0    0 -0.87612085702E+02  0.12348678348E+04 -0.24990733836E+03  0.12629442287E+04  0.00000000000E+00 0. -1.
<mgrwt>
<rscale>  0 0.28826798E+04</rscale>
<asrwt>0</asrwt>
<pdfrwt beam="1">  1        2 0.31881010E+00 0.28826798E+04</pdfrwt>
<pdfrwt beam="2">  1       -2 0.15423184E+00 0.28826798E+04</pdfrwt>
<totfact> 0.14642322E+00</totfact>
</mgrwt>
</event>
<event>
 6    1  0.5196787E-004  0.2439491E+04  0.7818608E-02  0.8424865E-01
          2   -1    0    0  501    0  0.00000000000E+00  0.00000000000E+00  0.13563167804E+04  0.13563167804E+04  0.00000000000E+00 0.  1.
         -2   -1    0    0    0  501 -0.00000000000E+00 -0.00000000000E+00 -0.10969260109E+04  0.10969260109E+04  0.00000000000E+00 0. -1.
         23    2    1    2    0    0 -0.11936906103E+04  0.22526309309E+03  0.21418779679E+03  0.12376425104E+04  0.10120196168E+03 0.  0.
         13    1    3    3    0    0 -0.66665787134E+03  0.17410051824E+03  0.10459962017E+03  0.69691088986E+03  0.00000000000E+00 0. -1.
        -13    1    3    3    0    0 -0.52703273895E+03  0.51162574845E+02  0.10958817662E+03  0.54073162053E+03  0.00000000000E+00 0.  1.
         22    1    1    2    0    0  0.11936906103E+04 -0.22526309309E+03  0.45202972743E+02  0.12156002809E+04  0.00000000000E+00 0.  1.
<mgrwt>
<rscale>  0 0.24394911E+04</rscale>
<asrwt>0</asrwt>
<pdfrwt beam="1">  1        2 0.20866412E+00 0.24394911E+04</pdfrwt>
<pdfrwt beam="2">  1       -2 0.16875785E+00 0.24394911E+04</pdfrwt>
<totfact> 0.29898118E+00</totfact>
</mgrwt>
</event>
<event>
 6    1  0.5196787E-004  0.5981043E+04  0.7818608E-02  0.7692757E-01
         -2   -1    0    0    0  501 -0.00000000000E+00  0.00000000000E+00  0.31117884536E+04  0.31117884536E+04  0.00000000000E+00 0. -1.
          2   -1    0    0  501    0  0.00000000000E+00 -0.00000000000E+00 -0.28739806408E+04  0.28739806408E+04  0.00000000000E+00 0.  1.
         23    2    1    2    0    0  0.53997351750E+02 -0.26546768305E+04 -0.12564682260E+04  0.29389534340E+04  0.92250179609E+02 0.  0.
         11    1    3    3    0    0  0.59263997154E+01 -0.43375067872E+03 -0.24338717995E+03  0.49740536072E+03  0.00000000000E+00 0. -1.
        -11    1    3    3    0    0  0.48070952034E+02 -0.22209261518E+04 -0.10130810460E+04  0.24415480733E+04  0.00000000000E+00 0.  1.
         22    1    1    2    0    0 -0.53997351750E+02  0.26546768305E+04  0.14942760388E+04  0.30468156604E+04  0.00000000000E+00 0. -1.
<mgrwt>
<rscale>  0 0.59810433E+04</rscale>
<asrwt>0</asrwt>
<pdfrwt beam="1">  1        2 0.44215087E+00 0.59810433E+04</pdfrwt>
<pdfrwt beam="2">  1       -2 0.47873668E+00 0.59810433E+04</pdfrwt>
<totfact> 0.31869621E-03</totfact>
</mgrwt>
</event>
<event>
 6    1  0.5196787E-004  0.1277151E+04  0.7818608E-02  0.9047884E-01
          2   -1    0    0  501    0  0.00000000000E+00  0.00000000000E+00  0.11439074489E+04  0.11439074489E+04  0.00000000000E+00 0.  1.
         -2   -1    0    0    0  501 -0.00000000000E+00 -0.00000000000E+00 -0.35647855063E+03  0.35647855063E+03  0.00000000000E+00 0. -1.
         23    2    1    2    0    0 -0.49410350668E+02 -0.30648688155E+03  0.10469016853E+04  0.10957853094E+04  0.91469745150E+02 0.  0.
         11    1    3    3    0    0  0.24844356350E+02 -0.12396021729E+03  0.42614609664E+03  0.44450407556E+03  0.00000000000E+00 0. -1.
        -11    1    3    3    0    0 -0.74254707019E+02 -0.18252666426E+03  0.62075558864E+03  0.65128123380E+03  0.00000000000E+00 0.  1.
         22    1    1    2    0    0  0.49410350668E+02  0.30648688155E+03 -0.25947278698E+03  0.40460069019E+03  0.00000000000E+00 0. -1.
<mgrwt>
<rscale>  0 0.12771507E+04</rscale>
<asrwt>0</asrwt>
<pdfrwt beam="1">  1        2 0.17598576E+00 0.12771507E+04</pdfrwt>
<pdfrwt beam="2">  1       -2 0.54842854E-01 0.12771507E+04</pdfrwt>
<totfact> 0.62863060E+01</totfact>
</mgrwt>
</event>
<event>
 6    1  0.5196787E-004  0.2088724E+04  0.7818608E-02  0.8566227E-01
          2   -1    0    0  501    0  0.00000000000E+00  0.00000000000E+00  0.12794282351E+04  0.12794282351E+04  0.00000000000E+00 0.  1.
         -2   -1    0    0    0  501 -0.00000000000E+00 -0.00000000000E+00 -0.85248413762E+03  0.85248413762E+03  0.00000000000E+00 0. -1.
         23    2    1    2    0    0  0.32828139206E+03  0.62911159633E+03  0.99301580367E+03  0.12241749385E+04  0.94730252270E+02 0.  0.
         13    1    3    3    0    0  0.23200553358E+03  0.48523512859E+03  0.68592561588E+03  0.87164995735E+03  0.00000000000E+00 0. -1.
        -13    1    3    3    0    0  0.96275858475E+02  0.14387646774E+03  0.30709018779E+03  0.35252498115E+03  0.00000000000E+00 0.  1.
         22    1    1    2    0    0 -0.32828139206E+03 -0.62911159633E+03 -0.56607170617E+03  0.90773743425E+03  0.00000000000E+00 0. -1.
<mgrwt>
<rscale>  0 0.20887243E+04</rscale>
<asrwt>0</asrwt>
<pdfrwt beam="1">  1        2 0.19683511E+00 0.20887243E+04</pdfrwt>
<pdfrwt beam="2">  1       -2 0.13115141E+00 0.20887243E+04</pdfrwt>
<totfact> 0.66590610E+00</totfact>
</mgrwt>
</event>
<event>
 6    1  0.5196787E-004  0.4781637E+04  0.7818608E-02  0.7863104E-01
         -2   -1    0    0    0  501 -0.00000000000E+00  0.00000000000E+00  0.13883151702E+04  0.13883151702E+04  0.00000000000E+00 0. -1.
          2   -1    0    0  501    0  0.00000000000E+00 -0.00000000000E+00 -0.41172307952E+04  0.41172307952E+04  0.00000000000E+00 0.  1.
         23    2    1    2    0    0  0.17866043075E+04 -0.14567366972E+04 -0.63857760177E+03  0.23937057046E+04  0.89492403102E+02 0.  0.
         13    1    3    3    0    0  0.49610456966E+03 -0.38036093570E+03 -0.13688075984E+03  0.63994572259E+03  0.00000000000E+00 0. -1.
        -13    1    3    3    0    0  0.12904997378E+04 -0.10763757616E+04 -0.50169684193E+03  0.17537599821E+04  0.00000000000E+00 0.  1.
         22    1    1    2    0    0 -0.17866043075E+04  0.14567366972E+04 -0.20903380233E+04  0.31118402607E+04  0.00000000000E+00 0.  1.
<mgrwt>
<rscale>  0 0.47816374E+04</rscale>
<asrwt>0</asrwt>
<pdfrwt beam="1">  1        2 0.63342012E+00 0.47816374E+04</pdfrwt>
<pdfrwt beam="2">  1       -2 0.21358695E+00 0.47816374E+04</pdfrwt>
<totfact> 0.21898900E-02</totfact>
</mgrwt>
</event>
<event>
 6    1  0.5196787E-004  0.1978459E+04  0.7818608E-02  0.8616759E-01
         -2   -1    0    0    0  501 -0.00000000000E+00  0.00000000000E+00  0.84608132950E+03  0.84608132950E+03  0.00000000000E+00 0. -1.
          2   -1    0    0  501    0  0.00000000000E+00 -0.00000000000E+00 -0.11565966288E+04  0.11565966288E+04  0.00000000000E+00 0.  1.
         23    2    1    2    0    0  0.19050902702E+03  0.42962371768E+03 -0.10347840229E+04  0.11392919426E+04  0.79611107113E+02 0.  0.
         13    1    3    3    0    0  0.89955233536E+02  0.26184506485E+03 -0.67911827125E+03  0.73338694314E+03  0.00000000000E+00 0.  1.
        -13    1    3    3    0    0  0.10055379349E+03  0.16777865283E+03 -0.35566575161E+03  0.40590499947E+03  0.00000000000E+00 0. -1.
         22    1    1    2    0    0 -0.19050902702E+03 -0.42962371768E+03  0.72426872355E+03  0.86338601568E+03  0.00000000000E+00 0. -1.
<mgrwt>
<rscale>  0 0.19784588E+04</rscale>
<asrwt>0</asrwt>
<pdfrwt beam="1">  1        2 0.17793794E+00 0.19784588E+04</pdfrwt>
<pdfrwt beam="2">  1       -2 0.13016636E+00 0.19784588E+04</pdfrwt>
<totfact> 0.81054523E+00</totfact>
</mgrwt>
</event>
<event>
 6    1  0.5196787E-004  0.4861431E+04  0.7818608E-02  0.7850246E-01
         -1   -1    0    0    0  501 -0.00000000000E+00  0.00000000000E+00  0.16040991990E+04  0.16040991990E+04  0.00000000000E+00 0. -1.
          1   -1    0    0  501    0  0.00000000000E+00 -0.00000000000E+00 -0.36832994526E+04  0.36832994526E+04  0.00000000000E+00 0.  1.
         23    2    1    2    0    0  0.15102693450E+04  0.18578054990E+04 -0.58900155006E+03  0.24672839478E+04  0.90622769359E+02 0.  0.
         13    1    3    3    0    0  0.20450214021E+03  0.23312337251E+03 -0.10552335046E+03  0.32757107573E+03  0.00000000000E+00 0. -1.
        -13    1    3    3    0    0  0.13057672047E+04  0.16246821265E+04 -0.48347819960E+03  0.21397128720E+04  0.00000000000E+00 0.  1.
         22    1    1    2    0    0 -0.15102693450E+04 -0.18578054990E+04 -0.14901987035E+04  0.28201147038E+04  0.00000000000E+00 0.  1.
<mgrwt>
<rscale>  0 0.48614309E+04</rscale>
<asrwt>0</asrwt>
<pdfrwt beam="1">  1        1 0.56666146E+00 0.48614309E+04</pdfrwt>
<pdfrwt beam="2">  1       -1 0.24678449E+00 0.48614309E+04</pdfrwt>
<totfact> 0.94929744E-03</totfact>
</mgrwt>
</event>
<event>
 6    1  0.5196787E-004  0.1153232E+04  0.7818608E-02  0.9154807E-01
         -2   -1    0    0    0  501 -0.00000000000E+00  0.00000000000E+00  0.63558838365E+03  0.63558838365E+03  0.00000000000E+00 0. -1.
          2   -1    0    0  501    0  0.00000000000E+00 -0.00000000000E+00 -0.52311486109E+03  0.52311486109E+03  0.00000000000E+00 0.  1.
         23    2    1    2    0    0 -0.41147167332E+02 -0.40917298803E+03  0.45749507858E+03  0.62190207333E+03  0.91349977455E+02 0.  0.
         13    1    3    3    0    0  0.14244245471E+02 -0.20687190657E+03  0.18391827761E+03  0.27717290108E+03  0.00000000000E+00 0.  1.
        -13    1    3    3    0    0 -0.55391412803E+02 -0.20230108147E+03  0.27357680096E+03  0.34472917225E+03  0.00000000000E+00 0. -1.
         22    1    1    2    0    0  0.41147167332E+02  0.40917298803E+03 -0.34502155602E+03  0.53680117141E+03  0.00000000000E+00 0.  1.
<mgrwt>
<rscale>  0 0.11532315E+04</rscale>
<asrwt>0</asrwt>
<pdfrwt beam="1">  1        2 0.80479209E-01 0.11532315E+04</pdfrwt>
<pdfrwt beam="2">  1       -2 0.97782829E-01 0.11532315E+04</pdfrwt>
<totfact> 0.50359519E+01</totfact>
</mgrwt>
</event>
<event>
 6    1  0.5196787E-004  0.8381973E+04  0.7818608E-02  0.7449593E-01
         -2   -1    0    0    0  501 -0.00000000000E+00  0.00000000000E+00  0.49331128295E+04  0.49331128295E+04  0.00000000000E+00 0. -1.
          2   -1    0    0  501    0  0.00000000000E+00 -0.00000000000E+00 -0.35605036453E+04  0.35605036453E+04  0.00000000000E+00 0.  1.
         23    2    1    2    0    0 -0.22990365436E+03  0.10968013311E+04  0.47780331041E+04  0.49085445194E+04  0.91542913631E+02 0.  0.
         13    1    3    3    0    0 -0.89251715909E+01  0.20862591667E+03  0.84421516917E+03  0.86965722193E+03  0.00000000000E+00 0. -1.
        -13    1    3    3    0    0 -0.22097848277E+03  0.88817541441E+03  0.39338179350E+04  0.40388872975E+04  0.00000000000E+00 0.  1.
         22    1    1    2    0    0  0.22990365436E+03 -0.10968013311E+04 -0.34054239199E+04  0.35850719553E+04  0.00000000000E+00 0.  1.
<mgrwt>
<rscale>  0 0.83819726E+04</rscale>
<asrwt>0</asrwt>
<pdfrwt beam="1">  1        2 0.54776979E+00 0.83819726E+04</pdfrwt>
<pdfrwt beam="2">  1       -2 0.75894043E+00 0.83819726E+04</pdfrwt>
<totfact> 0.55163360E-05</totfact>
</mgrwt>
</event>
<event>
 6    1  0.5196787E-004  0.2202256E+04  0.7818608E-02  0.8517490E-01
          2   -1    0    0  501    0  0.00000000000E+00  0.00000000000E+00  0.17169977978E+04  0.17169977978E+04  0.00000000000E+00 0.  1.
         -2   -1    0    0    0  501 -0.00000000000E+00 -0.00000000000E+00 -0.70616461709E+03  0.70616461709E+03  0.00000000000E+00 0. -1.
         23    2    1    2    0    0  0.44194315191E+03  0.74760023237E+03 -0.23507599031E+03  0.90444271745E+03  0.92390751549E+02 0.  0.
         13    1    3    3    0    0  0.34064228543E+03  0.62335863053E+03 -0.16377778266E+03  0.72899678392E+03  0.00000000000E+00 0. -1.
        -13    1    3    3    0    0  0.10130086648E+03  0.12424160185E+03 -0.71298207652E+02  0.17544593353E+03  0.00000000000E+00 0.  1.
         22    1    1    2    0    0 -0.44194315191E+03 -0.74760023237E+03  0.12459091710E+04  0.15187196975E+04  0.00000000000E+00 0.  1.
<mgrwt>
<rscale>  0 0.22022562E+04</rscale>
<asrwt>0</asrwt>
<pdfrwt beam="1">  1        2 0.26415351E+00 0.22022562E+04</pdfrwt>
<pdfrwt beam="2">  1       -2 0.10864071E+00 0.22022562E+04</pdfrwt>
<totfact> 0.59379833E+00</totfact>
</mgrwt>
</event>
<event>
 6    1  0.5196787E-004  0.1926604E+04  0.7818608E-02  0.8641726E-01
         -1   -1    0    0    0  501 -0.00000000000E+00  0.00000000000E+00  0.60757697955E+03  0.60757697955E+03  0.00000000000E+00 0. -1.
          1   -1    0    0  501    0  0.00000000000E+00 -0.00000000000E+00 -0.15272981659E+04  0.15272981659E+04  0.00000000000E+00 0.  1.
         23    2    1    2    0    0  0.66505353196E+03 -0.41730123627E+03 -0.10760630855E+04  0.13343257644E+04  0.77954854614E+02 0.  0.
         11    1    3    3    0    0  0.47210316671E+03 -0.32821748260E+03 -0.74836435428E+03  0.94374642922E+03  0.00000000000E+00 0. -1.
        -11    1    3    3    0    0  0.19295036525E+03 -0.89083753678E+02 -0.32769873119E+03  0.39057933514E+03  0.00000000000E+00 0.  1.
         22    1    1    2    0    0 -0.66505353196E+03  0.41730123627E+03  0.15634189910E+03  0.80054938110E+03  0.00000000000E+00 0. -1.
<mgrwt>
<rscale>  0 0.19266045E+04</rscale>
<asrwt>0</asrwt>
<pdfrwt beam="1">  1        1 0.23496895E+00 0.19266045E+04</pdfrwt>
<pdfrwt beam="2">  1       -1 0.93473382E-01 0.19266045E+04</pdfrwt>
<totfact> 0.64914176E+00</totfact>
</mgrwt>
</event>
<event>
 6    1  0.5196787E-004  0.6295422E+03  0.7818608E-02  0.9845943E-01
         -2   -1    0    0    0  501 -0.00000000000E+00  0.00000000000E+00  0.41202247517E+02  0.41202247517E+02  0.00000000000E+00 0. -1.
          2   -1    0    0  501    0  0.00000000000E+00 -0.00000000000E+00 -0.24047438376E+04  0.24047438376E+04  0.00000000000E+00 0.  1.
         23    2    1    2    0    0 -0.28084506808E+03 -0.11105332044E+03 -0.14448687061E+04  0.14789059308E+04  0.91161297271E+02 0.  0.
         13    1    3    3    0    0 -0.19729162033E+02 -0.31036227239E+02 -0.28258689795E+03  0.28496989688E+03  0.00000000000E+00 0.  1.
        -13    1    3    3    0    0 -0.26111590604E+03 -0.80017093201E+02 -0.11622818082E+04  0.11939360339E+04  0.00000000000E+00 0. -1.
         22    1    1    2    0    0  0.28084506808E+03  0.11105332044E+03 -0.91867288398E+03  0.96704015429E+03  0.00000000000E+00 0. -1.
<mgrwt>
<rscale>  0 0.62954222E+03</rscale>
<asrwt>0</asrwt>
<pdfrwt beam="1">  1        2 0.36996060E+00 0.62954222E+03</pdfrwt>
<pdfrwt beam="2">  1       -2 0.63388072E-02 0.62954222E+03</pdfrwt>
<totfact> 0.58804849E+02</totfact>
</mgrwt>
</event>
<event>
 6    1  0.5196787E-004  0.3765265E+04  0.7818608E-02  0.8053650E-01
          2   -1    0    0  501    0  0.00000000000E+00  0.00000000000E+00  0.29005212198E+04  0.29005212198E+04  0.00000000000E+00 0.  1.
         -2   -1    0    0    0  501 -0.00000000000E+00 -0.00000000000E+00 -0.12219544054E+04  0.12219544054E+04  0.00000000000E+00 0. -1.
         23    2    1    2    0    0  0.43147613478E+03 -0.13347154883E+04  0.22126226341E+04  0.26215250237E+04  0.95170580596E+02 0.  0.
         13    1    3    3    0    0  0.17875691015E+03 -0.62096998034E+03  0.93976126331E+03  0.11404862916E+04  0.00000000000E+00 0. -1.
        -13    1    3    3    0    0  0.25271922463E+03 -0.71374550796E+03  0.12728613708E+04  0.14810387320E+04  0.00000000000E+00 0.  1.
         22    1    1    2    0    0 -0.43147613478E+03  0.13347154883E+04 -0.53405581974E+03  0.15009506015E+04  0.00000000000E+00 0. -1.
<mgrwt>
<rscale>  0 0.37652648E+04</rscale>
<asrwt>0</asrwt>
<pdfrwt beam="1">  1        2 0.44623403E+00 0.37652648E+04</pdfrwt>
<pdfrwt beam="2">  1       -2 0.18799299E+00 0.37652648E+04</pdfrwt>
<totfact> 0.25799916E-01</totfact>
</mgrwt>
</event>
<event>
 6    1  0.5196787E-004  0.1945220E+04  0.7818608E-02  0.8632669E-01
          2   -1    0    0  501    0  0.00000000000E+00  0.00000000000E+00  0.10843110024E+04  0.10843110024E+04  0.00000000000E+00 0.  1.
         -2   -1    0    0    0  501 -0.00000000000E+00 -0.00000000000E+00 -0.87241556415E+03  0.87241556415E+03  0.00000000000E+00 0. -1.
         23    2    1    2    0    0  0.47477143414E+03 -0.83494741658E+03  0.24577326624E+03  0.99563717922E+03  0.91344354645E+02 0.  0.
         13    1    3    3    0    0  0.15615295737E+03 -0.22142360961E+03  0.36899670664E+02  0.27344788660E+03  0.00000000000E+00 0.  1.
        -13    1    3    3    0    0  0.31861847677E+03 -0.61352380697E+03  0.20887359558E+03  0.72218929263E+03  0.00000000000E+00 0. -1.
         22    1    1    2    0    0 -0.47477143414E+03  0.83494741658E+03 -0.33877828023E+02  0.96108938729E+03  0.00000000000E+00 0.  1.
<mgrwt>
<rscale>  0 0.19452196E+04</rscale>
<asrwt>0</asrwt>
<pdfrwt beam="1">  1        2 0.16681708E+00 0.19452196E+04</pdfrwt>
<pdfrwt beam="2">  1       -2 0.13421778E+00 0.19452196E+04</pdfrwt>
<totfact> 0.83253352E+00</totfact>
</mgrwt>
</event>
<event>
 6    1  0.5196787E-004  0.2496259E+04  0.7818608E-02  0.8404319E-01
          2   -1    0    0  501    0  0.00000000000E+00  0.00000000000E+00  0.10355117020E+04  0.10355117020E+04  0.00000000000E+00 0.  1.
         -2   -1    0    0    0  501 -0.00000000000E+00 -0.00000000000E+00 -0.15044036216E+04  0.15044036216E+04  0.00000000000E+00 0. -1.
         23    2    1    2    0    0  0.15286122818E+03  0.11278749234E+04  0.28239974248E+03  0.11761310446E+04  0.89812146201E+02 0.  0.
         13    1    3    3    0    0  0.51121197587E+01  0.32384797841E+03  0.93237705458E+02  0.33704141675E+03  0.00000000000E+00 0. -1.
        -13    1    3    3    0    0  0.14774910842E+03  0.80402694501E+03  0.18916203703E+03  0.83908962786E+03  0.00000000000E+00 0.  1.
         22    1    1    2    0    0 -0.15286122818E+03 -0.11278749234E+04 -0.75129166207E+03  0.13637842789E+04  0.00000000000E+00 0. -1.
<mgrwt>
<rscale>  0 0.24962592E+04</rscale>
<asrwt>0</asrwt>
<pdfrwt beam="1">  1        2 0.15930949E+00 0.24962592E+04</pdfrwt>
<pdfrwt beam="2">  1       -2 0.23144671E+00 0.24962592E+04</pdfrwt>
<totfact> 0.17857039E+00</totfact>
</mgrwt>
</event>
<event>
 6    1  0.5196787E-004  0.2100629E+04  0.7818608E-02  0.8560967E-01
         -1   -1    0    0    0  501 -0.00000000000E+00  0.00000000000E+00  0.45758322573E+03  0.45758322573E+03  0.00000000000E+00 0. -1.
          1   -1    0    0  501    0  0.00000000000E+00 -0.00000000000E+00 -0.24108402586E+04  0.24108402586E+04  0.00000000000E+00 0.  1.
         23    2    1    2    0    0  0.48243594177E+03 -0.63528264187E+03 -0.49790226164E+02  0.80456439098E+03  0.92283907780E+02 0.  0.
         11    1    3    3    0    0  0.27399848894E+03 -0.30982316390E+03  0.86242317358E+01  0.41369063587E+03  0.00000000000E+00 0. -1.
        -11    1    3    3    0    0  0.20843745283E+03 -0.32545947797E+03 -0.58414457900E+02  0.39087375511E+03  0.00000000000E+00 0.  1.
         22    1    1    2    0    0 -0.48243594177E+03  0.63528264187E+03 -0.19034668067E+04  0.20638590933E+04  0.00000000000E+00 0.  1.
<mgrwt>
<rscale>  0 0.21006285E+04</rscale>
<asrwt>0</asrwt>
<pdfrwt beam="1">  1        1 0.37089849E+00 0.21006285E+04</pdfrwt>
<pdfrwt beam="2">  1       -1 0.70397421E-01 0.21006285E+04</pdfrwt>
<totfact> 0.29289846E+00</totfact>
</mgrwt>
</event>
<event>
 6    1  0.5196787E-004  0.6950015E+03  0.7818608E-02  0.9725819E-01
          2   -1    0    0  501    0  0.00000000000E+00  0.00000000000E+00  0.55271400342E+03  0.55271400342E+03  0.00000000000E+00 0.  1.
         -2   -1    0    0    0  501 -0.00000000000E+00 -0.00000000000E+00 -0.21847964770E+03  0.21847964770E+03  0.00000000000E+00 0. -1.
         23    2    1    2    0    0  0.31058404845E+03 -0.12063262158E+03  0.85493429366E+02  0.35539715163E+03  0.89349473342E+02 0.  0.
         11    1    3    3    0    0  0.48618978835E+02 -0.51177899184E+02  0.38272964990E+02  0.80298208678E+02  0.00000000000E+00 0. -1.
        -11    1    3    3    0    0  0.26196506961E+03 -0.69454722397E+02  0.47220464376E+02  0.27509894296E+03  0.00000000000E+00 0.  1.
         22    1    1    2    0    0 -0.31058404845E+03  0.12063262158E+03  0.24874092636E+03  0.41579649949E+03  0.00000000000E+00 0. -1.
<mgrwt>
<rscale>  0 0.69500147E+03</rscale>
<asrwt>0</asrwt>
<pdfrwt beam="1">  1        2 0.85032923E-01 0.69500147E+03</pdfrwt>
<pdfrwt beam="2">  1       -2 0.33612254E-01 0.69500147E+03</pdfrwt>
<totfact> 0.45603029E+02</totfact>
</mgrwt>
</event>
<event>
 6    1  0.5196787E-004  0.2057261E+04  0.7818608E-02  0.8580308E-01
          1   -1    0    0  501    0  0.00000000000E+00  0.00000000000E+00  0.14818897757E+04  0.14818897757E+04  0.00000000000E+00 0. -1.
         -1   -1    0    0    0  501 -0.00000000000E+00 -0.00000000000E+00 -0.71400759152E+03  0.71400759152E+03  0.00000000000E+00 0.  1.
         23    2    1    2    0    0  0.32898582057E+03  0.95857352395E+03  0.55932987508E+03  0.11612046899E+04  0.91932320831E+02 0.  0.
         11    1    3    3    0    0  0.52098378464E+02  0.72485727502E+02  0.50550558255E+02  0.10258547982E+03  0.00000000000E+00 0. -1.
        -11    1    3    3    0    0  0.27688744210E+03  0.88608779645E+03  0.50877931683E+03  0.10586192100E+04  0.00000000000E+00 0.  1.
         22    1    1    2    0    0 -0.32898582057E+03 -0.95857352395E+03  0.20855230910E+03  0.10346926774E+04  0.00000000000E+00 0.  1.
<mgrwt>
<rscale>  0 0.20572608E+04</rscale>
<asrwt>0</asrwt>
<pdfrwt beam="1">  1        1 0.22798304E+00 0.20572608E+04</pdfrwt>
<pdfrwt beam="2">  1       -1 0.10984732E+00 0.20572608E+04</pdfrwt>
<totfact> 0.47594629E+00</totfact>
</mgrwt>
</event>
<event>
 6    1  0.5196787E-004  0.2497641E+04  0.7818608E-02  0.8403826E-01
          2   -1    0    0  501    0  0.00000000000E+00  0.00000000000E+00  0.25320423690E+04  0.25320423690E+04  0.00000000000E+00 0.  1.
         -2   -1    0    0    0  501 -0.00000000000E+00 -0.00000000000E+00 -0.61592692788E+03  0.61592692788E+03  0.00000000000E+00 0. -1.
         23    2    1    2    0    0  0.61286029450E+03 -0.30275047597E+03  0.22740705474E+04  0.23763557606E+04  0.91729247920E+02 0.  0.
         11    1    3    3    0    0  0.11729233259E+03 -0.82517233398E+02  0.37926818273E+03  0.40547618860E+03  0.00000000000E+00 0.  1.
        -11    1    3    3    0    0  0.49556796191E+03 -0.22023324257E+03  0.18948023647E+04  0.19708795720E+04  0.00000000000E+00 0. -1.
         22    1    1    2    0    0 -0.61286029450E+03  0.30275047597E+03 -0.35795510630E+03  0.77161353630E+03  0.00000000000E+00 0. -1.
<mgrwt>
<rscale>  0 0.24976413E+04</rscale>
<asrwt>0</asrwt>
<pdfrwt beam="1">  1        2 0.38954497E+00 0.24976413E+04</pdfrwt>
<pdfrwt beam="2">  1       -2 0.94757990E-01 0.24976413E+04</pdfrwt>
<totfact> 0.27888211E+00</totfact>
</mgrwt>
</event>
<event>
 6    1  0.5196787E-004  0.2210182E+04  0.7818608E-02  0.8514202E-01
         -2   -1    0    0    0  501 -0.00000000000E+00  0.00000000000E+00  0.67158257284E+03  0.67158257284E+03  0.00000000000E+00 0. -1.
          2   -1    0    0  501    0  0.00000000000E+00 -0.00000000000E+00 -0.18184296669E+04  0.18184296669E+04  0.00000000000E+00 0.  1.
         23    2    1    2    0    0  0.61737698338E+02  0.10885777754E+04 -0.38780510239E+03  0.11614950732E+04  0.99322158240E+02 0.  0.
         13    1    3    3    0    0 -0.12280343549E+02  0.62029272760E+03 -0.20570844773E+03  0.65362821254E+03  0.00000000000E+00 0. -1.
        -13    1    3    3    0    0  0.74018041887E+02  0.46828504785E+03 -0.18209665466E+03  0.50786686070E+03  0.00000000000E+00 0.  1.
         22    1    1    2    0    0 -0.61737698338E+02 -0.10885777754E+04 -0.75904199169E+03  0.13285171665E+04  0.00000000000E+00 0.  1.
<mgrwt>
<rscale>  0 0.22101816E+04</rscale>
<asrwt>0</asrwt>
<pdfrwt beam="1">  1        2 0.27975841E+00 0.22101816E+04</pdfrwt>
<pdfrwt beam="2">  1       -2 0.10332040E+00 0.22101816E+04</pdfrwt>
<totfact> 0.58811379E+00</totfact>
</mgrwt>
</event>
<event>
 6    1  0.5196787E-004  0.1268521E+04  0.7818608E-02  0.9054908E-01
          2   -1    0    0  501    0  0.00000000000E+00  0.00000000000E+00  0.63111886221E+03  0.63111886221E+03  0.00000000000E+00 0.  1.
         -2   -1    0    0    0  501 -0.00000000000E+00 -0.00000000000E+00 -0.63741740937E+03  0.63741740937E+03  0.00000000000E+00 0. -1.
         23    2    1    2    0    0  0.44507349933E+02  0.22544012637E+03 -0.59105559675E+03  0.64024894731E+03  0.88135357880E+02 0.  0.
         13    1    3    3    0    0  0.20825299843E+02  0.75341095225E+02 -0.10439049158E+03  0.13041222518E+03  0.00000000000E+00 0.  1.
        -13    1    3    3    0    0  0.23682050090E+02  0.15009903114E+03 -0.48666510517E+03  0.50983672214E+03  0.00000000000E+00 0. -1.
         22    1    1    2    0    0 -0.44507349933E+02 -0.22544012637E+03  0.58475704960E+03  0.62828732427E+03  0.00000000000E+00 0.  1.
<mgrwt>
<rscale>  0 0.12685206E+04</rscale>
<asrwt>0</asrwt>
<pdfrwt beam="1">  1        2 0.97095209E-01 0.12685206E+04</pdfrwt>
<pdfrwt beam="2">  1       -2 0.98064217E-01 0.12685206E+04</pdfrwt>
<totfact> 0.39632563E+01</totfact>
</mgrwt>
</event>
<event>
 6    1  0.5196787E-004  0.5889909E+03  0.7818608E-02  0.9928513E-01
          2   -1    0    0  501    0  0.00000000000E+00  0.00000000000E+00  0.20891826963E+04  0.20891826963E+04  0.00000000000E+00 0.  1.
         -2   -1    0    0    0  501 -0.00000000000E+00 -0.00000000000E+00 -0.41512674895E+02  0.41512674895E+02  0.00000000000E+00 0. -1.
         23    2    1    2    0    0  0.28375452976E+03  0.34985223784E+02  0.93590540213E+03  0.98275758206E+03  0.90293656069E+02 0.  0.
         11    1    3    3    0    0  0.15961793113E+03 -0.25056537828E+02  0.52870625956E+03  0.55284357908E+03  0.00000000000E+00 0. -1.
        -11    1    3    3    0    0  0.12413659863E+03  0.60041761611E+02  0.40719914257E+03  0.42991400299E+03  0.00000000000E+00 0.  1.
         22    1    1    2    0    0 -0.28375452976E+03 -0.34985223784E+02  0.11117646193E+04  0.11479377892E+04  0.00000000000E+00 0.  1.
<mgrwt>
<rscale>  0 0.58899087E+03</rscale>
<asrwt>0</asrwt>
<pdfrwt beam="1">  1        2 0.32141264E+00 0.58899087E+03</pdfrwt>
<pdfrwt beam="2">  1       -2 0.63865670E-02 0.58899087E+03</pdfrwt>
<totfact> 0.86929340E+02</totfact>
</mgrwt>
</event>
<event>
 6    1  0.5196787E-004  0.8299390E+03  0.7818608E-02  0.9517665E-01
         -2   -1    0    0    0  501 -0.00000000000E+00  0.00000000000E+00  0.99624340259E+02  0.99624340259E+02  0.00000000000E+00 0. -1.
          2   -1    0    0  501    0  0.00000000000E+00 -0.00000000000E+00 -0.17284902894E+04  0.17284902894E+04  0.00000000000E+00 0.  1.
         23    2    1    2    0    0  0.38268143607E+03 -0.12631356808E+03 -0.99020487457E+03  0.10729403669E+04  0.91077649591E+02 0.  0.
         11    1    3    3    0    0  0.12630326400E+03  0.98650991322E+00 -0.33043225116E+03  0.35374985556E+03  0.00000000000E+00 0.  1.
        -11    1    3    3    0    0  0.25637817207E+03 -0.12730007800E+03 -0.65977262340E+03  0.71919051132E+03  0.00000000000E+00 0. -1.
         22    1    1    2    0    0 -0.38268143607E+03  0.12631356808E+03 -0.63866107457E+03  0.75517426278E+03  0.00000000000E+00 0. -1.
<mgrwt>
<rscale>  0 0.82993905E+03</rscale>
<asrwt>0</asrwt>
<pdfrwt beam="1">  1        2 0.26592155E+00 0.82993905E+03</pdfrwt>
<pdfrwt beam="2">  1       -2 0.15326823E-01 0.82993905E+03</pdfrwt>
<totfact> 0.32316056E+02</totfact>
</mgrwt>
</event>
<event>
 6    1  0.5196787E-004  0.1374207E+04  0.7818608E-02  0.8972703E-01
          2   -1    0    0  501    0  0.00000000000E+00  0.00000000000E+00  0.21919673266E+04  0.21919673266E+04  0.00000000000E+00 0.  1.
         -2   -1    0    0    0  501 -0.00000000000E+00 -0.00000000000E+00 -0.21538246661E+03  0.21538246661E+03  0.00000000000E+00 0. -1.
         23    2    1    2    0    0  0.23334407370E+03 -0.51654511116E+03  0.16630150365E+04  0.17595887703E+04  0.96256533905E+02 0.  0.
         11    1    3    3    0    0  0.22707745385E+02 -0.16171452620E+02  0.13884598618E+03  0.14161696741E+03  0.00000000000E+00 0. -1.
        -11    1    3    3    0    0  0.21063632832E+03 -0.50037365854E+03  0.15241690503E+04  0.16179718029E+04  0.00000000000E+00 0.  1.
         22    1    1    2    0    0 -0.23334407370E+03  0.51654511116E+03  0.31356982349E+03  0.64776102291E+03  0.00000000000E+00 0. -1.
<mgrwt>
<rscale>  0 0.13742072E+04</rscale>
<asrwt>0</asrwt>
<pdfrwt beam="1">  1        2 0.33722573E+00 0.13742072E+04</pdfrwt>
<pdfrwt beam="2">  1       -2 0.33135766E-01 0.13742072E+04</pdfrwt>
<totfact> 0.43336756E+01</totfact>
</mgrwt>
</event>
<event>
 6    1  0.5196787E-004  0.1600202E+04  0.7818608E-02  0.8820424E-01
         -2   -1    0    0    0  501 -0.00000000000E+00  0.00000000000E+00  0.79653589252E+03  0.79653589252E+03  0.00000000000E+00 0. -1.
          2   -1    0    0  501    0  0.00000000000E+00 -0.00000000000E+00 -0.80368162167E+03  0.80368162167E+03  0.00000000000E+00 0.  1.
         23    2    1    2    0    0 -0.56716464446E+03 -0.54313655561E+02  0.55429271921E+03  0.80031824654E+03  0.92968650963E+02 0.  0.
         13    1    3    3    0    0 -0.43760542412E+03 -0.60162887136E+01  0.39689327518E+03  0.59081213159E+03  0.00000000000E+00 0. -1.
        -13    1    3    3    0    0 -0.12955922035E+03 -0.48297366847E+02  0.15739944403E+03  0.20950611495E+03  0.00000000000E+00 0.  1.
         22    1    1    2    0    0  0.56716464446E+03  0.54313655561E+02 -0.56143844835E+03  0.79989926766E+03  0.00000000000E+00 0.  1.
<mgrwt>
<rscale>  0 0.16002016E+04</rscale>
<asrwt>0</asrwt>
<pdfrwt beam="1">  1        2 0.12364333E+00 0.16002016E+04</pdfrwt>
<pdfrwt beam="2">  1       -2 0.12254398E+00 0.16002016E+04</pdfrwt>
<totfact> 0.16542194E+01</totfact>
</mgrwt>
</event>
<event>
 6    1  0.5196787E-004  0.2486157E+04  0.7818608E-02  0.8407934E-01
         -2   -1    0    0    0  501 -0.00000000000E+00  0.00000000000E+00  0.63308576785E+03  0.63308576785E+03  0.00000000000E+00 0. -1.
          2   -1    0    0  501    0  0.00000000000E+00 -0.00000000000E+00 -0.24408133647E+04  0.24408133647E+04  0.00000000000E+00 0.  1.
         23    2    1    2    0    0 -0.40711019345E+03  0.28413366465E+03  0.50338486570E+03  0.71006507248E+03  0.65768040354E+02 0.  0.
         13    1    3    3    0    0 -0.26086074417E+03  0.21091771296E+03  0.30968636561E+03  0.45655257586E+03  0.00000000000E+00 0.  1.
        -13    1    3    3    0    0 -0.14624944928E+03  0.73215951694E+02  0.19369850010E+03  0.25351249661E+03  0.00000000000E+00 0. -1.
         22    1    1    2    0    0  0.40711019345E+03 -0.28413366465E+03 -0.23111124626E+04  0.23638340601E+04  0.00000000000E+00 0.  1.
<mgrwt>
<rscale>  0 0.24861570E+04</rscale>
<asrwt>0</asrwt>
<pdfrwt beam="1">  1        2 0.37550975E+00 0.24861570E+04</pdfrwt>
<pdfrwt beam="2">  1       -2 0.97397810E-01 0.24861570E+04</pdfrwt>
<totfact> 0.29558386E+00</totfact>
</mgrwt>
</event>
<event>
 6    1  0.5196787E-004  0.2930265E+04  0.7818608E-02  0.8263929E-01
          2   -1    0    0  501    0  0.00000000000E+00  0.00000000000E+00  0.25567556629E+04  0.25567556629E+04  0.00000000000E+00 0.  1.
         -2   -1    0    0    0  501 -0.00000000000E+00 -0.00000000000E+00 -0.83958457149E+03  0.83958457149E+03  0.00000000000E+00 0. -1.
         23    2    1    2    0    0  0.80541751496E+03  0.68295878121E+03  0.20341815255E+04  0.22937860699E+04  0.91814952537E+02 0.  0.
         13    1    3    3    0    0  0.39737867768E+03  0.28517130503E+03  0.88964158641E+03  0.10152313229E+04  0.00000000000E+00 0.  1.
        -13    1    3    3    0    0  0.40803883728E+03  0.39778747618E+03  0.11445399391E+04  0.12785547470E+04  0.00000000000E+00 0. -1.
         22    1    1    2    0    0 -0.80541751496E+03 -0.68295878121E+03 -0.31701043412E+03  0.11025541645E+04  0.00000000000E+00 0. -1.
<mgrwt>
<rscale>  0 0.29302646E+04</rscale>
<asrwt>0</asrwt>
<pdfrwt beam="1">  1        2 0.39334702E+00 0.29302646E+04</pdfrwt>
<pdfrwt beam="2">  1       -2 0.12916686E+00 0.29302646E+04</pdfrwt>
<totfact> 0.12257195E+00</totfact>
</mgrwt>
</event>
<event>
 6    1  0.5196787E-004  0.1533863E+04  0.7818608E-02  0.8862242E-01
         -2   -1    0    0    0  501 -0.00000000000E+00  0.00000000000E+00  0.45433452211E+03  0.45433452211E+03  0.00000000000E+00 0. -1.
          2   -1    0    0  501    0  0.00000000000E+00 -0.00000000000E+00 -0.12946045917E+04  0.12946045917E+04  0.00000000000E+00 0.  1.
         23    2    1    2    0    0 -0.48831304878E+03  0.25248234759E+03 -0.10269374891E+04  0.11683861920E+04  0.91261809142E+02 0.  0.
         13    1    3    3    0    0 -0.23758409671E+03  0.78680588489E+02 -0.51108015580E+03  0.56906920815E+03  0.00000000000E+00 0.  1.
        -13    1    3    3    0    0 -0.25072895207E+03  0.17380175910E+03 -0.51585733328E+03  0.59931698389E+03  0.00000000000E+00 0. -1.
         22    1    1    2    0    0  0.48831304878E+03 -0.25248234759E+03  0.18666741951E+03  0.58055292175E+03  0.00000000000E+00 0. -1.
<mgrwt>
<rscale>  0 0.15338625E+04</rscale>
<asrwt>0</asrwt>
<pdfrwt beam="1">  1        2 0.19916993E+00 0.15338625E+04</pdfrwt>
<pdfrwt beam="2">  1       -2 0.69897620E-01 0.15338625E+04</pdfrwt>
<totfact> 0.29928462E+01</totfact>
</mgrwt>
</event>
<event>
 6    1  0.5196787E-004  0.6479354E+04  0.7818608E-02  0.7633651E-01
         -2   -1    0    0    0  501 -0.00000000000E+00  0.00000000000E+00  0.46474129170E+04  0.46474129170E+04  0.00000000000E+00 0. -1.
          2   -1    0    0  501    0  0.00000000000E+00 -0.00000000000E+00 -0.22583545272E+04  0.22583545272E+04  0.00000000000E+00 0.  1.
         23    2    1    2    0    0 -0.27735842677E+04  0.15810623664E+04  0.17768706163E+04  0.36550287949E+04  0.97151472130E+02 0.  0.
         13    1    3    3    0    0 -0.11156784034E+04  0.64558399370E+03  0.66384670108E+03  0.14498998018E+04  0.00000000000E+00 0. -1.
        -13    1    3    3    0    0 -0.16579058643E+04  0.93547837268E+03  0.11130239152E+04  0.22051289931E+04  0.00000000000E+00 0.  1.
         22    1    1    2    0    0  0.27735842677E+04 -0.15810623664E+04  0.61218777349E+03  0.32507386493E+04  0.00000000000E+00 0.  1.
<mgrwt>
<rscale>  0 0.64793537E+04</rscale>
<asrwt>0</asrwt>
<pdfrwt beam="1">  1        2 0.34743916E+00 0.64793537E+04</pdfrwt>
<pdfrwt beam="2">  1       -2 0.71498660E+00 0.64793537E+04</pdfrwt>
<totfact> 0.63495958E-04</totfact>
</mgrwt>
</event>
<event>
 6    1  0.5196787E-004  0.1298534E+04  0.7818608E-02  0.9030729E-01
         -2   -1    0    0    0  501 -0.00000000000E+00  0.00000000000E+00  0.23556547094E+03  0.23556547094E+03  0.00000000000E+00 0. -1.
          2   -1    0    0  501    0  0.00000000000E+00 -0.00000000000E+00 -0.17895126860E+04  0.17895126860E+04  0.00000000000E+00 0.  1.
         23    2    1    2    0    0  0.16245260260E+03  0.52568508037E+03 -0.13089382119E+04  0.14227783450E+04  0.90792757194E+02 0.  0.
         11    1    3    3    0    0 -0.44680967944E+01  0.18014359193E+02 -0.89116019677E+02  0.91028270274E+02  0.00000000000E+00 0. -1.
        -11    1    3    3    0    0  0.16692069940E+03  0.50767072118E+03 -0.12198221922E+04  0.13317500747E+04  0.00000000000E+00 0.  1.
         22    1    1    2    0    0 -0.16245260260E+03 -0.52568508037E+03 -0.24500900322E+03  0.60229981195E+03  0.00000000000E+00 0. -1.
<mgrwt>
<rscale>  0 0.12985336E+04</rscale>
<asrwt>0</asrwt>
<pdfrwt beam="1">  1        2 0.27530964E+00 0.12985336E+04</pdfrwt>
<pdfrwt beam="2">  1       -2 0.36240842E-01 0.12985336E+04</pdfrwt>
<totfact> 0.61425921E+01</totfact>
</mgrwt>
</event>
<event>
 6    1  0.5196787E-004  0.2035238E+04  0.7818608E-02  0.8590321E-01
         -2   -1    0    0    0  501 -0.00000000000E+00  0.00000000000E+00  0.72677407787E+03  0.72677407787E+03  0.00000000000E+00 0. -1.
          2   -1    0    0  501    0  0.00000000000E+00 -0.00000000000E+00 -0.14248557637E+04  0.14248557637E+04  0.00000000000E+00 0.  1.
         23    2    1    2    0    0  0.81338954910E+03 -0.36509905580E+03  0.16443556467E+03  0.91113160033E+03  0.90674467495E+02 0.  0.
         13    1    3    3    0    0  0.32771885567E+03 -0.13941236751E+03  0.11043492089E+03  0.37286904984E+03  0.00000000000E+00 0. -1.
        -13    1    3    3    0    0  0.48567069343E+03 -0.22568668828E+03  0.54000643774E+02  0.53826255048E+03  0.00000000000E+00 0.  1.
         22    1    1    2    0    0 -0.81338954910E+03  0.36509905580E+03 -0.86251725049E+03  0.12404982412E+04  0.00000000000E+00 0.  1.
<mgrwt>
<rscale>  0 0.20352378E+04</rscale>
<asrwt>0</asrwt>
<pdfrwt beam="1">  1        2 0.21920858E+00 0.20352378E+04</pdfrwt>
<pdfrwt beam="2">  1       -2 0.11181140E+00 0.20352378E+04</pdfrwt>
<totfact> 0.81941930E+00</totfact>
</mgrwt>
</event>
<event>
 6    1  0.5196787E-004  0.3812801E+03  0.7818608E-02  0.1050462E+00
         -2   -1    0    0    0  501 -0.00000000000E+00  0.00000000000E+00  0.21427427250E+02  0.21427427250E+02  0.00000000000E+00 0. -1.
          2   -1    0    0  501    0  0.00000000000E+00 -0.00000000000E+00 -0.16961264931E+04  0.16961264931E+04  0.00000000000E+00 0.  1.
         23    2    1    2    0    0 -0.15182479851E+03  0.98360794903E+02 -0.92972076277E+03  0.95092605269E+03  0.84581591018E+02 0.  0.
         11    1    3    3    0    0 -0.12712092112E+03  0.11276267559E+03 -0.75550323385E+03  0.77437735372E+03  0.00000000000E+00 0. -1.
        -11    1    3    3    0    0 -0.24703877394E+02 -0.14401880686E+02 -0.17421752892E+03  0.17654869897E+03  0.00000000000E+00 0.  1.
         22    1    1    2    0    0  0.15182479851E+03 -0.98360794903E+02 -0.74497830313E+03  0.76662786771E+03  0.00000000000E+00 0.  1.
<mgrwt>
<rscale>  0 0.38128009E+03</rscale>
<asrwt>0</asrwt>
<pdfrwt beam="1">  1        2 0.26094253E+00 0.38128009E+03</pdfrwt>
<pdfrwt beam="2">  1       -2 0.32965273E-02 0.38128009E+03</pdfrwt>
<totfact> 0.39473388E+03</totfact>
</mgrwt>
</event>
<event>
 6    1  0.5196787E-004  0.5430664E+03  0.7818608E-02  0.1003112E+00
          2   -1    0    0  501    0  0.00000000000E+00  0.00000000000E+00  0.60751359567E+03  0.60751359567E+03  0.00000000000E+00 0.  1.
         -2   -1    0    0    0  501 -0.00000000000E+00 -0.00000000000E+00 -0.12136397931E+03  0.12136397931E+03  0.00000000000E+00 0. -1.
         23    2    1    2    0    0  0.23028207224E+03  0.13759838908E+01  0.42205494474E+03  0.48983813670E+03  0.93697906362E+02 0.  0.
         13    1    3    3    0    0  0.86542779948E+02 -0.44530588414E+02  0.17917589563E+03  0.20390347628E+03  0.00000000000E+00 0. -1.
        -13    1    3    3    0    0  0.14373929229E+03  0.45906572305E+02  0.24287904912E+03  0.28593466042E+03  0.00000000000E+00 0.  1.
         22    1    1    2    0    0 -0.23028207224E+03 -0.13759838908E+01  0.64094671614E+02  0.23903943828E+03  0.00000000000E+00 0. -1.
<mgrwt>
<rscale>  0 0.54306636E+03</rscale>
<asrwt>0</asrwt>
<pdfrwt beam="1">  1        2 0.93463628E-01 0.54306636E+03</pdfrwt>
<pdfrwt beam="2">  1       -2 0.18671382E-01 0.54306636E+03</pdfrwt>
<totfact> 0.11783686E+03</totfact>
</mgrwt>
</event>
<event>
 6    1  0.5196787E-004  0.2280878E+04  0.7818608E-02  0.8485499E-01
         -2   -1    0    0    0  501 -0.00000000000E+00  0.00000000000E+00  0.10011418374E+04  0.10011418374E+04  0.00000000000E+00 0. -1.
          2   -1    0    0  501    0  0.00000000000E+00 -0.00000000000E+00 -0.12991175252E+04  0.12991175252E+04  0.00000000000E+00 0.  1.
         23    2    1    2    0    0 -0.51853997091E+03  0.10010527017E+04  0.11451337307E+02  0.11311848154E+04  0.91965975452E+02 0.  0.
         13    1    3    3    0    0 -0.20570814959E+03  0.31397931477E+03 -0.16508129295E+02  0.37572778875E+03  0.00000000000E+00 0. -1.
        -13    1    3    3    0    0 -0.31283182132E+03  0.68707338689E+03  0.27959466602E+02  0.75545702669E+03  0.00000000000E+00 0.  1.
         22    1    1    2    0    0  0.51853997091E+03 -0.10010527017E+04 -0.30942702512E+03  0.11690745472E+04  0.00000000000E+00 0. -1.
<mgrwt>
<rscale>  0 0.22808778E+04</rscale>
<asrwt>0</asrwt>
<pdfrwt beam="1">  1        2 0.19986423E+00 0.22808778E+04</pdfrwt>
<pdfrwt beam="2">  1       -2 0.15402182E+00 0.22808778E+04</pdfrwt>
<totfact> 0.41968640E+00</totfact>
</mgrwt>
</event>
<event>
 6    1  0.5556084E-004  0.3110118E+04  0.7818608E-02  0.8212967E-01
         -2   -1    0    0    0  501 -0.00000000000E+00  0.00000000000E+00  0.13500688372E+04  0.13500688372E+04  0.00000000000E+00 0. -1.
          2   -1    0    0  501    0  0.00000000000E+00 -0.00000000000E+00 -0.17911745497E+04  0.17911745497E+04  0.00000000000E+00 0.  1.
         23    2    1    2    0    0 -0.14808400081E+04 -0.46830460677E+03 -0.26439495546E+03  0.15780981519E+04  0.91064537771E+02 0.  0.
         11    1    3    3    0    0 -0.72555605783E+03 -0.27233394332E+03 -0.15207007282E+03  0.78976115173E+03  0.00000000000E+00 0. -1.
        -11    1    3    3    0    0 -0.75528395030E+03 -0.19597066345E+03 -0.11232488263E+03  0.78833700012E+03  0.00000000000E+00 0.  1.
         22    1    1    2    0    0  0.14808400081E+04  0.46830460677E+03 -0.17671075701E+03  0.15631452351E+04  0.00000000000E+00 0.  1.
<mgrwt>
<rscale>  0 0.31101183E+04</rscale>
<asrwt>0</asrwt>
<pdfrwt beam="1">  1        2 0.27556531E+00 0.31101183E+04</pdfrwt>
<pdfrwt beam="2">  1       -2 0.20770290E+00 0.31101183E+04</pdfrwt>
<totfact> 0.87721226E-01</totfact>
</mgrwt>
</event>
<event>
 6    1  0.5196787E-004  0.2233087E+04  0.7818608E-02  0.8504781E-01
          1   -1    0    0  501    0  0.00000000000E+00  0.00000000000E+00  0.18505460807E+04  0.18505460807E+04  0.00000000000E+00 0.  1.
         -1   -1    0    0    0  501 -0.00000000000E+00 -0.00000000000E+00 -0.67367646673E+03  0.67367646673E+03  0.00000000000E+00 0. -1.
         23    2    1    2    0    0  0.33126532735E+03  0.34214707023E+03 -0.54979238359E+03  0.73308799398E+03  0.91351010309E+02 0.  0.
         11    1    3    3    0    0  0.46781912319E+02  0.98059789215E+02 -0.14790981632E+03  0.18352542970E+03  0.00000000000E+00 0. -1.
        -11    1    3    3    0    0  0.28448341503E+03  0.24408728101E+03 -0.40188256727E+03  0.54956256428E+03  0.00000000000E+00 0.  1.
         22    1    1    2    0    0 -0.33126532735E+03 -0.34214707023E+03  0.17266619976E+04  0.17911345535E+04  0.00000000000E+00 0.  1.
<mgrwt>
<rscale>  0 0.22330870E+04</rscale>
<asrwt>0</asrwt>
<pdfrwt beam="1">  1        1 0.28469939E+00 0.22330870E+04</pdfrwt>
<pdfrwt beam="2">  1       -1 0.10364253E+00 0.22330870E+04</pdfrwt>
<totfact> 0.30025502E+00</totfact>
</mgrwt>
</event>
<event>
 6    1  0.5196787E-004  0.2329142E+04  0.7818608E-02  0.8466519E-01
          1   -1    0    0  501    0  0.00000000000E+00  0.00000000000E+00  0.15366223761E+04  0.15366223761E+04  0.00000000000E+00 0.  1.
         -1   -1    0    0    0  501 -0.00000000000E+00 -0.00000000000E+00 -0.88260176611E+03  0.88260176611E+03  0.00000000000E+00 0. -1.
         23    2    1    2    0    0 -0.32993600278E+03 -0.16672308384E+03  0.14722436964E+04  0.15213692699E+04  0.10202255203E+03 0.  0.
         13    1    3    3    0    0 -0.23107177245E+03 -0.72482670958E+02  0.82180407951E+03  0.85674374623E+03  0.00000000000E+00 0. -1.
        -13    1    3    3    0    0 -0.98864230334E+02 -0.94240412878E+02  0.65043961686E+03  0.66462552362E+03  0.00000000000E+00 0.  1.
         22    1    1    2    0    0  0.32993600278E+03  0.16672308384E+03 -0.81822308641E+03  0.89785487232E+03  0.00000000000E+00 0. -1.
<mgrwt>
<rscale>  0 0.23291420E+04</rscale>
<asrwt>0</asrwt>
<pdfrwt beam="1">  1        1 0.23640344E+00 0.23291420E+04</pdfrwt>
<pdfrwt beam="2">  1       -1 0.13578489E+00 0.23291420E+04</pdfrwt>
<totfact> 0.25248987E+00</totfact>
</mgrwt>
</event>
<event>
 6    1  0.5196787E-004  0.2750722E+04  0.7818608E-02  0.8318732E-01
          2   -1    0    0  501    0  0.00000000000E+00  0.00000000000E+00  0.26499688333E+04  0.26499688333E+04  0.00000000000E+00 0.  1.
         -2   -1    0    0    0  501 -0.00000000000E+00 -0.00000000000E+00 -0.71382660926E+03  0.71382660926E+03  0.00000000000E+00 0. -1.
         23    2    1    2    0    0  0.74151566915E+03 -0.78347630671E+03 -0.71070464043E+02  0.10850713728E+04  0.92996034735E+02 0.  0.
         11    1    3    3    0    0  0.31775864266E+03 -0.29388910500E+03  0.69153155535E+01  0.43288472208E+03  0.00000000000E+00 0.  1.
        -11    1    3    3    0    0  0.42375702649E+03 -0.48958720170E+03 -0.77985779596E+02  0.65218665073E+03  0.00000000000E+00 0. -1.
         22    1    1    2    0    0 -0.74151566915E+03  0.78347630671E+03  0.20072126880E+04  0.22787240697E+04  0.00000000000E+00 0. -1.
<mgrwt>
<rscale>  0 0.27507223E+04</rscale>
<asrwt>0</asrwt>
<pdfrwt beam="1">  1        2 0.40768751E+00 0.27507223E+04</pdfrwt>
<pdfrwt beam="2">  1       -2 0.10981948E+00 0.27507223E+04</pdfrwt>
<totfact> 0.16382708E+00</totfact>
</mgrwt>
</event>
<event>
 6    1  0.5196787E-004  0.2488035E+04  0.7818608E-02  0.8407260E-01
          1   -1    0    0  501    0  0.00000000000E+00  0.00000000000E+00  0.31351354363E+04  0.31351354363E+04  0.00000000000E+00 0.  1.
         -1   -1    0    0    0  501 -0.00000000000E+00 -0.00000000000E+00 -0.49362465352E+03  0.49362465352E+03  0.00000000000E+00 0. -1.
         23    2    1    2    0    0  0.61280383840E+03  0.58813784271E+03  0.26446999431E+04  0.27793810006E+04  0.95322040435E+02 0.  0.
         11    1    3    3    0    0  0.23924047112E+03  0.22300630567E+03  0.87195373266E+03  0.93127392710E+03  0.00000000000E+00 0.  1.
        -11    1    3    3    0    0  0.37356336728E+03  0.36513153704E+03  0.17727462104E+04  0.18481070735E+04  0.00000000000E+00 0. -1.
         22    1    1    2    0    0 -0.61280383840E+03 -0.58813784271E+03 -0.31891603096E+01  0.84937908918E+03  0.00000000000E+00 0. -1.
<mgrwt>
<rscale>  0 0.24880355E+04</rscale>
<asrwt>0</asrwt>
<pdfrwt beam="1">  1        1 0.48232852E+00 0.24880355E+04</pdfrwt>
<pdfrwt beam="2">  1       -1 0.75942256E-01 0.24880355E+04</pdfrwt>
<totfact> 0.73628654E-01</totfact>
</mgrwt>
</event>
<event>
 6    1  0.5196787E-004  0.2508107E+04  0.7818608E-02  0.8400103E-01
          2   -1    0    0  501    0  0.00000000000E+00  0.00000000000E+00  0.24496307489E+04  0.24496307489E+04  0.00000000000E+00 0.  1.
         -2   -1    0    0    0  501 -0.00000000000E+00 -0.00000000000E+00 -0.64199482711E+03  0.64199482711E+03  0.00000000000E+00 0. -1.
         23    2    1    2    0    0 -0.28351463293E+03  0.82801024407E+03  0.20100651531E+04  0.21933165507E+04  0.65529081775E+02 0.  0.
         13    1    3    3    0    0 -0.18424563590E+03  0.55664823420E+03  0.12691231076E+04  0.13980261705E+04  0.00000000000E+00 0. -1.
        -13    1    3    3    0    0 -0.99268997027E+02  0.27136200987E+03  0.74094204541E+03  0.79529038020E+03  0.00000000000E+00 0.  1.
         22    1    1    2    0    0  0.28351463293E+03 -0.82801024407E+03 -0.20242923126E+03  0.89830902535E+03  0.00000000000E+00 0. -1.
<mgrwt>
<rscale>  0 0.25081071E+04</rscale>
<asrwt>0</asrwt>
<pdfrwt beam="1">  1        2 0.37686626E+00 0.25081071E+04</pdfrwt>
<pdfrwt beam="2">  1       -2 0.98768436E-01 0.25081071E+04</pdfrwt>
<totfact> 0.28216706E+00</totfact>
</mgrwt>
</event>
<event>
 6    1  0.5196787E-004  0.1448456E+04  0.7818608E-02  0.8919472E-01
         -2   -1    0    0    0  501 -0.00000000000E+00  0.00000000000E+00  0.71195638835E+03  0.71195638835E+03  0.00000000000E+00 0. -1.
          2   -1    0    0  501    0  0.00000000000E+00 -0.00000000000E+00 -0.73671084714E+03  0.73671084714E+03  0.00000000000E+00 0.  1.
         23    2    1    2    0    0  0.68795681052E+03 -0.84000320921E+02 -0.21144155196E+03  0.73089798440E+03  0.95727251276E+02 0.  0.
         11    1    3    3    0    0  0.21570798789E+03  0.17684897741E+01 -0.30080618892E+02  0.21780245000E+03  0.00000000000E+00 0. -1.
        -11    1    3    3    0    0  0.47224882264E+03 -0.85768810695E+02 -0.18136093307E+03  0.51309553439E+03  0.00000000000E+00 0.  1.
         22    1    1    2    0    0 -0.68795681052E+03  0.84000320921E+02  0.18668709317E+03  0.71776925109E+03  0.00000000000E+00 0. -1.
<mgrwt>
<rscale>  0 0.14484557E+04</rscale>
<asrwt>0</asrwt>
<pdfrwt beam="1">  1        2 0.11334013E+00 0.14484557E+04</pdfrwt>
<pdfrwt beam="2">  1       -2 0.10953175E+00 0.14484557E+04</pdfrwt>
<totfact> 0.24712235E+01</totfact>
</mgrwt>
</event>
<event>
 6    1  0.5196787E-004  0.2748056E+04  0.7818608E-02  0.8319579E-01
         -2   -1    0    0    0  501 -0.00000000000E+00  0.00000000000E+00  0.16327415718E+04  0.16327415718E+04  0.00000000000E+00 0. -1.
          2   -1    0    0  501    0  0.00000000000E+00 -0.00000000000E+00 -0.11563087299E+04  0.11563087299E+04  0.00000000000E+00 0.  1.
         23    2    1    2    0    0 -0.58186482866E+03 -0.12274852714E+04  0.37989144082E+02  0.13616331774E+04  0.85527566309E+02 0.  0.
         13    1    3    3    0    0 -0.15458493567E+03 -0.26622056346E+03  0.33590723597E+02  0.30967438941E+03  0.00000000000E+00 0.  1.
        -13    1    3    3    0    0 -0.42727989298E+03 -0.96126470791E+03  0.43984204857E+01  0.10519587880E+04  0.00000000000E+00 0. -1.
         22    1    1    2    0    0  0.58186482866E+03  0.12274852714E+04  0.43844369786E+03  0.14274171242E+04  0.00000000000E+00 0. -1.
<mgrwt>
<rscale>  0 0.27480563E+04</rscale>
<asrwt>0</asrwt>
<pdfrwt beam="1">  1        2 0.17789365E+00 0.27480563E+04</pdfrwt>
<pdfrwt beam="2">  1       -2 0.25119101E+00 0.27480563E+04</pdfrwt>
<totfact> 0.11111403E+00</totfact>
</mgrwt>
</event>
<event>
 6    1  0.5196787E-004  0.1501777E+04  0.7818608E-02  0.8883272E-01
          2   -1    0    0  501    0  0.00000000000E+00  0.00000000000E+00  0.65225999012E+03  0.65225999012E+03  0.00000000000E+00 0.  1.
         -2   -1    0    0    0  501 -0.00000000000E+00 -0.00000000000E+00 -0.86443061976E+03  0.86443061976E+03  0.00000000000E+00 0. -1.
         23    2    1    2    0    0 -0.65012722786E+03 -0.22404560255E+03  0.19100895073E+03  0.71956099780E+03  0.91770179615E+02 0.  0.
         11    1    3    3    0    0 -0.20316542297E+03 -0.11508064534E+03  0.72469379542E+02  0.24448221815E+03  0.00000000000E+00 0.  1.
        -11    1    3    3    0    0 -0.44696180489E+03 -0.10896495721E+03  0.11853957119E+03  0.47507877964E+03  0.00000000000E+00 0. -1.
         22    1    1    2    0    0  0.65012722786E+03  0.22404560255E+03 -0.40317958037E+03  0.79712961208E+03  0.00000000000E+00 0. -1.
<mgrwt>
<rscale>  0 0.15017770E+04</rscale>
<asrwt>0</asrwt>
<pdfrwt beam="1">  1        2 0.10034769E+00 0.15017770E+04</pdfrwt>
<pdfrwt beam="2">  1       -2 0.13298933E+00 0.15017770E+04</pdfrwt>
<totfact> 0.17722031E+01</totfact>
</mgrwt>
</event>
<event>
 6    1  0.5196787E-004  0.6050464E+04  0.7818608E-02  0.7684176E-01
         -2   -1    0    0    0  501 -0.00000000000E+00  0.00000000000E+00  0.22874653925E+04  0.22874653925E+04  0.00000000000E+00 0. -1.
          2   -1    0    0  501    0  0.00000000000E+00 -0.00000000000E+00 -0.40009479070E+04  0.40009479070E+04  0.00000000000E+00 0.  1.
         23    2    1    2    0    0 -0.16257827388E+04  0.94110697603E+03  0.16067563142E+04  0.24735951212E+04  0.90305683741E+02 0.  0.
         11    1    3    3    0    0 -0.98184555613E+03  0.58593032127E+03  0.10318954177E+04  0.15401763505E+04  0.00000000000E+00 0. -1.
        -11    1    3    3    0    0 -0.64393718266E+03  0.35517665476E+03  0.57486089647E+03  0.93341877075E+03  0.00000000000E+00 0.  1.
         22    1    1    2    0    0  0.16257827388E+04 -0.94110697603E+03 -0.33202388287E+04  0.38148181783E+04  0.00000000000E+00 0.  1.
<mgrwt>
<rscale>  0 0.60504644E+04</rscale>
<asrwt>0</asrwt>
<pdfrwt beam="1">  1        2 0.61553045E+00 0.60504644E+04</pdfrwt>
<pdfrwt beam="2">  1       -2 0.35191775E+00 0.60504644E+04</pdfrwt>
<totfact> 0.34463097E-03</totfact>
</mgrwt>
</event>
<event>
 6    1  0.5196787E-004  0.9939327E+03  0.7818608E-02  0.9315224E-01
         -3   -1    0    0    0  501 -0.00000000000E+00  0.00000000000E+00  0.49914919063E+03  0.49914919063E+03  0.00000000000E+00 0. -1.
          3   -1    0    0  501    0  0.00000000000E+00 -0.00000000000E+00 -0.49479308123E+03  0.49479308123E+03  0.00000000000E+00 0.  1.
         23    2    1    2    0    0 -0.30353054794E+03  0.75096018392E+02 -0.37860235617E+03  0.49954628496E+03  0.91850646222E+02 0.  0.
         13    1    3    3    0    0 -0.21483801054E+03  0.90090394258E+01 -0.25935971543E+03  0.33690354043E+03  0.00000000000E+00 0. -1.
        -13    1    3    3    0    0 -0.88692537394E+02  0.66086978967E+02 -0.11924264075E+03  0.16264274454E+03  0.00000000000E+00 0.  1.
         22    1    1    2    0    0  0.30353054794E+03 -0.75096018392E+02  0.38295846557E+03  0.49439598690E+03  0.00000000000E+00 0. -1.
<mgrwt>
<rscale>  0 0.99393273E+03</rscale>
<asrwt>0</asrwt>
<pdfrwt beam="1">  1        3 0.76122012E-01 0.99393273E+03</pdfrwt>
<pdfrwt beam="2">  1       -3 0.76792183E-01 0.99393273E+03</pdfrwt>
<totfact> 0.67721900E+00</totfact>
</mgrwt>
</event>
<event>
 6    1  0.5196787E-004  0.1738604E+04  0.7818608E-02  0.8739648E-01
         -2   -1    0    0    0  501 -0.00000000000E+00  0.00000000000E+00  0.30562460064E+03  0.30562460064E+03  0.00000000000E+00 0. -1.
          2   -1    0    0  501    0  0.00000000000E+00 -0.00000000000E+00 -0.24725947069E+04  0.24725947069E+04  0.00000000000E+00 0.  1.
         23    2    1    2    0    0  0.36297330613E+03 -0.64307558908E+03 -0.36157429968E+03  0.82764250756E+03  0.94658923987E+02 0.  0.
         11    1    3    3    0    0  0.73640072859E+02 -0.19901137876E+03 -0.74592785720E+02  0.22492770592E+03  0.00000000000E+00 0. -1.
        -11    1    3    3    0    0  0.28933323327E+03 -0.44406421032E+03 -0.28698151396E+03  0.60271480164E+03  0.00000000000E+00 0.  1.
         22    1    1    2    0    0 -0.36297330613E+03  0.64307558908E+03 -0.18053958066E+04  0.19505768000E+04  0.00000000000E+00 0.  1.
<mgrwt>
<rscale>  0 0.17386038E+04</rscale>
<asrwt>0</asrwt>
<pdfrwt beam="1">  1        2 0.38039918E+00 0.17386038E+04</pdfrwt>
<pdfrwt beam="2">  1       -2 0.47019170E-01 0.17386038E+04</pdfrwt>
<totfact> 0.14705866E+01</totfact>
</mgrwt>
</event>
<event>
 6    1  0.5196787E-004  0.1727983E+04  0.7818608E-02  0.8745564E-01
          1   -1    0    0  501    0  0.00000000000E+00  0.00000000000E+00  0.11965402439E+04  0.11965402439E+04  0.00000000000E+00 0.  1.
         -1   -1    0    0    0  501 -0.00000000000E+00 -0.00000000000E+00 -0.62386632944E+03  0.62386632944E+03  0.00000000000E+00 0. -1.
         23    2    1    2    0    0 -0.54680314695E+03  0.49607733481E+03 -0.18080661504E+03  0.76550406032E+03  0.90658869962E+02 0.  0.
         11    1    3    3    0    0 -0.29996875530E+03  0.24095519423E+03 -0.13409773294E+03  0.40745903077E+03  0.00000000000E+00 0.  1.
        -11    1    3    3    0    0 -0.24683439165E+03  0.25512214058E+03 -0.46708882099E+02  0.35804502954E+03  0.00000000000E+00 0. -1.
         22    1    1    2    0    0  0.54680314695E+03 -0.49607733481E+03  0.75348052947E+03  0.10549025130E+04  0.00000000000E+00 0.  1.
<mgrwt>
<rscale>  0 0.17279828E+04</rscale>
<asrwt>0</asrwt>
<pdfrwt beam="1">  1        1 0.18408311E+00 0.17279828E+04</pdfrwt>
<pdfrwt beam="2">  1       -1 0.95979435E-01 0.17279828E+04</pdfrwt>
<totfact> 0.10677746E+01</totfact>
</mgrwt>
</event>
<event>
 6    1  0.5196787E-004  0.2671991E+04  0.7818608E-02  0.8344150E-01
          2   -1    0    0  501    0  0.00000000000E+00  0.00000000000E+00  0.24350237465E+04  0.24350237465E+04  0.00000000000E+00 0.  1.
         -2   -1    0    0    0  501 -0.00000000000E+00 -0.00000000000E+00 -0.73300501243E+03  0.73300501243E+03  0.00000000000E+00 0. -1.
         23    2    1    2    0    0 -0.27186005333E+03 -0.44682173530E+02  0.24000969671E+04  0.24175505084E+04  0.90446803038E+02 0.  0.
         11    1    3    3    0    0 -0.12236969474E+03  0.23869142505E+02  0.94483613944E+03  0.95302644693E+03  0.00000000000E+00 0.  1.
        -11    1    3    3    0    0 -0.14949035859E+03 -0.68551316034E+02  0.14552608276E+04  0.14645240615E+04  0.00000000000E+00 0. -1.
         22    1    1    2    0    0  0.27186005333E+03  0.44682173530E+02 -0.69807823296E+03  0.75047825055E+03  0.00000000000E+00 0. -1.
<mgrwt>
<rscale>  0 0.26719915E+04</rscale>
<asrwt>0</asrwt>
<pdfrwt beam="1">  1        2 0.37461903E+00 0.26719915E+04</pdfrwt>
<pdfrwt beam="2">  1       -2 0.11277000E+00 0.26719915E+04</pdfrwt>
<totfact> 0.20637528E+00</totfact>
</mgrwt>
</event>
<event>
 6    1  0.5196787E-004  0.2489506E+04  0.7818608E-02  0.8406734E-01
         -1   -1    0    0    0  501 -0.00000000000E+00  0.00000000000E+00  0.14029337761E+04  0.14029337761E+04  0.00000000000E+00 0. -1.
          1   -1    0    0  501    0  0.00000000000E+00 -0.00000000000E+00 -0.11044068108E+04  0.11044068108E+04  0.00000000000E+00 0.  1.
         23    2    1    2    0    0 -0.33205341415E+03  0.36999725362E+03 -0.99794098373E+03  0.11188210226E+04  0.93363998368E+02 0.  0.
         13    1    3    3    0    0 -0.10624601006E+03  0.18069024212E+03 -0.37198369852E+03  0.42697663896E+03  0.00000000000E+00 0. -1.
        -13    1    3    3    0    0 -0.22580740409E+03  0.18930701149E+03 -0.62595728520E+03  0.69184438369E+03  0.00000000000E+00 0.  1.
         22    1    1    2    0    0  0.33205341415E+03 -0.36999725362E+03  0.12964679490E+04  0.13885195643E+04  0.00000000000E+00 0. -1.
<mgrwt>
<rscale>  0 0.24895057E+04</rscale>
<asrwt>0</asrwt>
<pdfrwt beam="1">  1        1 0.16990874E+00 0.24895057E+04</pdfrwt>
<pdfrwt beam="2">  1       -1 0.21583597E+00 0.24895057E+04</pdfrwt>
<totfact> 0.13132392E+00</totfact>
</mgrwt>
</event>
<event>
 6    1  0.5196787E-004  0.2169776E+04  0.7818608E-02  0.8531114E-01
         -2   -1    0    0    0  501 -0.00000000000E+00  0.00000000000E+00  0.50631586570E+03  0.50631586570E+03  0.00000000000E+00 0. -1.
          2   -1    0    0  501    0  0.00000000000E+00 -0.00000000000E+00 -0.23246007710E+04  0.23246007710E+04  0.00000000000E+00 0.  1.
         23    2    1    2    0    0 -0.98305349346E+03  0.33719866604E+03 -0.13080734040E+04  0.16731546200E+04  0.91067231326E+02 0.  0.
         11    1    3    3    0    0 -0.54971530916E+03  0.20933600786E+03 -0.80447038489E+03  0.99658471064E+03  0.00000000000E+00 0.  1.
        -11    1    3    3    0    0 -0.43333818430E+03  0.12786265818E+03 -0.50360301913E+03  0.67656990932E+03  0.00000000000E+00 0. -1.
         22    1    1    2    0    0  0.98305349346E+03 -0.33719866604E+03 -0.51021150129E+03  0.11577620167E+04  0.00000000000E+00 0. -1.
<mgrwt>
<rscale>  0 0.21697763E+04</rscale>
<asrwt>0</asrwt>
<pdfrwt beam="1">  1        2 0.35763088E+00 0.21697763E+04</pdfrwt>
<pdfrwt beam="2">  1       -2 0.77894750E-01 0.21697763E+04</pdfrwt>
<totfact> 0.59031571E+00</totfact>
</mgrwt>
</event>
<event>
 6    1  0.5196787E-004  0.4945996E+04  0.7818608E-02  0.7836892E-01
          2   -1    0    0  501    0  0.00000000000E+00  0.00000000000E+00  0.37895420901E+04  0.37895420901E+04  0.00000000000E+00 0.  1.
         -2   -1    0    0    0  501 -0.00000000000E+00 -0.00000000000E+00 -0.16138411033E+04  0.16138411033E+04  0.00000000000E+00 0. -1.
         23    2    1    2    0    0 -0.13644262838E+04  0.13695257381E+04 -0.59529867771E+03  0.20246705729E+04  0.87467605699E+02 0.  0.
         13    1    3    3    0    0 -0.65386369947E+03  0.60216328671E+03 -0.29545768306E+03  0.93671425944E+03  0.00000000000E+00 0.  1.
        -13    1    3    3    0    0 -0.71056258433E+03  0.76736245134E+03 -0.29984099464E+03  0.10879563135E+04  0.00000000000E+00 0. -1.
         22    1    1    2    0    0  0.13644262838E+04 -0.13695257381E+04  0.27709996645E+04  0.33787126205E+04  0.00000000000E+00 0.  1.
<mgrwt>
<rscale>  0 0.49459959E+04</rscale>
<asrwt>0</asrwt>
<pdfrwt beam="1">  1        2 0.58300647E+00 0.49459959E+04</pdfrwt>
<pdfrwt beam="2">  1       -2 0.24828325E+00 0.49459959E+04</pdfrwt>
<totfact> 0.24000525E-02</totfact>
</mgrwt>
</event>
<event>
 6    1  0.5196787E-004  0.1027810E+04  0.7818608E-02  0.9278559E-01
          2   -1    0    0  501    0  0.00000000000E+00  0.00000000000E+00  0.57467126205E+03  0.57467126205E+03  0.00000000000E+00 0.  1.
         -2   -1    0    0    0  501 -0.00000000000E+00 -0.00000000000E+00 -0.45956409677E+03  0.45956409677E+03  0.00000000000E+00 0. -1.
         23    2    1    2    0    0  0.19226179871E+03 -0.20716601095E+03 -0.36903664413E+03  0.47363069996E+03  0.90860551937E+02 0.  0.
         11    1    3    3    0    0  0.14716466713E+03 -0.19031797852E+03 -0.25884833233E+03  0.35338482048E+03  0.00000000000E+00 0. -1.
        -11    1    3    3    0    0  0.45097131584E+02 -0.16848032432E+02 -0.11018831180E+03  0.12024587948E+03  0.00000000000E+00 0.  1.
         22    1    1    2    0    0 -0.19226179871E+03  0.20716601095E+03  0.48414380941E+03  0.56060465886E+03  0.00000000000E+00 0.  1.
<mgrwt>
<rscale>  0 0.10278099E+04</rscale>
<asrwt>0</asrwt>
<pdfrwt beam="1">  1        2 0.88410964E-01 0.10278099E+04</pdfrwt>
<pdfrwt beam="2">  1       -2 0.70702169E-01 0.10278099E+04</pdfrwt>
<totfact> 0.94795901E+01</totfact>
</mgrwt>
</event>
<event>
 6    1  0.5196787E-004  0.1618232E+04  0.7818608E-02  0.8809425E-01
          2   -1    0    0  501    0  0.00000000000E+00  0.00000000000E+00  0.39016508631E+03  0.39016508631E+03  0.00000000000E+00 0.  1.
         -2   -1    0    0    0  501 -0.00000000000E+00 -0.00000000000E+00 -0.16779268519E+04  0.16779268519E+04  0.00000000000E+00 0. -1.
         23    2    1    2    0    0 -0.31450455493E+03  0.55076370793E+03 -0.12827767734E+04  0.14338375514E+04  0.90111577583E+02 0.  0.
         11    1    3    3    0    0 -0.11891591508E+03  0.28379572015E+03 -0.56228167206E+03  0.64096933185E+03  0.00000000000E+00 0. -1.
        -11    1    3    3    0    0 -0.19558863985E+03  0.26696798778E+03 -0.72049510131E+03  0.79286821954E+03  0.00000000000E+00 0.  1.
         22    1    1    2    0    0  0.31450455493E+03 -0.55076370793E+03 -0.49849922214E+01  0.63425438682E+03  0.00000000000E+00 0.  1.
<mgrwt>
<rscale>  0 0.16182317E+04</rscale>
<asrwt>0</asrwt>
<pdfrwt beam="1">  1        2 0.60025399E-01 0.16182317E+04</pdfrwt>
<pdfrwt beam="2">  1       -2 0.25814259E+00 0.16182317E+04</pdfrwt>
<totfact> 0.44881655E+00</totfact>
</mgrwt>
</event>
<event>
 6    1  0.5196787E-004  0.2119370E+04  0.7818608E-02  0.8552758E-01
          2   -1    0    0  501    0  0.00000000000E+00  0.00000000000E+00  0.51361585355E+03  0.51361585355E+03  0.00000000000E+00 0.  1.
         -2   -1    0    0    0  501 -0.00000000000E+00 -0.00000000000E+00 -0.21863268539E+04  0.21863268539E+04  0.00000000000E+00 0. -1.
         23    2    1    2    0    0 -0.11038540120E+03  0.68090895795E+03  0.18343242569E+03  0.71976838080E+03  0.92720663220E+02 0.  0.
         13    1    3    3    0    0 -0.22379020232E+02  0.23503796609E+03  0.20571755914E+02  0.23699549192E+03  0.00000000000E+00 0. -1.
        -13    1    3    3    0    0 -0.88006380970E+02  0.44587099186E+03  0.16286066978E+03  0.48277288888E+03  0.00000000000E+00 0.  1.
         22    1    1    2    0    0  0.11038540120E+03 -0.68090895795E+03 -0.18561434260E+04  0.19801743266E+04  0.00000000000E+00 0. -1.
<mgrwt>
<rscale>  0 0.21193698E+04</rscale>
<asrwt>0</asrwt>
<pdfrwt beam="1">  1        2 0.79017824E-01 0.21193698E+04</pdfrwt>
<pdfrwt beam="2">  1       -2 0.33635798E+00 0.21193698E+04</pdfrwt>
<totfact> 0.10420517E+00</totfact>
</mgrwt>
</event>
<event>
 6    1  0.5196787E-004  0.8159623E+03  0.7818608E-02  0.9537195E-01
          2   -1    0    0  501    0  0.00000000000E+00  0.00000000000E+00  0.20783040980E+03  0.20783040980E+03  0.00000000000E+00 0.  1.
         -2   -1    0    0    0  501 -0.00000000000E+00 -0.00000000000E+00 -0.80088675458E+03  0.80088675458E+03  0.00000000000E+00 0. -1.
         23    2    1    2    0    0 -0.30357222845E+03  0.54441241384E+02  0.19555242098E+02  0.32285062997E+03  0.93435406172E+02 0.  0.
         11    1    3    3    0    0 -0.14182789427E+03  0.62660334684E+02  0.38589106621E+02  0.15978294116E+03  0.00000000000E+00 0. -1.
        -11    1    3    3    0    0 -0.16174433419E+03 -0.82190933000E+01 -0.19033864522E+02  0.16306768881E+03  0.00000000000E+00 0.  1.
         22    1    1    2    0    0  0.30357222845E+03 -0.54441241384E+02 -0.61261158687E+03  0.68586653441E+03  0.00000000000E+00 0. -1.
<mgrwt>
<rscale>  0 0.81596231E+03</rscale>
<asrwt>0</asrwt>
<pdfrwt beam="1">  1        2 0.31973909E-01 0.81596231E+03</pdfrwt>
<pdfrwt beam="2">  1       -2 0.12321335E+00 0.81596231E+03</pdfrwt>
<totfact> 0.82867765E+01</totfact>
</mgrwt>
</event>
<event>
 6    1  0.5196787E-004  0.2304025E+04  0.7818608E-02  0.8476336E-01
          2   -1    0    0  501    0  0.00000000000E+00  0.00000000000E+00  0.13042075423E+04  0.13042075423E+04  0.00000000000E+00 0.  1.
         -2   -1    0    0    0  501 -0.00000000000E+00 -0.00000000000E+00 -0.10175778920E+04  0.10175778920E+04  0.00000000000E+00 0. -1.
         23    2    1    2    0    0 -0.31227645038E+03  0.34318359072E+03  0.12041262253E+04  0.12936358714E+04  0.91006828837E+02 0.  0.
         13    1    3    3    0    0 -0.41698837442E+02  0.93541282942E+02  0.21293981331E+03  0.23628823236E+03  0.00000000000E+00 0.  1.
        -13    1    3    3    0    0 -0.27057761293E+03  0.24964230778E+03  0.99118641203E+03  0.10573476391E+04  0.00000000000E+00 0. -1.
         22    1    1    2    0    0  0.31227645038E+03 -0.34318359072E+03 -0.91749657510E+03  0.10281495629E+04  0.00000000000E+00 0. -1.
<mgrwt>
<rscale>  0 0.23040250E+04</rscale>
<asrwt>0</asrwt>
<pdfrwt beam="1">  1        2 0.20064731E+00 0.23040250E+04</pdfrwt>
<pdfrwt beam="2">  1       -2 0.15655044E+00 0.23040250E+04</pdfrwt>
<totfact> 0.39819924E+00</totfact>
</mgrwt>
</event>
<event>
 6    1  0.5486489E-004  0.1527333E+04  0.7818608E-02  0.8866477E-01
          2   -1    0    0  501    0  0.00000000000E+00  0.00000000000E+00  0.20951727134E+04  0.20951727134E+04  0.00000000000E+00 0.  1.
         -2   -1    0    0    0  501 -0.00000000000E+00 -0.00000000000E+00 -0.27834788825E+03  0.27834788825E+03  0.00000000000E+00 0. -1.
         23    2    1    2    0    0 -0.59582599811E+03  0.43346778407E+03  0.12070434209E+04  0.14171021259E+04  0.91223217251E+02 0.  0.
         13    1    3    3    0    0 -0.28423908260E+03  0.20013320766E+03  0.48361110741E+03  0.59558782736E+03  0.00000000000E+00 0. -1.
        -13    1    3    3    0    0 -0.31158691551E+03  0.23333457642E+03  0.72343231347E+03  0.82151429850E+03  0.00000000000E+00 0.  1.
         22    1    1    2    0    0  0.59582599811E+03 -0.43346778407E+03  0.60978140429E+03  0.95641847581E+03  0.00000000000E+00 0. -1.
<mgrwt>
<rscale>  0 0.15273335E+04</rscale>
<asrwt>0</asrwt>
<pdfrwt beam="1">  1        2 0.32233425E+00 0.15273335E+04</pdfrwt>
<pdfrwt beam="2">  1       -2 0.42822753E-01 0.15273335E+04</pdfrwt>
<totfact> 0.29490732E+01</totfact>
</mgrwt>
</event>
<event>
 6    1  0.5196787E-004  0.2011391E+04  0.7818608E-02  0.8601314E-01
         -2   -1    0    0    0  501 -0.00000000000E+00  0.00000000000E+00  0.10769241244E+04  0.10769241244E+04  0.00000000000E+00 0. -1.
          2   -1    0    0  501    0  0.00000000000E+00 -0.00000000000E+00 -0.93917779166E+03  0.93917779166E+03  0.00000000000E+00 0.  1.
         23    2    1    2    0    0 -0.24913704603E+02  0.31583774690E+03  0.10235843109E+04  0.10753133646E+04  0.90552832196E+02 0.  0.
         13    1    3    3    0    0  0.11951097210E+02  0.24465413338E+03  0.84012569703E+03  0.87510551393E+03  0.00000000000E+00 0. -1.
        -13    1    3    3    0    0 -0.36864801813E+02  0.71183613525E+02  0.18345861387E+03  0.20020785063E+03  0.00000000000E+00 0.  1.
         22    1    1    2    0    0  0.24913704603E+02 -0.31583774690E+03 -0.88583797817E+03  0.94078855149E+03  0.00000000000E+00 0.  1.
<mgrwt>
<rscale>  0 0.20113908E+04</rscale>
<asrwt>0</asrwt>
<pdfrwt beam="1">  1        2 0.14448889E+00 0.20113908E+04</pdfrwt>
<pdfrwt beam="2">  1       -2 0.16568063E+00 0.20113908E+04</pdfrwt>
<totfact> 0.58628929E+00</totfact>
</mgrwt>
</event>
<event>
 6    1  0.5196787E-004  0.6449585E+04  0.7818608E-02  0.7637027E-01
         -2   -1    0    0    0  501 -0.00000000000E+00  0.00000000000E+00  0.44256862786E+04  0.44256862786E+04  0.00000000000E+00 0. -1.
          2   -1    0    0  501    0  0.00000000000E+00 -0.00000000000E+00 -0.23497568216E+04  0.23497568216E+04  0.00000000000E+00 0.  1.
         23    2    1    2    0    0 -0.26692076576E+04 -0.39729195025E+03 -0.81542215303E+03  0.28203925890E+04  0.84797734052E+02 0.  0.
         11    1    3    3    0    0 -0.17953694089E+04 -0.24591404841E+03 -0.51208336849E+03  0.18830970262E+04  0.00000000000E+00 0. -1.
        -11    1    3    3    0    0 -0.87383824865E+03 -0.15137790184E+03 -0.30333878453E+03  0.93729556287E+03  0.00000000000E+00 0.  1.
         22    1    1    2    0    0  0.26692076576E+04  0.39729195025E+03  0.28913516100E+04  0.39550505112E+04  0.00000000000E+00 0. -1.
<mgrwt>
<rscale>  0 0.64495850E+04</rscale>
<asrwt>0</asrwt>
<pdfrwt beam="1">  1        2 0.36150105E+00 0.64495850E+04</pdfrwt>
<pdfrwt beam="2">  1       -2 0.68087481E+00 0.64495850E+04</pdfrwt>
<totfact> 0.74921232E-04</totfact>
</mgrwt>
</event>
<event>
 6    1  0.5196787E-004  0.1393204E+04  0.7818608E-02  0.8958753E-01
         -2   -1    0    0    0  501 -0.00000000000E+00  0.00000000000E+00  0.28436337812E+03  0.28436337812E+03  0.00000000000E+00 0. -1.
          2   -1    0    0  501    0  0.00000000000E+00 -0.00000000000E+00 -0.17064576809E+04  0.17064576809E+04  0.00000000000E+00 0.  1.
         23    2    1    2    0    0 -0.48397991213E+03 -0.45313548133E+03 -0.41248104414E+03  0.78297700790E+03  0.57827876885E+02 0.  0.
         11    1    3    3    0    0 -0.15193366240E+03 -0.15138846675E+03 -0.10306583668E+03  0.23795981242E+03  0.00000000000E+00 0. -1.
        -11    1    3    3    0    0 -0.33204624973E+03 -0.30174701457E+03 -0.30941520746E+03  0.54501719548E+03  0.00000000000E+00 0.  1.
         22    1    1    2    0    0  0.48397991213E+03  0.45313548133E+03 -0.10096132586E+04  0.12078440511E+04  0.00000000000E+00 0.  1.
<mgrwt>
<rscale>  0 0.13932036E+04</rscale>
<asrwt>0</asrwt>
<pdfrwt beam="1">  1        2 0.26253195E+00 0.13932036E+04</pdfrwt>
<pdfrwt beam="2">  1       -2 0.43748213E-01 0.13932036E+04</pdfrwt>
<totfact> 0.46920745E+01</totfact>
</mgrwt>
</event>
<event>
 6    1  0.5196787E-004  0.1344494E+04  0.7818608E-02  0.8995007E-01
         -1   -1    0    0    0  501 -0.00000000000E+00  0.00000000000E+00  0.23353685490E+03  0.23353685490E+03  0.00000000000E+00 0. -1.
          1   -1    0    0  501    0  0.00000000000E+00 -0.00000000000E+00 -0.19350947895E+04  0.19350947895E+04  0.00000000000E+00 0.  1.
         23    2    1    2    0    0 -0.40601646270E+03  0.49378831151E+03 -0.11746895234E+04  0.13402195566E+04  0.87273815559E+02 0.  0.
         13    1    3    3    0    0 -0.28074748851E+03  0.38239280289E+03 -0.92372225388E+03  0.10384152398E+04  0.00000000000E+00 0.  1.
        -13    1    3    3    0    0 -0.12526897419E+03  0.11139550861E+03 -0.25096726952E+03  0.30180431675E+03  0.00000000000E+00 0. -1.
         22    1    1    2    0    0  0.40601646270E+03 -0.49378831151E+03 -0.52686841124E+03  0.82841208787E+03  0.00000000000E+00 0. -1.
<mgrwt>
<rscale>  0 0.13444939E+04</rscale>
<asrwt>0</asrwt>
<pdfrwt beam="1">  1        1 0.29770690E+00 0.13444939E+04</pdfrwt>
<pdfrwt beam="2">  1       -1 0.35928745E-01 0.13444939E+04</pdfrwt>
<totfact> 0.23928840E+01</totfact>
</mgrwt>
</event>
<event>
 6    1  0.5196787E-004  0.1548928E+04  0.7818608E-02  0.8852553E-01
          2   -1    0    0  501    0  0.00000000000E+00  0.00000000000E+00  0.13628182823E+04  0.13628182823E+04  0.00000000000E+00 0.  1.
         -2   -1    0    0    0  501 -0.00000000000E+00 -0.00000000000E+00 -0.44011327726E+03  0.44011327726E+03  0.00000000000E+00 0. -1.
         23    2    1    2    0    0  0.41514279899E+03  0.55231723861E+03  0.62187707987E+02  0.69935197741E+03  0.88475994849E+02 0.  0.
         11    1    3    3    0    0  0.26987853036E+03  0.34370212717E+03  0.81033972588E+02  0.44444581007E+03  0.00000000000E+00 0.  1.
        -11    1    3    3    0    0  0.14526426863E+03  0.20861511144E+03 -0.18846264601E+02  0.25490616734E+03  0.00000000000E+00 0. -1.
         22    1    1    2    0    0 -0.41514279899E+03 -0.55231723861E+03  0.86051729709E+03  0.11035795822E+04  0.00000000000E+00 0. -1.
<mgrwt>
<rscale>  0 0.15489279E+04</rscale>
<asrwt>0</asrwt>
<pdfrwt beam="1">  1        2 0.20966435E+00 0.15489279E+04</pdfrwt>
<pdfrwt beam="2">  1       -2 0.67709736E-01 0.15489279E+04</pdfrwt>
<totfact> 0.29245384E+01</totfact>
</mgrwt>
</event>
<event>
 6    1  0.5196787E-004  0.3427033E+04  0.7818608E-02  0.8131303E-01
          2   -1    0    0  501    0  0.00000000000E+00  0.00000000000E+00  0.10382667577E+04  0.10382667577E+04  0.00000000000E+00 0.  1.
         -2   -1    0    0    0  501 -0.00000000000E+00 -0.00000000000E+00 -0.28279233256E+04  0.28279233256E+04  0.00000000000E+00 0. -1.
         23    2    1    2    0    0 -0.10589462501E+03 -0.98925447840E+03 -0.24676412525E+04  0.26622377058E+04  0.91750513652E+02 0.  0.
         11    1    3    3    0    0 -0.51973655551E+02 -0.77202587919E+03 -0.19734646367E+04  0.21197376940E+04  0.00000000000E+00 0. -1.
        -11    1    3    3    0    0 -0.53920969459E+02 -0.21722859921E+03 -0.49417661573E+03  0.54250001179E+03  0.00000000000E+00 0.  1.
         22    1    1    2    0    0  0.10589462501E+03  0.98925447840E+03  0.67798468459E+03  0.12039523775E+04  0.00000000000E+00 0.  1.
<mgrwt>
<rscale>  0 0.34270330E+04</rscale>
<asrwt>0</asrwt>
<pdfrwt beam="1">  1        2 0.15973335E+00 0.34270330E+04</pdfrwt>
<pdfrwt beam="2">  1       -2 0.43506512E+00 0.34270330E+04</pdfrwt>
<totfact> 0.85687353E-02</totfact>
</mgrwt>
</event>
<event>
 6    1  0.5196787E-004  0.2281184E+04  0.7818608E-02  0.8485377E-01
         -2   -1    0    0    0  501 -0.00000000000E+00  0.00000000000E+00  0.21189318811E+04  0.21189318811E+04  0.00000000000E+00 0.  1.
          2   -1    0    0  501    0  0.00000000000E+00 -0.00000000000E+00 -0.61396524840E+03  0.61396524840E+03  0.00000000000E+00 0. -1.
         23    2    1    2    0    0 -0.62074853231E+03 -0.76199244463E+03  0.14427414023E+04  0.17480960301E+04  0.91519126822E+02 0.  0.
         11    1    3    3    0    0 -0.20638488151E+03 -0.31178815174E+03  0.59140314776E+03  0.69968868367E+03  0.00000000000E+00 0.  1.
        -11    1    3    3    0    0 -0.41436365079E+03 -0.45020429289E+03  0.85133825456E+03  0.10484073465E+04  0.00000000000E+00 0. -1.
         22    1    1    2    0    0  0.62074853231E+03  0.76199244463E+03  0.62225230400E+02  0.98480109938E+03  0.00000000000E+00 0. -1.
<mgrwt>
<rscale>  0 0.22811844E+04</rscale>
<asrwt>0</asrwt>
<pdfrwt beam="1">  1        2 0.94456193E-01 0.22811844E+04</pdfrwt>
<pdfrwt beam="2">  1       -2 0.32598952E+00 0.22811844E+04</pdfrwt>
<totfact> 0.96349711E-01</totfact>
</mgrwt>
</event>
<event>
 6    1  0.5196787E-004  0.1624124E+04  0.7818608E-02  0.8805863E-01
         -4   -1    0    0    0  501 -0.00000000000E+00  0.00000000000E+00  0.41000489549E+03  0.41000489549E+03  0.00000000000E+00 0. -1.
          4   -1    0    0  501    0  0.00000000000E+00 -0.00000000000E+00 -0.16083820636E+04  0.16083820636E+04  0.00000000000E+00 0.  1.
         23    2    1    2    0    0  0.53559368832E+03  0.55082625214E+03 -0.91786657681E+03  0.12004894405E+04  0.91791530267E+02 0.  0.
         13    1    3    3    0    0  0.32564744862E+03  0.28456220467E+03 -0.46909832043E+03  0.63802440655E+03  0.00000000000E+00 0. -1.
        -13    1    3    3    0    0  0.20994623969E+03  0.26626404747E+03 -0.44876825638E+03  0.56246503400E+03  0.00000000000E+00 0.  1.
         22    1    1    2    0    0 -0.53559368832E+03 -0.55082625214E+03 -0.28051059131E+03  0.81789751855E+03  0.00000000000E+00 0. -1.
<mgrwt>
<rscale>  0 0.16241238E+04</rscale>
<asrwt>0</asrwt>
<pdfrwt beam="1">  1        4 0.24744338E+00 0.16241238E+04</pdfrwt>
<pdfrwt beam="2">  1       -4 0.63077679E-01 0.16241238E+04</pdfrwt>
<totfact> 0.29561313E-01</totfact>
</mgrwt>
</event>
<event>
 6    1  0.5196787E-004  0.3717694E+04  0.7818608E-02  0.8064052E-01
          2   -1    0    0  501    0  0.00000000000E+00  0.00000000000E+00  0.39761134128E+04  0.39761134128E+04  0.00000000000E+00 0.  1.
         -2   -1    0    0    0  501 -0.00000000000E+00 -0.00000000000E+00 -0.86901758797E+03  0.86901758797E+03  0.00000000000E+00 0. -1.
         23    2    1    2    0    0  0.59664789865E+03 -0.13182688099E+04  0.30728523720E+04  0.33977215963E+04  0.90933908144E+02 0.  0.
         11    1    3    3    0    0  0.19155142632E+03 -0.51731766391E+03  0.11206342729E+04  0.12490519156E+04  0.00000000000E+00 0.  1.
        -11    1    3    3    0    0  0.40509647233E+03 -0.80095114598E+03  0.19522180992E+04  0.21486696807E+04  0.00000000000E+00 0. -1.
         22    1    1    2    0    0 -0.59664789865E+03  0.13182688099E+04  0.34243452803E+02  0.14474094045E+04  0.00000000000E+00 0. -1.
<mgrwt>
<rscale>  0 0.37176942E+04</rscale>
<asrwt>0</asrwt>
<pdfrwt beam="1">  1        2 0.61170974E+00 0.37176942E+04</pdfrwt>
<pdfrwt beam="2">  1       -2 0.13369502E+00 0.37176942E+04</pdfrwt>
<totfact> 0.11639845E-01</totfact>
</mgrwt>
</event>
<event>
 6    1  0.5196787E-004  0.1688156E+04  0.7818608E-02  0.8768149E-01
          2   -1    0    0  501    0  0.00000000000E+00  0.00000000000E+00  0.29388445298E+03  0.29388445298E+03  0.00000000000E+00 0.  1.
         -2   -1    0    0    0  501 -0.00000000000E+00 -0.00000000000E+00 -0.24243112737E+04  0.24243112737E+04  0.00000000000E+00 0. -1.
         23    2    1    2    0    0 -0.71053250701E+03  0.16283804296E+03 -0.39128304256E+03  0.83246145249E+03  0.92287478761E+02 0.  0.
         13    1    3    3    0    0 -0.56547147280E+03  0.16613547149E+03 -0.32338448077E+03  0.67226222848E+03  0.00000000000E+00 0. -1.
        -13    1    3    3    0    0 -0.14506103421E+03 -0.32974285263E+01 -0.67898561787E+02  0.16019922401E+03  0.00000000000E+00 0.  1.
         22    1    1    2    0    0  0.71053250701E+03 -0.16283804296E+03 -0.17391437781E+04  0.18857342742E+04  0.00000000000E+00 0. -1.
<mgrwt>
<rscale>  0 0.16881557E+04</rscale>
<asrwt>0</asrwt>
<pdfrwt beam="1">  1        2 0.45212991E-01 0.16881557E+04</pdfrwt>
<pdfrwt beam="2">  1       -2 0.37297098E+00 0.16881557E+04</pdfrwt>
<totfact> 0.11956717E+00</totfact>
</mgrwt>
</event>
<event>
 6    1  0.5196787E-004  0.2302428E+04  0.7818608E-02  0.8476964E-01
         -2   -1    0    0    0  501 -0.00000000000E+00  0.00000000000E+00  0.53495110854E+03  0.53495110854E+03  0.00000000000E+00 0. -1.
          2   -1    0    0  501    0  0.00000000000E+00 -0.00000000000E+00 -0.24774108235E+04  0.24774108235E+04  0.00000000000E+00 0.  1.
         23    2    1    2    0    0 -0.31276741070E+03  0.68236882347E+03  0.16650807112E+03  0.77379190027E+03  0.87053447595E+02 0.  0.
         11    1    3    3    0    0 -0.68792912758E+02  0.21273552544E+03  0.18963959834E+02  0.22438471517E+03  0.00000000000E+00 0. -1.
        -11    1    3    3    0    0 -0.24397449795E+03  0.46963329803E+03  0.14754411128E+03  0.54940718510E+03  0.00000000000E+00 0.  1.
         22    1    1    2    0    0  0.31276741070E+03 -0.68236882347E+03 -0.21089677861E+04  0.22385700318E+04  0.00000000000E+00 0.  1.
<mgrwt>
<rscale>  0 0.23024280E+04</rscale>
<asrwt>0</asrwt>
<pdfrwt beam="1">  1        2 0.38114012E+00 0.23024280E+04</pdfrwt>
<pdfrwt beam="2">  1       -2 0.82300172E-01 0.23024280E+04</pdfrwt>
<totfact> 0.42162258E+00</totfact>
</mgrwt>
</event>
<event>
 6    1  0.5196787E-004  0.3703790E+04  0.7818608E-02  0.8067122E-01
         -2   -1    0    0    0  501 -0.00000000000E+00  0.00000000000E+00  0.10481682660E+04  0.10481682660E+04  0.00000000000E+00 0. -1.
          2   -1    0    0  501    0  0.00000000000E+00 -0.00000000000E+00 -0.32719126373E+04  0.32719126373E+04  0.00000000000E+00 0.  1.
         23    2    1    2    0    0  0.87492551559E+03 -0.97637970620E+03  0.41120291997E+03  0.13769942216E+04  0.90627018071E+02 0.  0.
         11    1    3    3    0    0  0.50771366645E+03 -0.49896019469E+03  0.22119606710E+03  0.74542749016E+03  0.00000000000E+00 0.  1.
        -11    1    3    3    0    0  0.36721184915E+03 -0.47741951151E+03  0.19000685287E+03  0.63156673144E+03  0.00000000000E+00 0. -1.
         22    1    1    2    0    0 -0.87492551559E+03  0.97637970620E+03 -0.26349472913E+04  0.29430866818E+04  0.00000000000E+00 0.  1.
<mgrwt>
<rscale>  0 0.37037899E+04</rscale>
<asrwt>0</asrwt>
<pdfrwt beam="1">  1        2 0.50337117E+00 0.37037899E+04</pdfrwt>
<pdfrwt beam="2">  1       -2 0.16125666E+00 0.37037899E+04</pdfrwt>
<totfact> 0.23143737E-01</totfact>
</mgrwt>
</event>
<event>
 6    1  0.5196787E-004  0.1757953E+04  0.7818608E-02  0.8728985E-01
         -2   -1    0    0    0  501 -0.00000000000E+00  0.00000000000E+00  0.36126187874E+03  0.36126187874E+03  0.00000000000E+00 0. -1.
          2   -1    0    0  501    0  0.00000000000E+00 -0.00000000000E+00 -0.21386142299E+04  0.21386142299E+04  0.00000000000E+00 0.  1.
         23    2    1    2    0    0  0.44533636787E+03 -0.53536144843E+03 -0.13388029106E+03  0.71495684624E+03  0.91120791449E+02 0.  0.
         13    1    3    3    0    0  0.13661577345E+03 -0.10469610772E+03 -0.41884969078E+02  0.17714258427E+03  0.00000000000E+00 0. -1.
        -13    1    3    3    0    0  0.30872059441E+03 -0.43066534071E+03 -0.91995321982E+02  0.53781426196E+03  0.00000000000E+00 0.  1.
         22    1    1    2    0    0 -0.44533636787E+03  0.53536144843E+03 -0.16434720601E+04  0.17849192625E+04  0.00000000000E+00 0.  1.
<mgrwt>
<rscale>  0 0.17579531E+04</rscale>
<asrwt>0</asrwt>
<pdfrwt beam="1">  1        2 0.32901757E+00 0.17579531E+04</pdfrwt>
<pdfrwt beam="2">  1       -2 0.55578751E-01 0.17579531E+04</pdfrwt>
<totfact> 0.16112404E+01</totfact>
</mgrwt>
</event>
<event>
 6    1  0.5196787E-004  0.3883593E+04  0.7818608E-02  0.8028450E-01
         -2   -1    0    0    0  501 -0.00000000000E+00  0.00000000000E+00  0.17565578705E+04  0.17565578705E+04  0.00000000000E+00 0. -1.
          2   -1    0    0  501    0  0.00000000000E+00 -0.00000000000E+00 -0.21465696152E+04  0.21465696152E+04  0.00000000000E+00 0.  1.
         23    2    1    2    0    0 -0.67776454676E+03 -0.87076226147E+03  0.14093985717E+04  0.17923292520E+04  0.91913637161E+02 0.  0.
         13    1    3    3    0    0 -0.12722710745E+03 -0.18924399839E+03  0.23883792740E+03  0.33021747889E+03  0.00000000000E+00 0. -1.
        -13    1    3    3    0    0 -0.55053743931E+03 -0.68151826307E+03  0.11705606443E+04  0.14621117731E+04  0.00000000000E+00 0.  1.
         22    1    1    2    0    0  0.67776454676E+03  0.87076226147E+03 -0.17994103164E+04  0.21107982338E+04  0.00000000000E+00 0.  1.
<mgrwt>
<rscale>  0 0.38835931E+04</rscale>
<asrwt>0</asrwt>
<pdfrwt beam="1">  1        2 0.33024148E+00 0.38835931E+04</pdfrwt>
<pdfrwt beam="2">  1       -2 0.27023967E+00 0.38835931E+04</pdfrwt>
<totfact> 0.21286634E-01</totfact>
</mgrwt>
</event>
<event>
 6    1  0.5196787E-004  0.1109104E+04  0.7818608E-02  0.9196364E-01
          2   -1    0    0  501    0  0.00000000000E+00  0.00000000000E+00  0.20327035432E+04  0.20327035432E+04  0.00000000000E+00 0. -1.
         -2   -1    0    0    0  501 -0.00000000000E+00 -0.00000000000E+00 -0.15129010220E+03  0.15129010220E+03  0.00000000000E+00 0.  1.
         23    2    1    2    0    0 -0.17786226219E+03  0.25317407615E+03  0.18443885343E+04  0.18723801975E+04  0.91139682280E+02 0.  0.
         13    1    3    3    0    0  0.17886189656E+01  0.54731805962E+02  0.33173433144E+03  0.33622378916E+03  0.00000000000E+00 0. -1.
        -13    1    3    3    0    0 -0.17965088115E+03  0.19844227019E+03  0.15126542028E+04  0.15361564084E+04  0.00000000000E+00 0.  1.
         22    1    1    2    0    0  0.17786226219E+03 -0.25317407615E+03  0.37024906705E+02  0.31161344782E+03  0.00000000000E+00 0.  1.
<mgrwt>
<rscale>  0 0.11091040E+04</rscale>
<asrwt>0</asrwt>
<pdfrwt beam="1">  1        2 0.31272360E+00 0.11091040E+04</pdfrwt>
<pdfrwt beam="2">  1       -2 0.23275402E-01 0.11091040E+04</pdfrwt>
<totfact> 0.10402698E+02</totfact>
</mgrwt>
</event>
<event>
 6    1  0.5196787E-004  0.2350445E+04  0.7818608E-02  0.8458293E-01
         -2   -1    0    0    0  501 -0.00000000000E+00  0.00000000000E+00  0.49863337484E+03  0.49863337484E+03  0.00000000000E+00 0. -1.
          2   -1    0    0  501    0  0.00000000000E+00 -0.00000000000E+00 -0.27698666597E+04  0.27698666597E+04  0.00000000000E+00 0.  1.
         23    2    1    2    0    0  0.40757466232E+03 -0.10842184244E+04 -0.13987640126E+04  0.18183795816E+04  0.91196724010E+02 0.  0.
         13    1    3    3    0    0  0.34656222465E+03 -0.89200627842E+03 -0.11011025539E+04  0.14588376916E+04  0.00000000000E+00 0. -1.
        -13    1    3    3    0    0  0.61012437670E+02 -0.19221214596E+03 -0.29766145873E+03  0.35954188993E+03  0.00000000000E+00 0.  1.
         22    1    1    2    0    0 -0.40757466232E+03  0.10842184244E+04 -0.87246927221E+03  0.14501204530E+04  0.00000000000E+00 0. -1.
<mgrwt>
<rscale>  0 0.23504450E+04</rscale>
<asrwt>0</asrwt>
<pdfrwt beam="1">  1        2 0.42613333E+00 0.23504450E+04</pdfrwt>
<pdfrwt beam="2">  1       -2 0.76712827E-01 0.23504450E+04</pdfrwt>
<totfact> 0.33069151E+00</totfact>
</mgrwt>
</event>
<event>
 6    1  0.5196787E-004  0.2753026E+04  0.7818608E-02  0.8318002E-01
         -2   -1    0    0    0  501 -0.00000000000E+00  0.00000000000E+00  0.12091904549E+04  0.12091904549E+04  0.00000000000E+00 0. -1.
          2   -1    0    0  501    0  0.00000000000E+00 -0.00000000000E+00 -0.15669891612E+04  0.15669891612E+04  0.00000000000E+00 0.  1.
         23    2    1    2    0    0 -0.39096012613E+03  0.11406605662E+04 -0.84544824019E+03  0.14755034784E+04  0.91495576073E+02 0.  0.
         13    1    3    3    0    0 -0.15674096502E+03  0.36771845103E+03 -0.31913444448E+03  0.51149915249E+03  0.00000000000E+00 0. -1.
        -13    1    3    3    0    0 -0.23421916111E+03  0.77294211513E+03 -0.52631379570E+03  0.96400432588E+03  0.00000000000E+00 0.  1.
         22    1    1    2    0    0  0.39096012613E+03 -0.11406605662E+04  0.48764953392E+03  0.13006761378E+04  0.00000000000E+00 0. -1.
<mgrwt>
<rscale>  0 0.27530262E+04</rscale>
<asrwt>0</asrwt>
<pdfrwt beam="1">  1        2 0.24107526E+00 0.27530262E+04</pdfrwt>
<pdfrwt beam="2">  1       -2 0.18602930E+00 0.27530262E+04</pdfrwt>
<totfact> 0.16762303E+00</totfact>
</mgrwt>
</event>
<event>
 6    1  0.5196787E-004  0.1208970E+04  0.7818608E-02  0.9105041E-01
          2   -1    0    0  501    0  0.00000000000E+00  0.00000000000E+00  0.17656168251E+04  0.17656168251E+04  0.00000000000E+00 0. -1.
         -2   -1    0    0    0  501 -0.00000000000E+00 -0.00000000000E+00 -0.20695434310E+03  0.20695434310E+03  0.00000000000E+00 0.  1.
         23    2    1    2    0    0  0.33612466830E+03  0.31134443837E+03  0.14183329393E+04  0.14933973663E+04  0.93017283341E+02 0.  0.
         13    1    3    3    0    0  0.22037522928E+03  0.25883528888E+03  0.10613903140E+04  0.11145000436E+04  0.00000000000E+00 0.  1.
        -13    1    3    3    0    0  0.11574943903E+03  0.52509149483E+02  0.35694262526E+03  0.37889732269E+03  0.00000000000E+00 0. -1.
         22    1    1    2    0    0 -0.33612466830E+03 -0.31134443837E+03  0.14032954278E+03  0.47917380200E+03  0.00000000000E+00 0.  1.
<mgrwt>
<rscale>  0 0.12089699E+04</rscale>
<asrwt>0</asrwt>
<pdfrwt beam="1">  1        2 0.27163335E+00 0.12089699E+04</pdfrwt>
<pdfrwt beam="2">  1       -2 0.31839131E-01 0.12089699E+04</pdfrwt>
<totfact> 0.81552525E+01</totfact>
</mgrwt>
</event>
<event>
 6    1  0.5196787E-004  0.2999985E+04  0.7818608E-02  0.8243735E-01
          2   -1    0    0  501    0  0.00000000000E+00  0.00000000000E+00  0.27184888795E+04  0.27184888795E+04  0.00000000000E+00 0.  1.
         -2   -1    0    0    0  501 -0.00000000000E+00 -0.00000000000E+00 -0.82765748162E+03  0.82765748162E+03  0.00000000000E+00 0. -1.
         23    2    1    2    0    0  0.12852035662E+04  0.57764589079E+03  0.34294433116E+03  0.14529723710E+04  0.89971745043E+02 0.  0.
         11    1    3    3    0    0  0.47037585262E+03  0.22746151500E+03  0.85184411125E+02  0.52938508425E+03  0.00000000000E+00 0.  1.
        -11    1    3    3    0    0  0.81482771357E+03  0.35018437579E+03  0.25775992004E+03  0.92358728674E+03  0.00000000000E+00 0. -1.
         22    1    1    2    0    0 -0.12852035662E+04 -0.57764589079E+03  0.15478870667E+04  0.20931739902E+04  0.00000000000E+00 0.  1.
<mgrwt>
<rscale>  0 0.29999851E+04</rscale>
<asrwt>0</asrwt>
<pdfrwt beam="1">  1        2 0.41822905E+00 0.29999851E+04</pdfrwt>
<pdfrwt beam="2">  1       -2 0.12733192E+00 0.29999851E+04</pdfrwt>
<totfact> 0.10138860E+00</totfact>
</mgrwt>
</event>
<event>
 6    1  0.5196787E-004  0.5605426E+03  0.7818608E-02  0.9990828E-01
         -2   -1    0    0    0  501 -0.00000000000E+00  0.00000000000E+00  0.16237797304E+03  0.16237797304E+03  0.00000000000E+00 0. -1.
          2   -1    0    0  501    0  0.00000000000E+00 -0.00000000000E+00 -0.48376019219E+03  0.48376019219E+03  0.00000000000E+00 0.  1.
         23    2    1    2    0    0 -0.31376361183E+02 -0.18056170517E+03  0.68055443123E+02  0.21573289317E+03  0.91225722475E+02 0.  0.
         11    1    3    3    0    0  0.17611790186E+02 -0.11768014787E+03  0.14891718330E+02  0.11991895443E+03  0.00000000000E+00 0. -1.
        -11    1    3    3    0    0 -0.48988151369E+02 -0.62881557302E+02  0.53163724794E+02  0.95813938742E+02  0.00000000000E+00 0.  1.
         22    1    1    2    0    0  0.31376361183E+02  0.18056170517E+03 -0.38943766227E+03  0.43040527205E+03  0.00000000000E+00 0.  1.
<mgrwt>
<rscale>  0 0.56054259E+03</rscale>
<asrwt>0</asrwt>
<pdfrwt beam="1">  1        2 0.74424644E-01 0.56054259E+03</pdfrwt>
<pdfrwt beam="2">  1       -2 0.24981227E-01 0.56054259E+03</pdfrwt>
<totfact> 0.92163169E+02</totfact>
</mgrwt>
</event>
<event>
 6    1  0.5196787E-004  0.2153654E+04  0.7818608E-02  0.8537970E-01
         -2   -1    0    0    0  501 -0.00000000000E+00  0.00000000000E+00  0.20763269730E+04  0.20763269730E+04  0.00000000000E+00 0. -1.
          2   -1    0    0  501    0  0.00000000000E+00 -0.00000000000E+00 -0.55846545696E+03  0.55846545696E+03  0.00000000000E+00 0.  1.
         23    2    1    2    0    0  0.41752270218E+03  0.38172129505E+03 -0.35778559398E+03  0.67568844209E+03  0.92238742363E+02 0.  0.
         11    1    3    3    0    0  0.23387288565E+03  0.26760253653E+03 -0.19795818838E+03  0.40681087565E+03  0.00000000000E+00 0.  1.
        -11    1    3    3    0    0  0.18364981653E+03  0.11411875851E+03 -0.15982740560E+03  0.26887756644E+03  0.00000000000E+00 0. -1.
         22    1    1    2    0    0 -0.41752270218E+03 -0.38172129505E+03  0.18756471100E+04  0.19591039878E+04  0.00000000000E+00 0. -1.
<mgrwt>
<rscale>  0 0.21536545E+04</rscale>
<asrwt>0</asrwt>
<pdfrwt beam="1">  1        2 0.85917764E-01 0.21536545E+04</pdfrwt>
<pdfrwt beam="2">  1       -2 0.31943491E+00 0.21536545E+04</pdfrwt>
<totfact> 0.11985270E+00</totfact>
</mgrwt>
</event>
<event>
 6    1  0.5196787E-004  0.8464138E+04  0.7818608E-02  0.7442797E-01
          1   -1    0    0  501    0  0.00000000000E+00  0.00000000000E+00  0.31442198169E+04  0.31442198169E+04  0.00000000000E+00 0. -1.
         -1   -1    0    0    0  501 -0.00000000000E+00 -0.00000000000E+00 -0.56962961642E+04  0.56962961642E+04  0.00000000000E+00 0.  1.
         23    2    1    2    0    0 -0.24784599235E+04  0.25345278954E+04 -0.36896921064E+04  0.51175111651E+04  0.92181562537E+02 0.  0.
         11    1    3    3    0    0 -0.18723384196E+04  0.18700946149E+04 -0.27899542672E+04  0.38453543192E+04  0.00000000000E+00 0.  1.
        -11    1    3    3    0    0 -0.60612150383E+03  0.66443328041E+03 -0.89973783911E+03  0.12721568459E+04  0.00000000000E+00 0. -1.
         22    1    1    2    0    0  0.24784599235E+04 -0.25345278954E+04  0.11376157591E+04  0.37230048160E+04  0.00000000000E+00 0. -1.
<mgrwt>
<rscale>  0 0.84641378E+04</rscale>
<asrwt>0</asrwt>
<pdfrwt beam="1">  1        1 0.48372613E+00 0.84641378E+04</pdfrwt>
<pdfrwt beam="2">  1       -1 0.87635324E+00 0.84641378E+04</pdfrwt>
<totfact> 0.41163593E-06</totfact>
</mgrwt>
</event>
<event>
 6    1  0.5196787E-004  0.3932086E+04  0.7818608E-02  0.8018389E-01
         -2   -1    0    0    0  501 -0.00000000000E+00  0.00000000000E+00  0.14821767884E+04  0.14821767884E+04  0.00000000000E+00 0. -1.
          2   -1    0    0  501    0  0.00000000000E+00 -0.00000000000E+00 -0.26078702538E+04  0.26078702538E+04  0.00000000000E+00 0.  1.
         23    2    1    2    0    0 -0.44138589807E+02  0.10317453747E+04  0.11757211739E+04  0.15675569876E+04  0.92021178329E+02 0.  0.
         11    1    3    3    0    0 -0.57204330248E+02  0.84236598514E+03  0.91461046252E+03  0.12447349463E+04  0.00000000000E+00 0. -1.
        -11    1    3    3    0    0  0.13065740442E+02  0.18937938958E+03  0.26111071140E+03  0.32282204134E+03  0.00000000000E+00 0.  1.
         22    1    1    2    0    0  0.44138589807E+02 -0.10317453747E+04 -0.23014146393E+04  0.25224900546E+04  0.00000000000E+00 0.  1.
<mgrwt>
<rscale>  0 0.39320858E+04</rscale>
<asrwt>0</asrwt>
<pdfrwt beam="1">  1        2 0.40121080E+00 0.39320858E+04</pdfrwt>
<pdfrwt beam="2">  1       -2 0.22802720E+00 0.39320858E+04</pdfrwt>
<totfact> 0.21008060E-01</totfact>
</mgrwt>
</event>
<event>
 6    1  0.5196787E-004  0.8262847E+03  0.7818608E-02  0.9522731E-01
          2   -1    0    0  501    0  0.00000000000E+00  0.00000000000E+00  0.13532167119E+04  0.13532167119E+04  0.00000000000E+00 0.  1.
         -2   -1    0    0    0  501 -0.00000000000E+00 -0.00000000000E+00 -0.12613397961E+03  0.12613397961E+03  0.00000000000E+00 0. -1.
         23    2    1    2    0    0 -0.68636791707E+02 -0.38230916973E+03  0.84749757934E+03  0.93625199076E+03  0.86280546868E+02 0.  0.
         11    1    3    3    0    0 -0.87558281169E+02 -0.27864697951E+03  0.60306161355E+03  0.67007007211E+03  0.00000000000E+00 0. -1.
        -11    1    3    3    0    0  0.18921489462E+02 -0.10366219022E+03  0.24443596579E+03  0.26618191865E+03  0.00000000000E+00 0.  1.
         22    1    1    2    0    0  0.68636791707E+02  0.38230916973E+03  0.37958515300E+03  0.54309870080E+03  0.00000000000E+00 0. -1.
<mgrwt>
<rscale>  0 0.82628472E+03</rscale>
<asrwt>0</asrwt>
<pdfrwt beam="1">  1        2 0.20818718E+00 0.82628472E+03</pdfrwt>
<pdfrwt beam="2">  1       -2 0.19405229E-01 0.82628472E+03</pdfrwt>
<totfact> 0.34861526E+02</totfact>
</mgrwt>
</event>
<event>
 6    1  0.5196787E-004  0.2793390E+04  0.7818608E-02  0.8305323E-01
         -2   -1    0    0    0  501 -0.00000000000E+00  0.00000000000E+00  0.22408630312E+04  0.22408630312E+04  0.00000000000E+00 0. -1.
          2   -1    0    0  501    0  0.00000000000E+00 -0.00000000000E+00 -0.87053824539E+03  0.87053824539E+03  0.00000000000E+00 0.  1.
         23    2    1    2    0    0 -0.91555519237E+03 -0.27580842269E+03 -0.44591060135E+03  0.10588363987E+04  0.89368107074E+02 0.  0.
         13    1    3    3    0    0 -0.40410981326E+03 -0.10139179546E+03 -0.23821051874E+03  0.47992633664E+03  0.00000000000E+00 0. -1.
        -13    1    3    3    0    0 -0.51144537910E+03 -0.17441662724E+03 -0.20770008261E+03  0.57891006208E+03  0.00000000000E+00 0.  1.
         22    1    1    2    0    0  0.91555519237E+03  0.27580842269E+03  0.18162353871E+04  0.20525648779E+04  0.00000000000E+00 0. -1.
<mgrwt>
<rscale>  0 0.27933900E+04</rscale>
<asrwt>0</asrwt>
<pdfrwt beam="1">  1        2 0.13392896E+00 0.27933900E+04</pdfrwt>
<pdfrwt beam="2">  1       -2 0.34474816E+00 0.27933900E+04</pdfrwt>
<totfact> 0.44892553E-01</totfact>
</mgrwt>
</event>
<event>
 6    1  0.5196787E-004  0.7045403E+03  0.7818608E-02  0.9709499E-01
          2   -1    0    0  501    0  0.00000000000E+00  0.00000000000E+00  0.17914177979E+03  0.17914177979E+03  0.00000000000E+00 0.  1.
         -2   -1    0    0    0  501 -0.00000000000E+00 -0.00000000000E+00 -0.69271533930E+03  0.69271533930E+03  0.00000000000E+00 0. -1.
         23    2    1    2    0    0  0.24349274480E+03 -0.44586603308E+02  0.37365790263E+02  0.26786138310E+03  0.95272432063E+02 0.  0.
         13    1    3    3    0    0  0.75495796412E+02 -0.68409783678E+01  0.56601439889E+02  0.94605165072E+02  0.00000000000E+00 0. -1.
        -13    1    3    3    0    0  0.16799694839E+03 -0.37745624940E+02 -0.19235649626E+02  0.17325621803E+03  0.00000000000E+00 0.  1.
         22    1    1    2    0    0 -0.24349274480E+03  0.44586603308E+02 -0.55093934977E+03  0.60399573599E+03  0.00000000000E+00 0. -1.
<mgrwt>
<rscale>  0 0.70454030E+03</rscale>
<asrwt>0</asrwt>
<pdfrwt beam="1">  1        2 0.27560274E-01 0.70454030E+03</pdfrwt>
<pdfrwt beam="2">  1       -2 0.10657159E+00 0.70454030E+03</pdfrwt>
<totfact> 0.14044976E+02</totfact>
</mgrwt>
</event>
<event>
 6    1  0.5196787E-004  0.2365551E+04  0.7818608E-02  0.8452515E-01
          2   -1    0    0  501    0  0.00000000000E+00  0.00000000000E+00  0.12005786169E+04  0.12005786169E+04  0.00000000000E+00 0.  1.
         -2   -1    0    0    0  501 -0.00000000000E+00 -0.00000000000E+00 -0.11652361171E+04  0.11652361171E+04  0.00000000000E+00 0. -1.
         23    2    1    2    0    0  0.74684468156E+03  0.39172288180E+03 -0.80907299788E+03  0.11723905314E+04  0.93148525363E+02 0.  0.
         13    1    3    3    0    0  0.24657779669E+03  0.93099094912E+02 -0.29265715082E+03  0.39384801538E+03  0.00000000000E+00 0.  1.
        -13    1    3    3    0    0  0.50026688487E+03  0.29862378689E+03 -0.51641584706E+03  0.77854251605E+03  0.00000000000E+00 0. -1.
         22    1    1    2    0    0 -0.74684468156E+03 -0.39172288180E+03  0.84441549764E+03  0.11934242025E+04  0.00000000000E+00 0.  1.
<mgrwt>
<rscale>  0 0.23655507E+04</rscale>
<asrwt>0</asrwt>
<pdfrwt beam="1">  1        2 0.18470440E+00 0.23655507E+04</pdfrwt>
<pdfrwt beam="2">  1       -2 0.17926709E+00 0.23655507E+04</pdfrwt>
<totfact> 0.31310403E+00</totfact>
</mgrwt>
</event>
<event>
 6    1  0.5196787E-004  0.2069854E+04  0.7818608E-02  0.8574640E-01
          2   -1    0    0  501    0  0.00000000000E+00  0.00000000000E+00  0.26363657250E+04  0.26363657250E+04  0.00000000000E+00 0.  1.
         -2   -1    0    0    0  501 -0.00000000000E+00 -0.00000000000E+00 -0.40626918732E+03  0.40626918732E+03  0.00000000000E+00 0. -1.
         23    2    1    2    0    0 -0.37885985857E+03 -0.34496029404E+03 -0.20112565409E+03  0.55800742662E+03  0.91588004283E+02 0.  0.
         13    1    3    3    0    0 -0.16001616096E+02 -0.43077287162E+02 -0.28609856615E+01  0.46042259131E+02  0.00000000000E+00 0.  1.
        -13    1    3    3    0    0 -0.36285824248E+03 -0.30188300687E+03 -0.19826466843E+03  0.51196516749E+03  0.00000000000E+00 0. -1.
         22    1    1    2    0    0  0.37885985857E+03  0.34496029404E+03  0.24312221918E+04  0.24846274857E+04  0.00000000000E+00 0.  1.
<mgrwt>
<rscale>  0 0.20698543E+04</rscale>
<asrwt>0</asrwt>
<pdfrwt beam="1">  1        2 0.40559472E+00 0.20698543E+04</pdfrwt>
<pdfrwt beam="2">  1       -2 0.62502954E-01 0.20698543E+04</pdfrwt>
<totfact> 0.63584156E+00</totfact>
</mgrwt>
</event>
<event>
 6    1  0.5196787E-004  0.3675895E+04  0.7818608E-02  0.8073325E-01
         -2   -1    0    0    0  501 -0.00000000000E+00  0.00000000000E+00  0.10957884165E+04  0.10957884165E+04  0.00000000000E+00 0. -1.
          2   -1    0    0  501    0  0.00000000000E+00 -0.00000000000E+00 -0.30827576268E+04  0.30827576268E+04  0.00000000000E+00 0.  1.
         23    2    1    2    0    0 -0.25531963902E+03 -0.92379865826E+03  0.78716201671E+03  0.12435168878E+04  0.90100669581E+02 0.  0.
         13    1    3    3    0    0 -0.17251606288E+03 -0.47917679538E+03  0.44660148305E+03  0.67736628041E+03  0.00000000000E+00 0.  1.
        -13    1    3    3    0    0 -0.82803576145E+02 -0.44462186288E+03  0.34056053366E+03  0.56615060740E+03  0.00000000000E+00 0. -1.
         22    1    1    2    0    0  0.25531963902E+03  0.92379865826E+03 -0.27741312269E+04  0.29350291555E+04  0.00000000000E+00 0.  1.
<mgrwt>
<rscale>  0 0.36758945E+04</rscale>
<asrwt>0</asrwt>
<pdfrwt beam="1">  1        2 0.47427041E+00 0.36758945E+04</pdfrwt>
<pdfrwt beam="2">  1       -2 0.16858283E+00 0.36758945E+04</pdfrwt>
<totfact> 0.27251954E-01</totfact>
</mgrwt>
</event>
<event>
 6    1  0.5196787E-004  0.3031576E+04  0.7818608E-02  0.8234771E-01
          2   -1    0    0  501    0  0.00000000000E+00  0.00000000000E+00  0.14202589145E+04  0.14202589145E+04  0.00000000000E+00 0.  1.
         -2   -1    0    0    0  501 -0.00000000000E+00 -0.00000000000E+00 -0.16177423418E+04  0.16177423418E+04  0.00000000000E+00 0. -1.
         23    2    1    2    0    0  0.69152908716E+03 -0.38892746415E+03 -0.13916308609E+04  0.16043119093E+04  0.87767867694E+02 0.  0.
         13    1    3    3    0    0  0.37882195975E+03 -0.22600055363E+03 -0.85720218560E+03  0.96404248580E+03  0.00000000000E+00 0.  1.
        -13    1    3    3    0    0  0.31270712741E+03 -0.16292691052E+03 -0.53442867530E+03  0.64026942352E+03  0.00000000000E+00 0. -1.
         22    1    1    2    0    0 -0.69152908716E+03  0.38892746415E+03  0.11941474336E+04  0.14336893471E+04  0.00000000000E+00 0.  1.
<mgrwt>
<rscale>  0 0.30315758E+04</rscale>
<asrwt>0</asrwt>
<pdfrwt beam="1">  1        2 0.21850137E+00 0.30315758E+04</pdfrwt>
<pdfrwt beam="2">  1       -2 0.24888344E+00 0.30315758E+04</pdfrwt>
<totfact> 0.78539864E-01</totfact>
</mgrwt>
</event>
<event>
 6    1  0.5196787E-004  0.1782615E+04  0.7818608E-02  0.8715600E-01
         -2   -1    0    0    0  501 -0.00000000000E+00  0.00000000000E+00  0.61508855612E+03  0.61508855612E+03  0.00000000000E+00 0. -1.
          2   -1    0    0  501    0  0.00000000000E+00 -0.00000000000E+00 -0.12915682071E+04  0.12915682071E+04  0.00000000000E+00 0.  1.
         23    2    1    2    0    0 -0.67346262615E+03 -0.44209788420E+03  0.62891038422E+02  0.81318913024E+03  0.91207624578E+02 0.  0.
         11    1    3    3    0    0 -0.35974766689E+03 -0.22994634281E+03  0.78666644219E+02  0.43414530438E+03  0.00000000000E+00 0.  1.
        -11    1    3    3    0    0 -0.31371495927E+03 -0.21215154139E+03 -0.15775605797E+02  0.37904382586E+03  0.00000000000E+00 0. -1.
         22    1    1    2    0    0  0.67346262615E+03  0.44209788420E+03 -0.73937068941E+03  0.10934676330E+04  0.00000000000E+00 0.  1.
<mgrwt>
<rscale>  0 0.17826147E+04</rscale>
<asrwt>0</asrwt>
<pdfrwt beam="1">  1        2 0.19870280E+00 0.17826147E+04</pdfrwt>
<pdfrwt beam="2">  1       -2 0.94629010E-01 0.17826147E+04</pdfrwt>
<totfact> 0.14869528E+01</totfact>
</mgrwt>
</event>
<event>
 6    1  0.5196787E-004  0.4424335E+04  0.7818608E-02  0.7924019E-01
          2   -1    0    0  501    0  0.00000000000E+00  0.00000000000E+00  0.31645547404E+04  0.31645547404E+04  0.00000000000E+00 0.  1.
         -2   -1    0    0    0  501 -0.00000000000E+00 -0.00000000000E+00 -0.15464056790E+04  0.15464056790E+04  0.00000000000E+00 0. -1.
         23    2    1    2    0    0 -0.98862905710E+03 -0.15622281692E+04 -0.48224454406E+03  0.19128186140E+04  0.91493085451E+02 0.  0.
         11    1    3    3    0    0 -0.51122433218E+03 -0.72258878588E+03 -0.22722162389E+03  0.91384601419E+03  0.00000000000E+00 0.  1.
        -11    1    3    3    0    0 -0.47740472492E+03 -0.83963938328E+03 -0.25502292017E+03  0.99897259979E+03  0.00000000000E+00 0. -1.
         22    1    1    2    0    0  0.98862905710E+03  0.15622281692E+04  0.21003936055E+04  0.27981418054E+04  0.00000000000E+00 0.  1.
<mgrwt>
<rscale>  0 0.44243352E+04</rscale>
<asrwt>0</asrwt>
<pdfrwt beam="1">  1        2 0.48685458E+00 0.44243352E+04</pdfrwt>
<pdfrwt beam="2">  1       -2 0.23790857E+00 0.44243352E+04</pdfrwt>
<totfact> 0.79493996E-02</totfact>
</mgrwt>
</event>
<event>
 6    1  0.5196787E-004  0.2545167E+04  0.7818608E-02  0.8387069E-01
         -2   -1    0    0    0  501 -0.00000000000E+00  0.00000000000E+00  0.11542865743E+04  0.11542865743E+04  0.00000000000E+00 0. -1.
          2   -1    0    0  501    0  0.00000000000E+00 -0.00000000000E+00 -0.14030039787E+04  0.14030039787E+04  0.00000000000E+00 0.  1.
         23    2    1    2    0    0 -0.79533248925E+03  0.95925407577E+03 -0.37592813370E+03  0.13047312850E+04  0.90992384067E+02 0.  0.
         13    1    3    3    0    0 -0.71897507647E+02  0.13031594495E+03 -0.34992689637E+02  0.15289207122E+03  0.00000000000E+00 0.  1.
        -13    1    3    3    0    0 -0.72343498161E+03  0.82893813082E+03 -0.34093544406E+03  0.11518392138E+04  0.00000000000E+00 0. -1.
         22    1    1    2    0    0  0.79533248925E+03 -0.95925407577E+03  0.12721072923E+03  0.12525592680E+04  0.00000000000E+00 0. -1.
<mgrwt>
<rscale>  0 0.25451669E+04</rscale>
<asrwt>0</asrwt>
<pdfrwt beam="1">  1        2 0.21584677E+00 0.25451669E+04</pdfrwt>
<pdfrwt beam="2">  1       -2 0.17758255E+00 0.25451669E+04</pdfrwt>
<totfact> 0.24140920E+00</totfact>
</mgrwt>
</event>
<event>
 6    1  0.5196787E-004  0.2991929E+04  0.7818608E-02  0.8246039E-01
         -2   -1    0    0    0  501 -0.00000000000E+00  0.00000000000E+00  0.73846070660E+03  0.73846070660E+03  0.00000000000E+00 0. -1.
          2   -1    0    0  501    0  0.00000000000E+00 -0.00000000000E+00 -0.30305058549E+04  0.30305058549E+04  0.00000000000E+00 0.  1.
         23    2    1    2    0    0 -0.34344255263E+03 -0.76860367449E+03  0.40855028202E+03  0.94020003284E+03  0.91424140254E+02 0.  0.
         13    1    3    3    0    0 -0.82163041118E+02 -0.23805709807E+03  0.83234675983E+02  0.26523566606E+03  0.00000000000E+00 0. -1.
        -13    1    3    3    0    0 -0.26127951151E+03 -0.53054657642E+03  0.32531560604E+03  0.67496436678E+03  0.00000000000E+00 0.  1.
         22    1    1    2    0    0  0.34344255263E+03  0.76860367449E+03 -0.27005954303E+04  0.28287665286E+04  0.00000000000E+00 0.  1.
<mgrwt>
<rscale>  0 0.29919288E+04</rscale>
<asrwt>0</asrwt>
<pdfrwt beam="1">  1        2 0.46623166E+00 0.29919288E+04</pdfrwt>
<pdfrwt beam="2">  1       -2 0.11360934E+00 0.29919288E+04</pdfrwt>
<totfact> 0.86623777E-01</totfact>
</mgrwt>
</event>
<event>
 6    1  0.5196787E-004  0.2322637E+04  0.7818608E-02  0.8469049E-01
         -2   -1    0    0    0  501 -0.00000000000E+00  0.00000000000E+00  0.12689621033E+04  0.12689621033E+04  0.00000000000E+00 0. -1.
          2   -1    0    0  501    0  0.00000000000E+00 -0.00000000000E+00 -0.10628057826E+04  0.10628057826E+04  0.00000000000E+00 0.  1.
         23    2    1    2    0    0 -0.88554519048E+03 -0.72938720763E+03  0.27221422247E+03  0.11826118349E+04  0.90962553751E+02 0.  0.
         11    1    3    3    0    0 -0.24338123291E+03 -0.15144586780E+03  0.78797569808E+02  0.29728661661E+03  0.00000000000E+00 0. -1.
        -11    1    3    3    0    0 -0.64216395757E+03 -0.57794133983E+03  0.19341665266E+03  0.88532521833E+03  0.00000000000E+00 0.  1.
         22    1    1    2    0    0  0.88554519048E+03  0.72938720763E+03 -0.66057901707E+02  0.11491560509E+04  0.00000000000E+00 0. -1.
<mgrwt>
<rscale>  0 0.23226367E+04</rscale>
<asrwt>0</asrwt>
<pdfrwt beam="1">  1        2 0.16350858E+00 0.23226367E+04</pdfrwt>
<pdfrwt beam="2">  1       -2 0.19522494E+00 0.23226367E+04</pdfrwt>
<totfact> 0.29736473E+00</totfact>
</mgrwt>
</event>
<event>
 6    1  0.5196787E-004  0.4633622E+04  0.7818608E-02  0.7887652E-01
          2   -1    0    0  501    0  0.00000000000E+00  0.00000000000E+00  0.17516728398E+04  0.17516728398E+04  0.00000000000E+00 0.  1.
         -2   -1    0    0    0  501 -0.00000000000E+00 -0.00000000000E+00 -0.30642778698E+04  0.30642778698E+04  0.00000000000E+00 0. -1.
         23    2    1    2    0    0  0.20205009528E+04 -0.83707762319E+03 -0.14483208386E+04  0.26247086353E+04  0.91318788491E+02 0.  0.
         13    1    3    3    0    0  0.13120709842E+04 -0.58893589339E+03 -0.93830943914E+03  0.17172071388E+04  0.00000000000E+00 0. -1.
        -13    1    3    3    0    0  0.70842996865E+03 -0.24814172981E+03 -0.51001139950E+03  0.90750149651E+03  0.00000000000E+00 0.  1.
         22    1    1    2    0    0 -0.20205009528E+04  0.83707762319E+03  0.13571580861E+03  0.21912420743E+04  0.00000000000E+00 0.  1.
<mgrwt>
<rscale>  0 0.46336216E+04</rscale>
<asrwt>0</asrwt>
<pdfrwt beam="1">  1        2 0.26948813E+00 0.46336216E+04</pdfrwt>
<pdfrwt beam="2">  1       -2 0.47142736E+00 0.46336216E+04</pdfrwt>
<totfact> 0.17316574E-02</totfact>
</mgrwt>
</event>
<event>
 6    1  0.5196787E-004  0.2265911E+04  0.7818608E-02  0.8491484E-01
         -2   -1    0    0    0  501 -0.00000000000E+00  0.00000000000E+00  0.13932973236E+04  0.13932973236E+04  0.00000000000E+00 0. -1.
          2   -1    0    0  501    0  0.00000000000E+00 -0.00000000000E+00 -0.92125961917E+03  0.92125961917E+03  0.00000000000E+00 0.  1.
         23    2    1    2    0    0  0.55036961698E+03 -0.92198001344E+03 -0.12681723366E+03  0.10850931990E+04  0.91601196718E+02 0.  0.
         13    1    3    3    0    0  0.31255879133E+03 -0.60951209984E+03 -0.82370901675E+02  0.68991518561E+03  0.00000000000E+00 0.  1.
        -13    1    3    3    0    0  0.23781082564E+03 -0.31246791360E+03 -0.44446331981E+02  0.39517801337E+03  0.00000000000E+00 0. -1.
         22    1    1    2    0    0 -0.55036961698E+03  0.92198001344E+03  0.59885493812E+03  0.12294637438E+04  0.00000000000E+00 0. -1.
<mgrwt>
<rscale>  0 0.22659114E+04</rscale>
<asrwt>0</asrwt>
<pdfrwt beam="1">  1        2 0.14173225E+00 0.22659114E+04</pdfrwt>
<pdfrwt beam="2">  1       -2 0.21435343E+00 0.22659114E+04</pdfrwt>
<totfact> 0.27684815E+00</totfact>
</mgrwt>
</event>
<event>
 6    1  0.5196787E-004  0.1451706E+04  0.7818608E-02  0.8917219E-01
         -2   -1    0    0    0  501 -0.00000000000E+00  0.00000000000E+00  0.10379844858E+04  0.10379844858E+04  0.00000000000E+00 0. -1.
          2   -1    0    0  501    0  0.00000000000E+00 -0.00000000000E+00 -0.50758198491E+03  0.50758198491E+03  0.00000000000E+00 0.  1.
         23    2    1    2    0    0 -0.40155252888E+03  0.58086492445E+03  0.10178465907E+03  0.71951456664E+03  0.93234118691E+02 0.  0.
         13    1    3    3    0    0 -0.15402644836E+03  0.20882706623E+03 -0.70996208495E+01  0.25958292510E+03  0.00000000000E+00 0. -1.
        -13    1    3    3    0    0 -0.24752608052E+03  0.37203785821E+03  0.10888427992E+03  0.45993164155E+03  0.00000000000E+00 0.  1.
         22    1    1    2    0    0  0.40155252888E+03 -0.58086492445E+03  0.42861784183E+03  0.82605190408E+03  0.00000000000E+00 0. -1.
<mgrwt>
<rscale>  0 0.14517055E+04</rscale>
<asrwt>0</asrwt>
<pdfrwt beam="1">  1        2 0.78089536E-01 0.14517055E+04</pdfrwt>
<pdfrwt beam="2">  1       -2 0.15968992E+00 0.14517055E+04</pdfrwt>
<totfact> 0.14842619E+01</totfact>
</mgrwt>
</event>
<event>
 6    1  0.5196787E-004  0.1780816E+04  0.7818608E-02  0.8716568E-01
          2   -1    0    0  501    0  0.00000000000E+00  0.00000000000E+00  0.13483903348E+04  0.13483903348E+04  0.00000000000E+00 0.  1.
         -2   -1    0    0    0  501 -0.00000000000E+00 -0.00000000000E+00 -0.58797994551E+03  0.58797994551E+03  0.00000000000E+00 0. -1.
         23    2    1    2    0    0  0.52065367191E+03 -0.49980325748E+03 -0.18146684003E+03  0.74977167194E+03  0.91344423774E+02 0.  0.
         13    1    3    3    0    0  0.24172852589E+03 -0.28073235259E+03 -0.62622660591E+02  0.37571921915E+03  0.00000000000E+00 0. -1.
        -13    1    3    3    0    0  0.27892514602E+03 -0.21907090488E+03 -0.11884417944E+03  0.37405245279E+03  0.00000000000E+00 0.  1.
         22    1    1    2    0    0 -0.52065367191E+03  0.49980325748E+03  0.94187722928E+03  0.11865986083E+04  0.00000000000E+00 0.  1.
<mgrwt>
<rscale>  0 0.17808161E+04</rscale>
<asrwt>0</asrwt>
<pdfrwt beam="1">  1        2 0.20744467E+00 0.17808161E+04</pdfrwt>
<pdfrwt beam="2">  1       -2 0.90458453E-01 0.17808161E+04</pdfrwt>
<totfact> 0.15303961E+01</totfact>
</mgrwt>
</event>
<event>
 6    1  0.5196787E-004  0.2329896E+04  0.7818608E-02  0.8466226E-01
         -2   -1    0    0    0  501 -0.00000000000E+00  0.00000000000E+00  0.49209882909E+03  0.49209882909E+03  0.00000000000E+00 0. -1.
          2   -1    0    0  501    0  0.00000000000E+00 -0.00000000000E+00 -0.27577869932E+04  0.27577869932E+04  0.00000000000E+00 0.  1.
         23    2    1    2    0    0  0.66146754854E+03 -0.93206143680E+03 -0.83327617273E+03  0.14173788093E+04  0.91299885947E+02 0.  0.
         11    1    3    3    0    0  0.24224603692E+03 -0.32918427326E+03 -0.24528478758E+03  0.47666555905E+03  0.00000000000E+00 0. -1.
        -11    1    3    3    0    0  0.41922151162E+03 -0.60287716355E+03 -0.58799138515E+03  0.94071325022E+03  0.00000000000E+00 0.  1.
         22    1    1    2    0    0 -0.66146754854E+03  0.93206143680E+03 -0.14324119914E+04  0.18325070130E+04  0.00000000000E+00 0.  1.
<mgrwt>
<rscale>  0 0.23298959E+04</rscale>
<asrwt>0</asrwt>
<pdfrwt beam="1">  1        2 0.42427493E+00 0.23298959E+04</pdfrwt>
<pdfrwt beam="2">  1       -2 0.75707511E-01 0.23298959E+04</pdfrwt>
<totfact> 0.34689392E+00</totfact>
</mgrwt>
</event>
<event>
 6    1  0.5196787E-004  0.5903864E+04  0.7818608E-02  0.7702437E-01
          2   -1    0    0  501    0  0.00000000000E+00  0.00000000000E+00  0.41845611325E+04  0.41845611325E+04  0.00000000000E+00 0.  1.
         -2   -1    0    0    0  501 -0.00000000000E+00 -0.00000000000E+00 -0.20823931002E+04  0.20823931002E+04  0.00000000000E+00 0. -1.
         23    2    1    2    0    0 -0.74799738573E+03 -0.20527749509E+03  0.40738222990E+04  0.41482141622E+04  0.10006834230E+03 0.  0.
         11    1    3    3    0    0 -0.67724981310E+03 -0.17367679486E+03  0.37928921433E+04  0.38567942321E+04  0.00000000000E+00 0. -1.
        -11    1    3    3    0    0 -0.70747572633E+02 -0.31600700224E+02  0.28093015571E+03  0.29141993013E+03  0.00000000000E+00 0.  1.
         22    1    1    2    0    0  0.74799738573E+03  0.20527749509E+03 -0.19716542666E+04  0.21187400704E+04  0.00000000000E+00 0. -1.
<mgrwt>
<rscale>  0 0.59038636E+04</rscale>
<asrwt>0</asrwt>
<pdfrwt beam="1">  1        2 0.64377863E+00 0.59038636E+04</pdfrwt>
<pdfrwt beam="2">  1       -2 0.32036817E+00 0.59038636E+04</pdfrwt>
<totfact> 0.38452273E-03</totfact>
</mgrwt>
</event>
<event>
 6    1  0.5196787E-004  0.1116957E+04  0.7818608E-02  0.9188820E-01
         -2   -1    0    0    0  501 -0.00000000000E+00  0.00000000000E+00  0.53750253236E+03  0.53750253236E+03  0.00000000000E+00 0. -1.
          2   -1    0    0  501    0  0.00000000000E+00 -0.00000000000E+00 -0.58027326901E+03  0.58027326901E+03  0.00000000000E+00 0.  1.
         23    2    1    2    0    0 -0.49225818894E+03 -0.20102710443E+03 -0.17481576135E+03  0.56990181053E+03  0.10722640507E+03 0.  0.
         11    1    3    3    0    0 -0.29889841034E+03 -0.16686574010E+03 -0.14298596050E+03  0.37098439296E+03  0.00000000000E+00 0. -1.
        -11    1    3    3    0    0 -0.19335977859E+03 -0.34161364333E+02 -0.31829800855E+02  0.19891741757E+03  0.00000000000E+00 0.  1.
         22    1    1    2    0    0  0.49225818894E+03  0.20102710443E+03  0.13204502469E+03  0.54787399084E+03  0.00000000000E+00 0. -1.
<mgrwt>
<rscale>  0 0.11169572E+04</rscale>
<asrwt>0</asrwt>
<pdfrwt beam="1">  1        2 0.89272811E-01 0.11169572E+04</pdfrwt>
<pdfrwt beam="2">  1       -2 0.82692697E-01 0.11169572E+04</pdfrwt>
<totfact> 0.65735248E+01</totfact>
</mgrwt>
</event>
<event>
 6    1  0.5196787E-004  0.4202886E+04  0.7818608E-02  0.7964823E-01
         -2   -1    0    0    0  501 -0.00000000000E+00  0.00000000000E+00  0.13999277882E+04  0.13999277882E+04  0.00000000000E+00 0. -1.
          2   -1    0    0  501    0  0.00000000000E+00 -0.00000000000E+00 -0.31544931172E+04  0.31544931172E+04  0.00000000000E+00 0.  1.
         23    2    1    2    0    0 -0.16974795486E+04  0.11918034829E+04 -0.51752776415E+03  0.21394479664E+04  0.87007208635E+02 0.  0.
         13    1    3    3    0    0 -0.66156076733E+03  0.43225649114E+03 -0.16316574021E+03  0.80692712297E+03  0.00000000000E+00 0. -1.
        -13    1    3    3    0    0 -0.10359187813E+04  0.75954699177E+03 -0.35436202394E+03  0.13325208434E+04  0.00000000000E+00 0.  1.
         22    1    1    2    0    0  0.16974795486E+04 -0.11918034829E+04 -0.12370375648E+04  0.24149729391E+04  0.00000000000E+00 0.  1.
<mgrwt>
<rscale>  0 0.42028859E+04</rscale>
<asrwt>0</asrwt>
<pdfrwt beam="1">  1        2 0.48530662E+00 0.42028859E+04</pdfrwt>
<pdfrwt beam="2">  1       -2 0.21537351E+00 0.42028859E+04</pdfrwt>
<totfact> 0.11384605E-01</totfact>
</mgrwt>
</event>
<event>
 6    1  0.5196787E-004  0.1287109E+04  0.7818608E-02  0.9039851E-01
          2   -1    0    0  501    0  0.00000000000E+00  0.00000000000E+00  0.76528076684E+03  0.76528076684E+03  0.00000000000E+00 0.  1.
         -2   -1    0    0    0  501 -0.00000000000E+00 -0.00000000000E+00 -0.54119038690E+03  0.54119038690E+03  0.00000000000E+00 0. -1.
         23    2    1    2    0    0 -0.63374039780E+03  0.90172380281E+02  0.12347475409E+03  0.65848855049E+03  0.92753470366E+02 0.  0.
         11    1    3    3    0    0 -0.25081746138E+03  0.25972837507E+02  0.93979506641E+02  0.26910246170E+03  0.00000000000E+00 0. -1.
        -11    1    3    3    0    0 -0.38292293641E+03  0.64199542773E+02  0.29495247446E+02  0.38938608879E+03  0.00000000000E+00 0.  1.
         22    1    1    2    0    0  0.63374039780E+03 -0.90172380281E+02  0.10061562585E+03  0.64798260326E+03  0.00000000000E+00 0.  1.
<mgrwt>
<rscale>  0 0.12871093E+04</rscale>
<asrwt>0</asrwt>
<pdfrwt beam="1">  1        2 0.11773550E+00 0.12871093E+04</pdfrwt>
<pdfrwt beam="2">  1       -2 0.83260059E-01 0.12871093E+04</pdfrwt>
<totfact> 0.45274795E+01</totfact>
</mgrwt>
</event>
<event>
 6    1  0.6232761E-004  0.3004126E+04  0.7818608E-02  0.8242554E-01
          2   -1    0    0  501    0  0.00000000000E+00  0.00000000000E+00  0.19439778137E+04  0.19439778137E+04  0.00000000000E+00 0.  1.
         -2   -1    0    0    0  501 -0.00000000000E+00 -0.00000000000E+00 -0.11606065292E+04  0.11606065292E+04  0.00000000000E+00 0. -1.
         23    2    1    2    0    0  0.91368157684E+03 -0.11867102351E+04  0.29175725246E+03  0.15282659859E+04  0.85903570455E+02 0.  0.
         13    1    3    3    0    0  0.26130233635E+03 -0.40351773104E+03  0.84652506257E+02  0.48813063524E+03  0.00000000000E+00 0. -1.
        -13    1    3    3    0    0  0.65237924049E+03 -0.78319250408E+03  0.20710474621E+03  0.10401353507E+04  0.00000000000E+00 0.  1.
         22    1    1    2    0    0 -0.91368157684E+03  0.11867102351E+04  0.49161403197E+03  0.15763183569E+04  0.00000000000E+00 0.  1.
<mgrwt>
<rscale>  0 0.30041261E+04</rscale>
<asrwt>0</asrwt>
<pdfrwt beam="1">  1        2 0.29907351E+00 0.30041261E+04</pdfrwt>
<pdfrwt beam="2">  1       -2 0.17855485E+00 0.30041261E+04</pdfrwt>
<totfact> 0.11399107E+00</totfact>
</mgrwt>
</event>
<event>
 6    1  0.5196787E-004  0.1612166E+04  0.7818608E-02  0.8813109E-01
          2   -1    0    0  501    0  0.00000000000E+00  0.00000000000E+00  0.10548928585E+04  0.10548928585E+04  0.00000000000E+00 0. -1.
         -2   -1    0    0    0  501 -0.00000000000E+00 -0.00000000000E+00 -0.61595787749E+03  0.61595787749E+03  0.00000000000E+00 0.  1.
         23    2    1    2    0    0 -0.37265628852E+03 -0.44212315805E+02 -0.51617341936E+03  0.64466386475E+03  0.91263691631E+02 0.  0.
         11    1    3    3    0    0 -0.22754448917E+03 -0.36404384747E+02 -0.24079155744E+03  0.33329018575E+03  0.00000000000E+00 0. -1.
        -11    1    3    3    0    0 -0.14511179935E+03 -0.78079310588E+01 -0.27538186192E+03  0.31137367900E+03  0.00000000000E+00 0.  1.
         22    1    1    2    0    0  0.37265628852E+03  0.44212315805E+02  0.95510840034E+03  0.10261868712E+04  0.00000000000E+00 0. -1.
<mgrwt>
<rscale>  0 0.16121657E+04</rscale>
<asrwt>0</asrwt>
<pdfrwt beam="1">  1        2 0.16229121E+00 0.16121657E+04</pdfrwt>
<pdfrwt beam="2">  1       -2 0.94762750E-01 0.16121657E+04</pdfrwt>
<totfact> 0.20879631E+01</totfact>
</mgrwt>
</event>
<event>
 6    1  0.5196787E-004  0.1964090E+04  0.7818608E-02  0.8623596E-01
         -2   -1    0    0    0  501 -0.00000000000E+00  0.00000000000E+00  0.65541418527E+03  0.65541418527E+03  0.00000000000E+00 0. -1.
          2   -1    0    0  501    0  0.00000000000E+00 -0.00000000000E+00 -0.14714551031E+04  0.14714551031E+04  0.00000000000E+00 0.  1.
         23    2    1    2    0    0  0.19232211159E+03  0.31786332202E+03 -0.13908229688E+04  0.14424722602E+04  0.91174583486E+02 0.  0.
         11    1    3    3    0    0  0.11357732118E+03  0.10559944109E+03 -0.61878335647E+03  0.63792154070E+03  0.00000000000E+00 0. -1.
        -11    1    3    3    0    0  0.78744790416E+02  0.21226388093E+03 -0.77203961233E+03  0.80455071945E+03  0.00000000000E+00 0.  1.
         22    1    1    2    0    0 -0.19232211159E+03 -0.31786332202E+03  0.57478205098E+03  0.68439702821E+03  0.00000000000E+00 0. -1.
<mgrwt>
<rscale>  0 0.19640902E+04</rscale>
<asrwt>0</asrwt>
<pdfrwt beam="1">  1        2 0.22637770E+00 0.19640902E+04</pdfrwt>
<pdfrwt beam="2">  1       -2 0.10083295E+00 0.19640902E+04</pdfrwt>
<totfact> 0.99431921E+00</totfact>
</mgrwt>
</event>
<event>
 6    1  0.5196787E-004  0.2573436E+04  0.7818608E-02  0.8377281E-01
          2   -1    0    0  501    0  0.00000000000E+00  0.00000000000E+00  0.13246186621E+04  0.13246186621E+04  0.00000000000E+00 0.  1.
         -2   -1    0    0    0  501 -0.00000000000E+00 -0.00000000000E+00 -0.12499021909E+04  0.12499021909E+04  0.00000000000E+00 0. -1.
         23    2    1    2    0    0 -0.11304349985E+04 -0.10808568128E+03  0.63920561096E+03  0.13063671599E+04  0.91899634882E+02 0.  0.
         11    1    3    3    0    0 -0.63873009925E+03 -0.51103917173E+02  0.30936867335E+03  0.71154530853E+03  0.00000000000E+00 0. -1.
        -11    1    3    3    0    0 -0.49170489930E+03 -0.56981764109E+02  0.32983693761E+03  0.59482185135E+03  0.00000000000E+00 0.  1.
         22    1    1    2    0    0  0.11304349985E+04  0.10808568128E+03 -0.56448913974E+03  0.12681536931E+04  0.00000000000E+00 0. -1.
<mgrwt>
<rscale>  0 0.25734364E+04</rscale>
<asrwt>0</asrwt>
<pdfrwt beam="1">  1        2 0.20378749E+00 0.25734364E+04</pdfrwt>
<pdfrwt beam="2">  1       -2 0.19229264E+00 0.25734364E+04</pdfrwt>
<totfact> 0.21215377E+00</totfact>
</mgrwt>
</event>
<event>
 6    1  0.5196787E-004  0.2900247E+04  0.7818608E-02  0.8272804E-01
          2   -1    0    0  501    0  0.00000000000E+00  0.00000000000E+00  0.26125508035E+04  0.26125508035E+04  0.00000000000E+00 0.  1.
         -2   -1    0    0    0  501 -0.00000000000E+00 -0.00000000000E+00 -0.80490613380E+03  0.80490613380E+03  0.00000000000E+00 0. -1.
         23    2    1    2    0    0 -0.64555174262E+03  0.12821620299E+04  0.11359314388E+04  0.18325672920E+04  0.85358787890E+02 0.  0.
         11    1    3    3    0    0 -0.12175852643E+03  0.24016936387E+03  0.25682707865E+03  0.37211101896E+03  0.00000000000E+00 0.  1.
        -11    1    3    3    0    0 -0.52379321619E+03  0.10419926660E+04  0.87910436014E+03  0.14604562730E+04  0.00000000000E+00 0. -1.
         22    1    1    2    0    0  0.64555174262E+03 -0.12821620299E+04  0.67171323090E+03  0.15848896453E+04  0.00000000000E+00 0.  1.
<mgrwt>
<rscale>  0 0.29002470E+04</rscale>
<asrwt>0</asrwt>
<pdfrwt beam="1">  1        2 0.40193089E+00 0.29002470E+04</pdfrwt>
<pdfrwt beam="2">  1       -2 0.12383171E+00 0.29002470E+04</pdfrwt>
<totfact> 0.12672502E+00</totfact>
</mgrwt>
</event>
<event>
 6    1  0.5196787E-004  0.2088409E+04  0.7818608E-02  0.8566366E-01
          2   -1    0    0  501    0  0.00000000000E+00  0.00000000000E+00  0.14009829153E+04  0.14009829153E+04  0.00000000000E+00 0.  1.
         -2   -1    0    0    0  501 -0.00000000000E+00 -0.00000000000E+00 -0.77828464153E+03  0.77828464153E+03  0.00000000000E+00 0. -1.
         23    2    1    2    0    0 -0.14248304767E+03  0.30752216004E+03 -0.71663078796E+03  0.79772000666E+03  0.89029349011E+02 0.  0.
         13    1    3    3    0    0 -0.10859087351E+03  0.13369451406E+03 -0.38472026658E+03  0.42151617337E+03  0.00000000000E+00 0. -1.
        -13    1    3    3    0    0 -0.33892174165E+02  0.17382764598E+03 -0.33191052138E+03  0.37620383328E+03  0.00000000000E+00 0.  1.
         22    1    1    2    0    0  0.14248304767E+03 -0.30752216004E+03  0.13393290618E+04  0.13815475502E+04  0.00000000000E+00 0.  1.
<mgrwt>
<rscale>  0 0.20884094E+04</rscale>
<asrwt>0</asrwt>
<pdfrwt beam="1">  1        2 0.21553583E+00 0.20884094E+04</pdfrwt>
<pdfrwt beam="2">  1       -2 0.11973610E+00 0.20884094E+04</pdfrwt>
<totfact> 0.71187671E+00</totfact>
</mgrwt>
</event>
<event>
 6    1  0.5196787E-004  0.8251271E+03  0.7818608E-02  0.9524342E-01
         -2   -1    0    0    0  501 -0.00000000000E+00  0.00000000000E+00  0.11950504987E+04  0.11950504987E+04  0.00000000000E+00 0. -1.
          2   -1    0    0  501    0  0.00000000000E+00 -0.00000000000E+00 -0.14242802873E+03  0.14242802873E+03  0.00000000000E+00 0.  1.
         23    2    1    2    0    0 -0.36397958226E+03 -0.85118595950E+02  0.79523927430E+03  0.88363668153E+03  0.93177088831E+02 0.  0.
         13    1    3    3    0    0 -0.57497382834E+02 -0.46611580069E+02  0.19510951864E+03  0.20867753280E+03  0.00000000000E+00 0. -1.
        -13    1    3    3    0    0 -0.30648219942E+03 -0.38507015881E+02  0.60012975565E+03  0.67495914873E+03  0.00000000000E+00 0.  1.
         22    1    1    2    0    0  0.36397958226E+03  0.85118595950E+02  0.25738319567E+03  0.45384184590E+03  0.00000000000E+00 0.  1.
<mgrwt>
<rscale>  0 0.82512711E+03</rscale>
<asrwt>0</asrwt>
<pdfrwt beam="1">  1        2 0.21912005E-01 0.82512711E+03</pdfrwt>
<pdfrwt beam="2">  1       -2 0.18385392E+00 0.82512711E+03</pdfrwt>
<totfact> 0.43995391E+01</totfact>
</mgrwt>
</event>
<event>
 6    1  0.5196787E-004  0.1896442E+04  0.7818608E-02  0.8656629E-01
          2   -1    0    0  501    0  0.00000000000E+00  0.00000000000E+00  0.38800341143E+04  0.38800341143E+04  0.00000000000E+00 0.  1.
         -2   -1    0    0    0  501 -0.00000000000E+00 -0.00000000000E+00 -0.23173071826E+03  0.23173071826E+03  0.00000000000E+00 0. -1.
         23    2    1    2    0    0 -0.55221146891E+03 -0.69930345999E+03  0.11392951578E+04  0.14492312318E+04  0.91185915292E+02 0.  0.
         11    1    3    3    0    0 -0.41075591252E+03 -0.56558840850E+03  0.93007580353E+03  0.11634653703E+04  0.00000000000E+00 0. -1.
        -11    1    3    3    0    0 -0.14145555639E+03 -0.13371505148E+03  0.20921935430E+03  0.28576586157E+03  0.00000000000E+00 0.  1.
         22    1    1    2    0    0  0.55221146891E+03  0.69930345999E+03  0.25090082382E+04  0.26625336007E+04  0.00000000000E+00 0.  1.
<mgrwt>
<rscale>  0 0.18964420E+04</rscale>
<asrwt>0</asrwt>
<pdfrwt beam="1">  1        2 0.59692828E+00 0.18964420E+04</pdfrwt>
<pdfrwt beam="2">  1       -2 0.35650883E-01 0.18964420E+04</pdfrwt>
<totfact> 0.29846603E+00</totfact>
</mgrwt>
</event>
<event>
 6    1  0.5196787E-004  0.4305642E+04  0.7818608E-02  0.7945576E-01
          2   -1    0    0  501    0  0.00000000000E+00  0.00000000000E+00  0.25012080940E+04  0.25012080940E+04  0.00000000000E+00 0.  1.
         -2   -1    0    0    0  501 -0.00000000000E+00 -0.00000000000E+00 -0.18529598964E+04  0.18529598964E+04  0.00000000000E+00 0. -1.
         23    2    1    2    0    0 -0.17856686436E+04 -0.11918371607E+04  0.46962656494E+03  0.21998713511E+04  0.98977412647E+02 0.  0.
         13    1    3    3    0    0 -0.15780772772E+03 -0.10816146124E+03  0.71083147501E+02  0.20409555234E+03  0.00000000000E+00 0.  1.
        -13    1    3    3    0    0 -0.16278609159E+04 -0.10836756995E+04  0.39854341744E+03  0.19957757987E+04  0.00000000000E+00 0. -1.
         22    1    1    2    0    0  0.17856686436E+04  0.11918371607E+04  0.17862163265E+03  0.21542966393E+04  0.00000000000E+00 0.  1.
<mgrwt>
<rscale>  0 0.43056420E+04</rscale>
<asrwt>0</asrwt>
<pdfrwt beam="1">  1        2 0.38480125E+00 0.43056420E+04</pdfrwt>
<pdfrwt beam="2">  1       -2 0.28507075E+00 0.43056420E+04</pdfrwt>
<totfact> 0.10490683E-01</totfact>
</mgrwt>
</event>
<event>
 6    1  0.5196787E-004  0.2066411E+04  0.7818608E-02  0.8576186E-01
         -2   -1    0    0    0  501 -0.00000000000E+00  0.00000000000E+00  0.94336960735E+03  0.94336960735E+03  0.00000000000E+00 0. -1.
          2   -1    0    0  501    0  0.00000000000E+00 -0.00000000000E+00 -0.11315964855E+04  0.11315964855E+04  0.00000000000E+00 0.  1.
         23    2    1    2    0    0 -0.54108494489E+03 -0.67278924699E+03  0.47191856343E+03  0.98813110424E+03  0.90981647578E+02 0.  0.
         11    1    3    3    0    0 -0.37660043661E+03 -0.51383211105E+03  0.37870312911E+03  0.74112575667E+03  0.00000000000E+00 0. -1.
        -11    1    3    3    0    0 -0.16448450828E+03 -0.15895713594E+03  0.93215434315E+02  0.24700534757E+03  0.00000000000E+00 0.  1.
         22    1    1    2    0    0  0.54108494489E+03  0.67278924699E+03 -0.66014544161E+03  0.10868349886E+04  0.00000000000E+00 0. -1.
<mgrwt>
<rscale>  0 0.20664111E+04</rscale>
<asrwt>0</asrwt>
<pdfrwt beam="1">  1        2 0.17409177E+00 0.20664111E+04</pdfrwt>
<pdfrwt beam="2">  1       -2 0.14513379E+00 0.20664111E+04</pdfrwt>
<totfact> 0.62933540E+00</totfact>
</mgrwt>
</event>
<event>
 6    1  0.5196787E-004  0.1659614E+04  0.7818608E-02  0.8784739E-01
         -2   -1    0    0    0  501 -0.00000000000E+00  0.00000000000E+00  0.55040841616E+03  0.55040841616E+03  0.00000000000E+00 0. -1.
          2   -1    0    0  501    0  0.00000000000E+00 -0.00000000000E+00 -0.12510340878E+04  0.12510340878E+04  0.00000000000E+00 0.  1.
         23    2    1    2    0    0 -0.35384298850E+03  0.33558399421E+02 -0.11621718590E+04  0.12188998792E+04  0.93501117671E+02 0.  0.
         13    1    3    3    0    0 -0.30783321217E+02  0.30155752242E+02 -0.17388281500E+03  0.17914300324E+03  0.00000000000E+00 0. -1.
        -13    1    3    3    0    0 -0.32305966728E+03  0.34026471789E+01 -0.98828904399E+03  0.10397568760E+04  0.00000000000E+00 0.  1.
         22    1    1    2    0    0  0.35384298850E+03 -0.33558399421E+02  0.46154618732E+03  0.58254262480E+03  0.00000000000E+00 0. -1.
<mgrwt>
<rscale>  0 0.16596140E+04</rscale>
<asrwt>0</asrwt>
<pdfrwt beam="1">  1        2 0.19246678E+00 0.16596140E+04</pdfrwt>
<pdfrwt beam="2">  1       -2 0.84678219E-01 0.16596140E+04</pdfrwt>
<totfact> 0.20493570E+01</totfact>
</mgrwt>
</event>
<event>
 6    1  0.5196787E-004  0.9288036E+03  0.7818608E-02  0.9390275E-01
         -2   -1    0    0    0  501 -0.00000000000E+00  0.00000000000E+00  0.74186314308E+02  0.74186314308E+02  0.00000000000E+00 0. -1.
          2   -1    0    0  501    0  0.00000000000E+00 -0.00000000000E+00 -0.29071266413E+04  0.29071266413E+04  0.00000000000E+00 0.  1.
         23    2    1    2    0    0 -0.22814352797E+03 -0.24515107785E+03 -0.24420193753E+04  0.24665628116E+04  0.91241184359E+02 0.  0.
         13    1    3    3    0    0 -0.13440624524E+03 -0.86074091182E+02 -0.97643201959E+03  0.98939035613E+03  0.00000000000E+00 0.  1.
        -13    1    3    3    0    0 -0.93737282735E+02 -0.15907698667E+03 -0.14655873557E+04  0.14771724554E+04  0.00000000000E+00 0. -1.
         22    1    1    2    0    0  0.22814352797E+03  0.24515107785E+03 -0.39092095172E+03  0.51475014407E+03  0.00000000000E+00 0. -1.
<mgrwt>
<rscale>  0 0.92880355E+03</rscale>
<asrwt>0</asrwt>
<pdfrwt beam="1">  1        2 0.44725034E+00 0.92880355E+03</pdfrwt>
<pdfrwt beam="2">  1       -2 0.11413277E-01 0.92880355E+03</pdfrwt>
<totfact> 0.11336934E+02</totfact>
</mgrwt>
</event>
<event>
 6    1  0.5196787E-004  0.1448631E+04  0.7818608E-02  0.8919350E-01
         -2   -1    0    0    0  501 -0.00000000000E+00  0.00000000000E+00  0.12281229424E+03  0.12281229424E+03  0.00000000000E+00 0.  1.
          2   -1    0    0  501    0  0.00000000000E+00 -0.00000000000E+00 -0.42718262788E+04  0.42718262788E+04  0.00000000000E+00 0. -1.
         23    2    1    2    0    0 -0.10401898052E+03 -0.69333999821E+03 -0.25877602260E+04  0.26831907649E+04  0.10709524756E+03 0.  0.
         13    1    3    3    0    0 -0.79090478876E+02 -0.38073066317E+03 -0.12459643825E+04  0.13052349920E+04  0.00000000000E+00 0. -1.
        -13    1    3    3    0    0 -0.24928501640E+02 -0.31260933503E+03 -0.13417958435E+04  0.13779557729E+04  0.00000000000E+00 0.  1.
         22    1    1    2    0    0  0.10401898052E+03  0.69333999821E+03 -0.15612537585E+04  0.17114478081E+04  0.00000000000E+00 0. -1.
<mgrwt>
<rscale>  0 0.14486308E+04</rscale>
<asrwt>0</asrwt>
<pdfrwt beam="1">  1        2 0.65720400E+00 0.14486308E+04</pdfrwt>
<pdfrwt beam="2">  1       -2 0.18894200E-01 0.14486308E+04</pdfrwt>
<totfact> 0.47568877E+00</totfact>
</mgrwt>
</event>
<event>
 6    1  0.5196787E-004  0.3473778E+04  0.7818608E-02  0.8120032E-01
          2   -1    0    0  501    0  0.00000000000E+00  0.00000000000E+00  0.20436901233E+04  0.20436901233E+04  0.00000000000E+00 0.  1.
         -2   -1    0    0    0  501 -0.00000000000E+00 -0.00000000000E+00 -0.14761454747E+04  0.14761454747E+04  0.00000000000E+00 0. -1.
         23    2    1    2    0    0  0.14759184672E+04 -0.37406986230E+03  0.11283063341E+04  0.18972705757E+04  0.91087155494E+02 0.  0.
         13    1    3    3    0    0  0.50635441064E+03 -0.10533543468E+03  0.33761936713E+03  0.61763838938E+03  0.00000000000E+00 0.  1.
        -13    1    3    3    0    0  0.96956405656E+03 -0.26873442762E+03  0.79068696702E+03  0.12796321863E+04  0.00000000000E+00 0. -1.
         22    1    1    2    0    0 -0.14759184672E+04  0.37406986230E+03 -0.56076168563E+03  0.16225650224E+04  0.00000000000E+00 0. -1.
<mgrwt>
<rscale>  0 0.34737783E+04</rscale>
<asrwt>0</asrwt>
<pdfrwt beam="1">  1        2 0.31441386E+00 0.34737783E+04</pdfrwt>
<pdfrwt beam="2">  1       -2 0.22709930E+00 0.34737783E+04</pdfrwt>
<totfact> 0.46380488E-01</totfact>
</mgrwt>
</event>
<event>
 6    1  0.5196787E-004  0.2667954E+04  0.7818608E-02  0.8345478E-01
          2   -1    0    0  501    0  0.00000000000E+00  0.00000000000E+00  0.26864748209E+04  0.26864748209E+04  0.00000000000E+00 0.  1.
         -2   -1    0    0    0  501 -0.00000000000E+00 -0.00000000000E+00 -0.66239008753E+03  0.66239008753E+03  0.00000000000E+00 0. -1.
         23    2    1    2    0    0  0.11316868905E+04 -0.32452948127E+03  0.17962684695E+04  0.21497256953E+04  0.93303526547E+02 0.  0.
         13    1    3    3    0    0  0.77941726844E+03 -0.20555941608E+03  0.12999581465E+04  0.15295872432E+04  0.00000000000E+00 0. -1.
        -13    1    3    3    0    0  0.35226962207E+03 -0.11897006519E+03  0.49631032302E+03  0.62013845211E+03  0.00000000000E+00 0.  1.
         22    1    1    2    0    0 -0.11316868905E+04  0.32452948127E+03  0.22781626382E+03  0.11991392131E+04  0.00000000000E+00 0. -1.
<mgrwt>
<rscale>  0 0.26679537E+04</rscale>
<asrwt>0</asrwt>
<pdfrwt beam="1">  1        2 0.41330381E+00 0.26679537E+04</pdfrwt>
<pdfrwt beam="2">  1       -2 0.10190617E+00 0.26679537E+04</pdfrwt>
<totfact> 0.18785370E+00</totfact>
</mgrwt>
</event>
<event>
 6    1  0.5196787E-004  0.2114845E+04  0.7818608E-02  0.8554732E-01
          2   -1    0    0  501    0  0.00000000000E+00  0.00000000000E+00  0.14165066458E+04  0.14165066458E+04  0.00000000000E+00 0.  1.
         -2   -1    0    0    0  501 -0.00000000000E+00 -0.00000000000E+00 -0.78936635959E+03  0.78936635959E+03  0.00000000000E+00 0. -1.
         23    2    1    2    0    0  0.14313681872E+02  0.22979837503E+03 -0.76050665475E+03  0.79925429110E+03  0.86167715954E+02 0.  0.
         13    1    3    3    0    0 -0.14763649920E+02  0.11916696470E+03 -0.50875545044E+03  0.52273400424E+03  0.00000000000E+00 0.  1.
        -13    1    3    3    0    0  0.29077331793E+02  0.11063141033E+03 -0.25175120431E+03  0.27652028686E+03  0.00000000000E+00 0. -1.
         22    1    1    2    0    0 -0.14313681872E+02 -0.22979837503E+03  0.13876469410E+04  0.14066187143E+04  0.00000000000E+00 0.  1.
<mgrwt>
<rscale>  0 0.21148453E+04</rscale>
<asrwt>0</asrwt>
<pdfrwt beam="1">  1        2 0.21792410E+00 0.21148453E+04</pdfrwt>
<pdfrwt beam="2">  1       -2 0.12144098E+00 0.21148453E+04</pdfrwt>
<totfact> 0.67187805E+00</totfact>
</mgrwt>
</event>
<event>
 6    1  0.5196787E-004  0.3363497E+04  0.7818608E-02  0.8146924E-01
          2   -1    0    0  501    0  0.00000000000E+00  0.00000000000E+00  0.18164834555E+04  0.18164834555E+04  0.00000000000E+00 0.  1.
         -2   -1    0    0    0  501 -0.00000000000E+00 -0.00000000000E+00 -0.15570075734E+04  0.15570075734E+04  0.00000000000E+00 0. -1.
         23    2    1    2    0    0  0.24840435437E+03  0.13586560057E+04  0.10899842069E+04  0.17618474757E+04  0.91597441011E+02 0.  0.
         11    1    3    3    0    0  0.10433877466E+03  0.35900555405E+03  0.27645046878E+03  0.46496927793E+03  0.00000000000E+00 0. -1.
        -11    1    3    3    0    0  0.14406557971E+03  0.99965045169E+03  0.81353373814E+03  0.12968781978E+04  0.00000000000E+00 0.  1.
         22    1    1    2    0    0 -0.24840435437E+03 -0.13586560057E+04 -0.83050832481E+03  0.16116435533E+04  0.00000000000E+00 0. -1.
<mgrwt>
<rscale>  0 0.33634973E+04</rscale>
<asrwt>0</asrwt>
<pdfrwt beam="1">  1        2 0.27945899E+00 0.33634973E+04</pdfrwt>
<pdfrwt beam="2">  1       -2 0.23953963E+00 0.33634973E+04</pdfrwt>
<totfact> 0.52348491E-01</totfact>
</mgrwt>
</event>
<event>
 6    1  0.5196787E-004  0.1449772E+04  0.7818608E-02  0.8918558E-01
         -2   -1    0    0    0  501 -0.00000000000E+00  0.00000000000E+00  0.85294035043E+03  0.85294035043E+03  0.00000000000E+00 0. -1.
          2   -1    0    0  501    0  0.00000000000E+00 -0.00000000000E+00 -0.61605710445E+03  0.61605710445E+03  0.00000000000E+00 0.  1.
         23    2    1    2    0    0 -0.11833740100E+03  0.14616346684E+02  0.84043780150E+03  0.85377759211E+03  0.91559273333E+02 0.  0.
         11    1    3    3    0    0 -0.22770015823E+02 -0.16879920488E+02  0.43923996110E+03  0.44015355134E+03  0.00000000000E+00 0. -1.
        -11    1    3    3    0    0 -0.95567385180E+02  0.31496267172E+02  0.40119784040E+03  0.41362404077E+03  0.00000000000E+00 0.  1.
         22    1    1    2    0    0  0.11833740100E+03 -0.14616346684E+02 -0.60355455552E+03  0.61521986278E+03  0.00000000000E+00 0.  1.
<mgrwt>
<rscale>  0 0.14497723E+04</rscale>
<asrwt>0</asrwt>
<pdfrwt beam="1">  1        2 0.94778016E-01 0.14497723E+04</pdfrwt>
<pdfrwt beam="2">  1       -2 0.13122159E+00 0.14497723E+04</pdfrwt>
<totfact> 0.19746134E+01</totfact>
</mgrwt>
</event>
<event>
 6    1  0.5196787E-004  0.1421207E+04  0.7818608E-02  0.8938609E-01
         -4   -1    0    0    0  501 -0.00000000000E+00  0.00000000000E+00  0.70364272368E+03  0.70364272368E+03  0.00000000000E+00 0. -1.
          4   -1    0    0  501    0  0.00000000000E+00 -0.00000000000E+00 -0.71763351649E+03  0.71763351649E+03  0.00000000000E+00 0.  1.
         23    2    1    2    0    0  0.31090612580E+03  0.14532816944E+03  0.61193815412E+03  0.70743456129E+03  0.90622613908E+02 0.  0.
         13    1    3    3    0    0  0.15709661780E+03  0.26425742696E+02  0.24636217998E+03  0.29338028380E+03  0.00000000000E+00 0. -1.
        -13    1    3    3    0    0  0.15380950800E+03  0.11890242675E+03  0.36557597415E+03  0.41405427749E+03  0.00000000000E+00 0.  1.
         22    1    1    2    0    0 -0.31090612580E+03 -0.14532816944E+03 -0.62592894694E+03  0.71384167888E+03  0.00000000000E+00 0.  1.
<mgrwt>
<rscale>  0 0.14212074E+04</rscale>
<asrwt>0</asrwt>
<pdfrwt beam="1">  1        4 0.11040516E+00 0.14212074E+04</pdfrwt>
<pdfrwt beam="2">  1       -4 0.10825273E+00 0.14212074E+04</pdfrwt>
<totfact> 0.86072960E-01</totfact>
</mgrwt>
</event>
<event>
 6    1  0.5196787E-004  0.2067279E+04  0.7818608E-02  0.8575796E-01
          2   -1    0    0  501    0  0.00000000000E+00  0.00000000000E+00  0.20746720604E+04  0.20746720604E+04  0.00000000000E+00 0.  1.
         -2   -1    0    0    0  501 -0.00000000000E+00 -0.00000000000E+00 -0.51497819336E+03  0.51497819336E+03  0.00000000000E+00 0. -1.
         23    2    1    2    0    0 -0.73053776085E+03  0.32989659272E+03 -0.33345909043E+02  0.80631267771E+03  0.80690784258E+02 0.  0.
         11    1    3    3    0    0 -0.51438136665E+03  0.19349491363E+03 -0.10122115519E+02  0.54966437867E+03  0.00000000000E+00 0.  1.
        -11    1    3    3    0    0 -0.21615639421E+03  0.13640167909E+03 -0.23223793524E+02  0.25664829904E+03  0.00000000000E+00 0. -1.
         22    1    1    2    0    0  0.73053776085E+03 -0.32989659272E+03  0.15930397761E+04  0.17833375760E+04  0.00000000000E+00 0.  1.
<mgrwt>
<rscale>  0 0.20672792E+04</rscale>
<asrwt>0</asrwt>
<pdfrwt beam="1">  1        2 0.31918031E+00 0.20672792E+04</pdfrwt>
<pdfrwt beam="2">  1       -2 0.79227415E-01 0.20672792E+04</pdfrwt>
<totfact> 0.79239779E+00</totfact>
</mgrwt>
</event>
<event>
 6    1  0.5196787E-004  0.2423329E+04  0.7818608E-02  0.8430821E-01
          2   -1    0    0  501    0  0.00000000000E+00  0.00000000000E+00  0.14967157088E+04  0.14967157088E+04  0.00000000000E+00 0.  1.
         -2   -1    0    0    0  501 -0.00000000000E+00 -0.00000000000E+00 -0.98090136697E+03  0.98090136697E+03  0.00000000000E+00 0. -1.
         23    2    1    2    0    0 -0.41664662345E+03  0.84116761270E+03 -0.52218691685E+03  0.10781157451E+04  0.92179294052E+02 0.  0.
         11    1    3    3    0    0 -0.21703147817E+03  0.34295704651E+03 -0.20518944903E+03  0.45478006581E+03  0.00000000000E+00 0. -1.
        -11    1    3    3    0    0 -0.19961514528E+03  0.49821056619E+03 -0.31699746782E+03  0.62333567930E+03  0.00000000000E+00 0.  1.
         22    1    1    2    0    0  0.41664662345E+03 -0.84116761270E+03  0.10380012587E+04  0.13995013306E+04  0.00000000000E+00 0.  1.
<mgrwt>
<rscale>  0 0.24233287E+04</rscale>
<asrwt>0</asrwt>
<pdfrwt beam="1">  1        2 0.23026395E+00 0.24233287E+04</pdfrwt>
<pdfrwt beam="2">  1       -2 0.15090790E+00 0.24233287E+04</pdfrwt>
<totfact> 0.33741889E+00</totfact>
</mgrwt>
</event>
<event>
 6    1  0.5196787E-004  0.2270344E+04  0.7818608E-02  0.8489707E-01
          2   -1    0    0  501    0  0.00000000000E+00  0.00000000000E+00  0.79431509476E+03  0.79431509476E+03  0.00000000000E+00 0.  1.
         -2   -1    0    0    0  501 -0.00000000000E+00 -0.00000000000E+00 -0.16222980690E+04  0.16222980690E+04  0.00000000000E+00 0. -1.
         23    2    1    2    0    0  0.36136277263E+03 -0.24589219394E+03  0.69835414455E+03  0.82892584420E+03  0.91506936807E+02 0.  0.
         13    1    3    3    0    0  0.62614252536E+02 -0.89842156275E+02  0.16940438728E+03  0.20171763457E+03  0.00000000000E+00 0. -1.
        -13    1    3    3    0    0  0.29874852009E+03 -0.15605003767E+03  0.52894975727E+03  0.62720820963E+03  0.00000000000E+00 0.  1.
         22    1    1    2    0    0 -0.36136277263E+03  0.24589219394E+03 -0.15263371188E+04  0.15876873195E+04  0.00000000000E+00 0. -1.
<mgrwt>
<rscale>  0 0.22703443E+04</rscale>
<asrwt>0</asrwt>
<pdfrwt beam="1">  1        2 0.12220232E+00 0.22703443E+04</pdfrwt>
<pdfrwt beam="2">  1       -2 0.24958432E+00 0.22703443E+04</pdfrwt>
<totfact> 0.20425127E+00</totfact>
</mgrwt>
</event>
<event>
 6    1  0.5196787E-004  0.3042592E+04  0.7818608E-02  0.8231672E-01
         -2   -1    0    0    0  501 -0.00000000000E+00  0.00000000000E+00  0.85880057881E+03  0.85880057881E+03  0.00000000000E+00 0. -1.
          2   -1    0    0  501    0  0.00000000000E+00 -0.00000000000E+00 -0.26948527846E+04  0.26948527846E+04  0.00000000000E+00 0.  1.
         23    2    1    2    0    0  0.36681270930E+02 -0.96847680964E+03 -0.22863623545E+04  0.24849756400E+04  0.91423566569E+02 0.  0.
         13    1    3    3    0    0  0.50590738717E+02 -0.76414564199E+03 -0.17224105560E+04  0.18849870313E+04  0.00000000000E+00 0. -1.
        -13    1    3    3    0    0 -0.13909467787E+02 -0.20433116765E+03 -0.56395179857E+03  0.59998860863E+03  0.00000000000E+00 0.  1.
         22    1    1    2    0    0 -0.36681270930E+02  0.96847680964E+03  0.45031014877E+03  0.10686777234E+04  0.00000000000E+00 0. -1.
<mgrwt>
<rscale>  0 0.30425917E+04</rscale>
<asrwt>0</asrwt>
<pdfrwt beam="1">  1        2 0.41459273E+00 0.30425917E+04</pdfrwt>
<pdfrwt beam="2">  1       -2 0.13212317E+00 0.30425917E+04</pdfrwt>
<totfact> 0.95048350E-01</totfact>
</mgrwt>
</event>
<event>
 6    1  0.5196787E-004  0.3808166E+04  0.7818608E-02  0.8044405E-01
         -2   -1    0    0    0  501 -0.00000000000E+00  0.00000000000E+00  0.10303644169E+04  0.10303644169E+04  0.00000000000E+00 0. -1.
          2   -1    0    0  501    0  0.00000000000E+00 -0.00000000000E+00 -0.35186895790E+04  0.35186895790E+04  0.00000000000E+00 0.  1.
         23    2    1    2    0    0  0.30148324432E+03 -0.10487980452E+04 -0.31071708785E+04  0.32945263928E+04  0.92324421293E+02 0.  0.
         13    1    3    3    0    0  0.23922018441E+03 -0.93388985117E+03 -0.27653662338E+04  0.29285878778E+04  0.00000000000E+00 0.  1.
        -13    1    3    3    0    0  0.62263059909E+02 -0.11490819400E+03 -0.34180464469E+03  0.36593851506E+03  0.00000000000E+00 0. -1.
         22    1    1    2    0    0 -0.30148324432E+03  0.10487980452E+04  0.61884571634E+03  0.12545276030E+04  0.00000000000E+00 0. -1.
<mgrwt>
<rscale>  0 0.38081662E+04</rscale>
<asrwt>0</asrwt>
<pdfrwt beam="1">  1        2 0.54133686E+00 0.38081662E+04</pdfrwt>
<pdfrwt beam="2">  1       -2 0.15851760E+00 0.38081662E+04</pdfrwt>
<totfact> 0.16298791E-01</totfact>
</mgrwt>
</event>
<event>
 6    1  0.5196787E-004  0.3814763E+04  0.7818608E-02  0.8042994E-01
         -1   -1    0    0    0  501 -0.00000000000E+00  0.00000000000E+00  0.10336790906E+04  0.10336790906E+04  0.00000000000E+00 0. -1.
          1   -1    0    0  501    0  0.00000000000E+00 -0.00000000000E+00 -0.35195679225E+04  0.35195679225E+04  0.00000000000E+00 0.  1.
         23    2    1    2    0    0 -0.98108930962E+03  0.10338520058E+04 -0.27546406611E+04  0.31028630126E+04  0.91255136450E+02 0.  0.
         13    1    3    3    0    0 -0.94629122851E+03  0.97300843929E+03 -0.25952913554E+04  0.29287795635E+04  0.00000000000E+00 0. -1.
        -13    1    3    3    0    0 -0.34798081116E+02  0.60843566516E+02 -0.15934930563E+03  0.17408344907E+03  0.00000000000E+00 0.  1.
         22    1    1    2    0    0  0.98108930962E+03 -0.10338520058E+04  0.26875182918E+03  0.14503840006E+04  0.00000000000E+00 0. -1.
<mgrwt>
<rscale>  0 0.38147628E+04</rscale>
<asrwt>0</asrwt>
<pdfrwt beam="1">  1        1 0.54147199E+00 0.38147628E+04</pdfrwt>
<pdfrwt beam="2">  1       -1 0.15902755E+00 0.38147628E+04</pdfrwt>
<totfact> 0.56871864E-02</totfact>
</mgrwt>
</event>
<event>
 6    1  0.5671019E-004  0.4912824E+04  0.7818608E-02  0.7842097E-01
         -2   -1    0    0    0  501 -0.00000000000E+00  0.00000000000E+00  0.26170695702E+04  0.26170695702E+04  0.00000000000E+00 0. -1.
          2   -1    0    0  501    0  0.00000000000E+00 -0.00000000000E+00 -0.23056173435E+04  0.23056173435E+04  0.00000000000E+00 0.  1.
         23    2    1    2    0    0 -0.50048266190E+03 -0.20490611041E+04 -0.11039493187E+04  0.23825105739E+04  0.92294275968E+02 0.  0.
         13    1    3    3    0    0 -0.23426236936E+03 -0.92372422700E+03 -0.44788036935E+03  0.10529682476E+04  0.00000000000E+00 0.  1.
        -13    1    3    3    0    0 -0.26622029254E+03 -0.11253368771E+04 -0.65606894933E+03  0.13295423263E+04  0.00000000000E+00 0. -1.
         22    1    1    2    0    0  0.50048266190E+03  0.20490611041E+04  0.14154015454E+04  0.25401763399E+04  0.00000000000E+00 0.  1.
<mgrwt>
<rscale>  0 0.49128244E+04</rscale>
<asrwt>0</asrwt>
<pdfrwt beam="1">  1        2 0.35471036E+00 0.49128244E+04</pdfrwt>
<pdfrwt beam="2">  1       -2 0.40262609E+00 0.49128244E+04</pdfrwt>
<totfact> 0.23552965E-02</totfact>
</mgrwt>
</event>
<event>
 6    1  0.5196787E-004  0.2944579E+04  0.7818608E-02  0.8259736E-01
          2   -1    0    0  501    0  0.00000000000E+00  0.00000000000E+00  0.42390655824E+04  0.42390655824E+04  0.00000000000E+00 0.  1.
         -2   -1    0    0    0  501 -0.00000000000E+00 -0.00000000000E+00 -0.51134761326E+03  0.51134761326E+03  0.00000000000E+00 0. -1.
         23    2    1    2    0    0 -0.92026379589E+03  0.37335784355E+03  0.36159832601E+04  0.37510302968E+04  0.92799875393E+02 0.  0.
         11    1    3    3    0    0 -0.23939002080E+03  0.99856868607E+02  0.11050513249E+04  0.11350847576E+04  0.00000000000E+00 0. -1.
        -11    1    3    3    0    0 -0.68087377510E+03  0.27350097494E+03  0.25109319352E+04  0.26159455392E+04  0.00000000000E+00 0.  1.
         22    1    1    2    0    0  0.92026379589E+03 -0.37335784355E+03  0.11173470907E+03  0.99938289888E+03  0.00000000000E+00 0. -1.
<mgrwt>
<rscale>  0 0.29445788E+04</rscale>
<asrwt>0</asrwt>
<pdfrwt beam="1">  1        2 0.65216391E+00 0.29445788E+04</pdfrwt>
<pdfrwt beam="2">  1       -2 0.78668866E-01 0.29445788E+04</pdfrwt>
<totfact> 0.26526326E-01</totfact>
</mgrwt>
</event>
<event>
 6    1  0.5196787E-004  0.2260087E+04  0.7818608E-02  0.8493826E-01
          2   -1    0    0  501    0  0.00000000000E+00  0.00000000000E+00  0.33618445153E+04  0.33618445153E+04  0.00000000000E+00 0.  1.
         -2   -1    0    0    0  501 -0.00000000000E+00 -0.00000000000E+00 -0.37985060609E+03  0.37985060609E+03  0.00000000000E+00 0. -1.
         23    2    1    2    0    0  0.73301140942E+03  0.19698429017E+02  0.74310099486E+02  0.74297557936E+03  0.93792143582E+02 0.  0.
         11    1    3    3    0    0  0.46087137335E+03  0.17250881915E+01  0.22361048205E+01  0.46088002654E+03  0.00000000000E+00 0.  1.
        -11    1    3    3    0    0  0.27214003607E+03  0.17973340826E+02  0.72073994666E+02  0.28209555282E+03  0.00000000000E+00 0. -1.
         22    1    1    2    0    0 -0.73301140942E+03 -0.19698429017E+02  0.29076838098E+04  0.29987195421E+04  0.00000000000E+00 0.  1.
<mgrwt>
<rscale>  0 0.22600873E+04</rscale>
<asrwt>0</asrwt>
<pdfrwt beam="1">  1        2 0.51720683E+00 0.22600873E+04</pdfrwt>
<pdfrwt beam="2">  1       -2 0.58438557E-01 0.22600873E+04</pdfrwt>
<totfact> 0.25266803E+00</totfact>
</mgrwt>
</event>
<event>
 6    1  0.5196787E-004  0.3324932E+04  0.7818608E-02  0.8156580E-01
          2   -1    0    0  501    0  0.00000000000E+00  0.00000000000E+00  0.20222731845E+04  0.20222731845E+04  0.00000000000E+00 0.  1.
         -2   -1    0    0    0  501 -0.00000000000E+00 -0.00000000000E+00 -0.13666763767E+04  0.13666763767E+04  0.00000000000E+00 0. -1.
         23    2    1    2    0    0 -0.12249946700E+04 -0.35289970925E+03 -0.75780935986E+03  0.14855664833E+04  0.86502046696E+02 0.  0.
         11    1    3    3    0    0 -0.65521747563E+03 -0.16638715933E+03 -0.44507854840E+03  0.80937601979E+03  0.00000000000E+00 0.  1.
        -11    1    3    3    0    0 -0.56977719439E+03 -0.18651254992E+03 -0.31273081145E+03  0.67619046352E+03  0.00000000000E+00 0. -1.
         22    1    1    2    0    0  0.12249946700E+04  0.35289970925E+03  0.14134061677E+04  0.19033830779E+04  0.00000000000E+00 0.  1.
<mgrwt>
<rscale>  0 0.33249319E+04</rscale>
<asrwt>0</asrwt>
<pdfrwt beam="1">  1        2 0.31111895E+00 0.33249319E+04</pdfrwt>
<pdfrwt beam="2">  1       -2 0.21025790E+00 0.33249319E+04</pdfrwt>
<totfact> 0.61741619E-01</totfact>
</mgrwt>
</event>
<event>
 6    1  0.5196787E-004  0.1405084E+04  0.7818608E-02  0.8950147E-01
          1   -1    0    0  501    0  0.00000000000E+00  0.00000000000E+00  0.24902514893E+04  0.24902514893E+04  0.00000000000E+00 0.  1.
         -1   -1    0    0    0  501 -0.00000000000E+00 -0.00000000000E+00 -0.19819902486E+03  0.19819902486E+03  0.00000000000E+00 0. -1.
         23    2    1    2    0    0  0.56369605179E+03 -0.39592180535E+03  0.13845525135E+04  0.15491246277E+04  0.91072139463E+02 0.  0.
         11    1    3    3    0    0  0.21399115256E+03 -0.11200231447E+03  0.41802079902E+03  0.48278164861E+03  0.00000000000E+00 0.  1.
        -11    1    3    3    0    0  0.34970489923E+03 -0.28391949087E+03  0.96653171449E+03  0.10663429790E+04  0.00000000000E+00 0. -1.
         22    1    1    2    0    0 -0.56369605179E+03  0.39592180535E+03  0.90749995094E+03  0.11393258865E+04  0.00000000000E+00 0.  1.
<mgrwt>
<rscale>  0 0.14050842E+04</rscale>
<asrwt>0</asrwt>
<pdfrwt beam="1">  1        1 0.38311559E+00 0.14050842E+04</pdfrwt>
<pdfrwt beam="2">  1       -1 0.30492159E-01 0.14050842E+04</pdfrwt>
<totfact> 0.13344054E+01</totfact>
</mgrwt>
</event>
<event>
 6    1  0.8218954E-004  0.4821383E+04  0.7818608E-02  0.7856667E-01
          2   -1    0    0  501    0  0.00000000000E+00  0.00000000000E+00  0.26001432014E+04  0.26001432014E+04  0.00000000000E+00 0.  1.
         -2   -1    0    0    0  501 -0.00000000000E+00 -0.00000000000E+00 -0.22350433630E+04  0.22350433630E+04  0.00000000000E+00 0. -1.
         23    2    1    2    0    0 -0.14455781381E+04 -0.17093822979E+04 -0.71186743899E+03  0.23509276186E+04  0.91768313167E+02 0.  0.
         11    1    3    3    0    0 -0.61426101400E+03 -0.78775100065E+03 -0.34113598008E+03  0.10555766146E+04  0.00000000000E+00 0.  1.
        -11    1    3    3    0    0 -0.83131712409E+03 -0.92163129726E+03 -0.37073145891E+03  0.12953510040E+04  0.00000000000E+00 0. -1.
         22    1    1    2    0    0  0.14455781381E+04  0.17093822979E+04  0.10769672773E+04  0.24842589459E+04  0.00000000000E+00 0.  1.
<mgrwt>
<rscale>  0 0.48213827E+04</rscale>
<asrwt>0</asrwt>
<pdfrwt beam="1">  1        2 0.40002203E+00 0.48213827E+04</pdfrwt>
<pdfrwt beam="2">  1       -2 0.34385283E+00 0.48213827E+04</pdfrwt>
<totfact> 0.38212062E-02</totfact>
</mgrwt>
</event>
<event>
 6    1  0.5196787E-004  0.4786927E+03  0.7818608E-02  0.1019495E+00
          2   -1    0    0  501    0  0.00000000000E+00  0.00000000000E+00  0.15175857896E+03  0.15175857896E+03  0.00000000000E+00 0.  1.
         -2   -1    0    0    0  501 -0.00000000000E+00 -0.00000000000E+00 -0.37748562935E+03  0.37748562935E+03  0.00000000000E+00 0. -1.
         23    2    1    2    0    0  0.22415383095E+03 -0.44385398328E+02 -0.15026817217E+03  0.28860122418E+03  0.92169081124E+02 0.  0.
         11    1    3    3    0    0  0.62153102846E+01 -0.12599437781E+02  0.91056019629E+01  0.16741801021E+02  0.00000000000E+00 0.  1.
        -11    1    3    3    0    0  0.21793852066E+03 -0.31785960548E+02 -0.15937377414E+03  0.27185942316E+03  0.00000000000E+00 0. -1.
         22    1    1    2    0    0 -0.22415383095E+03  0.44385398328E+02 -0.75458878220E+02  0.24064298414E+03  0.00000000000E+00 0. -1.
<mgrwt>
<rscale>  0 0.47869273E+03</rscale>
<asrwt>0</asrwt>
<pdfrwt beam="1">  1        2 0.23347474E-01 0.47869273E+03</pdfrwt>
<pdfrwt beam="2">  1       -2 0.58074712E-01 0.47869273E+03</pdfrwt>
<totfact> 0.66192635E+02</totfact>
</mgrwt>
</event>
<event>
 6    1  0.5196787E-004  0.2531317E+04  0.7818608E-02  0.8391913E-01
         -4   -1    0    0    0  501 -0.00000000000E+00  0.00000000000E+00  0.10488933913E+04  0.10488933913E+04  0.00000000000E+00 0. -1.
          4   -1    0    0  501    0  0.00000000000E+00 -0.00000000000E+00 -0.15272202685E+04  0.15272202685E+04  0.00000000000E+00 0.  1.
         23    2    1    2    0    0  0.42407069009E+03  0.84031694797E+00 -0.14513347463E+04  0.15147084734E+04  0.90180690919E+02 0.  0.
         13    1    3    3    0    0  0.12084204107E+03  0.36184396740E+02 -0.49557611333E+03  0.51137832723E+03  0.00000000000E+00 0.  1.
        -13    1    3    3    0    0  0.30322864903E+03 -0.35344079792E+02 -0.95575863301E+03  0.10033301461E+04  0.00000000000E+00 0. -1.
         22    1    1    2    0    0 -0.42407069009E+03 -0.84031694797E+00  0.97300786919E+03  0.10614051865E+04  0.00000000000E+00 0. -1.
<mgrwt>
<rscale>  0 0.25313168E+04</rscale>
<asrwt>0</asrwt>
<pdfrwt beam="1">  1        4 0.23495696E+00 0.25313168E+04</pdfrwt>
<pdfrwt beam="2">  1       -4 0.16136821E+00 0.25313168E+04</pdfrwt>
<totfact> 0.34002225E-02</totfact>
</mgrwt>
</event>
<event>
 6    1  0.5196787E-004  0.2300862E+04  0.7818608E-02  0.8477581E-01
         -2   -1    0    0    0  501 -0.00000000000E+00  0.00000000000E+00  0.88600919196E+03  0.88600919196E+03  0.00000000000E+00 0. -1.
          2   -1    0    0  501    0  0.00000000000E+00 -0.00000000000E+00 -0.14937671301E+04  0.14937671301E+04  0.00000000000E+00 0.  1.
         23    2    1    2    0    0  0.48734414060E+03 -0.11431008909E+03  0.76489451862E+03  0.91869936483E+03  0.91508417531E+02 0.  0.
         13    1    3    3    0    0  0.12564036313E+03 -0.54865538370E+02  0.15322526152E+03  0.20560571226E+03  0.00000000000E+00 0. -1.
        -13    1    3    3    0    0  0.36170377747E+03 -0.59444550724E+02  0.61166925711E+03  0.71309365257E+03  0.00000000000E+00 0.  1.
         22    1    1    2    0    0 -0.48734414060E+03  0.11431008909E+03 -0.13726524567E+04  0.14610769572E+04  0.00000000000E+00 0.  1.
<mgrwt>
<rscale>  0 0.23008619E+04</rscale>
<asrwt>0</asrwt>
<pdfrwt beam="1">  1        2 0.22981033E+00 0.23008619E+04</pdfrwt>
<pdfrwt beam="2">  1       -2 0.13630911E+00 0.23008619E+04</pdfrwt>
<totfact> 0.44659574E+00</totfact>
</mgrwt>
</event>
<event>
 6    1  0.5196787E-004  0.2445284E+04  0.7818608E-02  0.8422742E-01
          2   -1    0    0  501    0  0.00000000000E+00  0.00000000000E+00  0.33397489346E+04  0.33397489346E+04  0.00000000000E+00 0.  1.
         -2   -1    0    0    0  501 -0.00000000000E+00 -0.00000000000E+00 -0.44759449842E+03  0.44759449842E+03  0.00000000000E+00 0. -1.
         23    2    1    2    0    0  0.21838364169E+03 -0.97789852716E+03  0.36793597223E+03  0.10715275707E+04  0.93901601251E+02 0.  0.
         13    1    3    3    0    0  0.69842297333E+02 -0.30793509802E+03  0.70073009815E+02  0.32343808959E+03  0.00000000000E+00 0.  1.
        -13    1    3    3    0    0  0.14854134436E+03 -0.66996342913E+03  0.29786296242E+03  0.74808948110E+03  0.00000000000E+00 0. -1.
         22    1    1    2    0    0 -0.21838364169E+03  0.97789852716E+03  0.25242184639E+04  0.27158158623E+04  0.00000000000E+00 0.  1.
<mgrwt>
<rscale>  0 0.24452838E+04</rscale>
<asrwt>0</asrwt>
<pdfrwt beam="1">  1        2 0.51380751E+00 0.24452838E+04</pdfrwt>
<pdfrwt beam="2">  1       -2 0.68860694E-01 0.24452838E+04</pdfrwt>
<totfact> 0.18102041E+00</totfact>
</mgrwt>
</event>
<event>
 6    1  0.5196787E-004  0.1923245E+04  0.7818608E-02  0.8643371E-01
          2   -1    0    0  501    0  0.00000000000E+00  0.00000000000E+00  0.20620309638E+04  0.20620309638E+04  0.00000000000E+00 0.  1.
         -2   -1    0    0    0  501 -0.00000000000E+00 -0.00000000000E+00 -0.44845017452E+03  0.44845017452E+03  0.00000000000E+00 0. -1.
         23    2    1    2    0    0  0.24238459376E+03  0.12595343625E+03  0.20092727421E+04  0.20296623772E+04  0.87965072113E+02 0.  0.
         11    1    3    3    0    0  0.57587545817E+02  0.71345080354E+02  0.52693069915E+03  0.53484802292E+03  0.00000000000E+00 0.  1.
        -11    1    3    3    0    0  0.18479704794E+03  0.54608355896E+02  0.14823420430E+04  0.14948143543E+04  0.00000000000E+00 0. -1.
         22    1    1    2    0    0 -0.24238459376E+03 -0.12595343625E+03 -0.39569195288E+03  0.48081876104E+03  0.00000000000E+00 0. -1.
<mgrwt>
<rscale>  0 0.19232453E+04</rscale>
<asrwt>0</asrwt>
<pdfrwt beam="1">  1        2 0.31723553E+00 0.19232453E+04</pdfrwt>
<pdfrwt beam="2">  1       -2 0.68992336E-01 0.19232453E+04</pdfrwt>
<totfact> 0.11066414E+01</totfact>
</mgrwt>
</event>
<event>
 6    1  0.5196787E-004  0.6390025E+03  0.7818608E-02  0.9827637E-01
          2   -1    0    0  501    0  0.00000000000E+00  0.00000000000E+00  0.15588256998E+04  0.15588256998E+04  0.00000000000E+00 0.  1.
         -2   -1    0    0    0  501 -0.00000000000E+00 -0.00000000000E+00 -0.65485856959E+02  0.65485856959E+02  0.00000000000E+00 0. -1.
         23    2    1    2    0    0 -0.11247998858E+03  0.23205290731E+03  0.12130343115E+04  0.12434290414E+04  0.90350652856E+02 0.  0.
         11    1    3    3    0    0 -0.49061520242E+02  0.54597634839E+02  0.20064119033E+03  0.21364648782E+03  0.00000000000E+00 0. -1.
        -11    1    3    3    0    0 -0.63418468335E+02  0.17745527247E+03  0.10123931212E+04  0.10297825536E+04  0.00000000000E+00 0.  1.
         22    1    1    2    0    0  0.11247998858E+03 -0.23205290731E+03  0.28030553136E+03  0.38088251539E+03  0.00000000000E+00 0. -1.
<mgrwt>
<rscale>  0 0.63900246E+03</rscale>
<asrwt>0</asrwt>
<pdfrwt beam="1">  1        2 0.23981931E+00 0.63900246E+03</pdfrwt>
<pdfrwt beam="2">  1       -2 0.10074748E-01 0.63900246E+03</pdfrwt>
<totfact> 0.81262945E+02</totfact>
</mgrwt>
</event>
<event>
 6    1  0.5196787E-004  0.5273827E+04  0.7818608E-02  0.7787601E-01
         -2   -1    0    0    0  501 -0.00000000000E+00  0.00000000000E+00  0.32056760222E+04  0.32056760222E+04  0.00000000000E+00 0. -1.
          2   -1    0    0  501    0  0.00000000000E+00 -0.00000000000E+00 -0.21690628844E+04  0.21690628844E+04  0.00000000000E+00 0.  1.
         23    2    1    2    0    0 -0.17491978327E+04  0.87646923123E+03  0.23189303228E+04  0.30354593734E+04  0.93190097171E+02 0.  0.
         11    1    3    3    0    0 -0.11827509334E+04  0.63317016104E+03  0.16252080117E+04  0.21073930114E+04  0.00000000000E+00 0.  1.
        -11    1    3    3    0    0 -0.56644689927E+03  0.24329907019E+03  0.69372231113E+03  0.92806636196E+03  0.00000000000E+00 0. -1.
         22    1    1    2    0    0  0.17491978327E+04 -0.87646923123E+03 -0.12823171850E+04  0.23392795331E+04  0.00000000000E+00 0.  1.
<mgrwt>
<rscale>  0 0.52738270E+04</rscale>
<asrwt>0</asrwt>
<pdfrwt beam="1">  1        2 0.33370198E+00 0.52738270E+04</pdfrwt>
<pdfrwt beam="2">  1       -2 0.49318093E+00 0.52738270E+04</pdfrwt>
<totfact> 0.70202061E-03</totfact>
</mgrwt>
</event>
<event>
 6    1  0.5196787E-004  0.1540826E+04  0.7818608E-02  0.8857749E-01
         -2   -1    0    0    0  501 -0.00000000000E+00  0.00000000000E+00  0.56294817252E+03  0.56294817252E+03  0.00000000000E+00 0. -1.
          2   -1    0    0  501    0  0.00000000000E+00 -0.00000000000E+00 -0.10543358981E+04  0.10543358981E+04  0.00000000000E+00 0.  1.
         23    2    1    2    0    0 -0.48632016294E+03 -0.19102541319E+03 -0.83692925617E+03  0.99086810757E+03  0.91493264300E+02 0.  0.
         13    1    3    3    0    0 -0.38585793452E+03 -0.13756475270E+03 -0.58221928056E+03  0.71189163324E+03  0.00000000000E+00 0. -1.
        -13    1    3    3    0    0 -0.10046222841E+03 -0.53460660487E+02 -0.25470997560E+03  0.27897647433E+03  0.00000000000E+00 0.  1.
         22    1    1    2    0    0  0.48632016294E+03  0.19102541319E+03  0.34554153060E+03  0.62641596303E+03  0.00000000000E+00 0. -1.
<mgrwt>
<rscale>  0 0.15408264E+04</rscale>
<asrwt>0</asrwt>
<pdfrwt beam="1">  1        2 0.16220552E+00 0.15408264E+04</pdfrwt>
<pdfrwt beam="2">  1       -2 0.86607412E-01 0.15408264E+04</pdfrwt>
<totfact> 0.25872549E+01</totfact>
</mgrwt>
</event>
<event>
 6    1  0.5210486E-004  0.3830429E+04  0.7818608E-02  0.8039656E-01
          2   -1    0    0  501    0  0.00000000000E+00  0.00000000000E+00  0.29864595058E+04  0.29864595058E+04  0.00000000000E+00 0.  1.
         -2   -1    0    0    0  501 -0.00000000000E+00 -0.00000000000E+00 -0.12282259930E+04  0.12282259930E+04  0.00000000000E+00 0. -1.
         23    2    1    2    0    0 -0.10037090615E+04 -0.15888984538E+04  0.48034704969E+03  0.19420165856E+04  0.93085735163E+02 0.  0.
         11    1    3    3    0    0 -0.29637252191E+03 -0.50205347665E+03  0.10858622076E+03  0.59303063370E+03  0.00000000000E+00 0. -1.
        -11    1    3    3    0    0 -0.70733653955E+03 -0.10868449771E+04  0.37176082893E+03  0.13489859519E+04  0.00000000000E+00 0.  1.
         22    1    1    2    0    0  0.10037090615E+04  0.15888984538E+04  0.12778864631E+04  0.22726689132E+04  0.00000000000E+00 0.  1.
<mgrwt>
<rscale>  0 0.38304293E+04</rscale>
<asrwt>0</asrwt>
<pdfrwt beam="1">  1        2 0.45945531E+00 0.38304293E+04</pdfrwt>
<pdfrwt beam="2">  1       -2 0.18895785E+00 0.38304293E+04</pdfrwt>
<totfact> 0.22355696E-01</totfact>
</mgrwt>
</event>
<event>
 6    1  0.5196787E-004  0.2954411E+04  0.7818608E-02  0.8256870E-01
         -2   -1    0    0    0  501 -0.00000000000E+00  0.00000000000E+00  0.15583854639E+04  0.15583854639E+04  0.00000000000E+00 0. -1.
          2   -1    0    0  501    0  0.00000000000E+00 -0.00000000000E+00 -0.14002542211E+04  0.14002542211E+04  0.00000000000E+00 0.  1.
         23    2    1    2    0    0  0.30505909720E+03  0.12392087452E+04 -0.66280458799E+03  0.14411961093E+04  0.95062804541E+02 0.  0.
         13    1    3    3    0    0  0.10035792038E+02  0.11836022510E+02 -0.17908802428E+00  0.15519040666E+02  0.00000000000E+00 0.  1.
        -13    1    3    3    0    0  0.29502330516E+03  0.12273727227E+04 -0.66262549996E+03  0.14256770687E+04  0.00000000000E+00 0. -1.
         22    1    1    2    0    0 -0.30505909720E+03 -0.12392087452E+04  0.82093583087E+03  0.15174435757E+04  0.00000000000E+00 0.  1.
<mgrwt>
<rscale>  0 0.29544108E+04</rscale>
<asrwt>0</asrwt>
<pdfrwt beam="1">  1        2 0.21542373E+00 0.29544108E+04</pdfrwt>
<pdfrwt beam="2">  1       -2 0.23975161E+00 0.29544108E+04</pdfrwt>
<totfact> 0.92400504E-01</totfact>
</mgrwt>
</event>
<event>
 6    1  0.5196787E-004  0.1509747E+04  0.7818608E-02  0.8877997E-01
         -2   -1    0    0    0  501 -0.00000000000E+00  0.00000000000E+00  0.30902155578E+03  0.30902155578E+03  0.00000000000E+00 0. -1.
          2   -1    0    0  501    0  0.00000000000E+00 -0.00000000000E+00 -0.18439954055E+04  0.18439954055E+04  0.00000000000E+00 0.  1.
         23    2    1    2    0    0  0.39247084568E+03 -0.63513442784E+03 -0.89977564321E+03  0.11727588995E+04  0.91313318276E+02 0.  0.
         13    1    3    3    0    0  0.98714918224E+02 -0.23675676088E+03 -0.28355973854E+03  0.38236700201E+03  0.00000000000E+00 0.  1.
        -13    1    3    3    0    0  0.29375592746E+03 -0.39837766696E+03 -0.61621590467E+03  0.79039189749E+03  0.00000000000E+00 0. -1.
         22    1    1    2    0    0 -0.39247084568E+03  0.63513442784E+03 -0.63519820651E+03  0.98025806178E+03  0.00000000000E+00 0.  1.
<mgrwt>
<rscale>  0 0.15097474E+04</rscale>
<asrwt>0</asrwt>
<pdfrwt beam="1">  1        2 0.28369160E+00 0.15097474E+04</pdfrwt>
<pdfrwt beam="2">  1       -2 0.47541777E-01 0.15097474E+04</pdfrwt>
<totfact> 0.33020731E+01</totfact>
</mgrwt>
</event>
<event>
 6    1  0.5196787E-004  0.1955096E+04  0.7818608E-02  0.8627907E-01
          2   -1    0    0  501    0  0.00000000000E+00  0.00000000000E+00  0.23458400111E+04  0.23458400111E+04  0.00000000000E+00 0.  1.
         -2   -1    0    0    0  501 -0.00000000000E+00 -0.00000000000E+00 -0.40735955906E+03  0.40735955906E+03  0.00000000000E+00 0. -1.
         23    2    1    2    0    0 -0.74567530393E+03  0.36092465288E+03  0.16963260518E+04  0.18901022306E+04  0.93091912552E+02 0.  0.
         13    1    3    3    0    0 -0.22650234883E+03  0.66539359477E+02  0.51743726871E+03  0.56874610103E+03  0.00000000000E+00 0. -1.
        -13    1    3    3    0    0 -0.51917295510E+03  0.29438529340E+03  0.11788887831E+04  0.13213561296E+04  0.00000000000E+00 0.  1.
         22    1    1    2    0    0  0.74567530393E+03 -0.36092465288E+03  0.24215440021E+03  0.86309733952E+03  0.00000000000E+00 0. -1.
<mgrwt>
<rscale>  0 0.19550963E+04</rscale>
<asrwt>0</asrwt>
<pdfrwt beam="1">  1        2 0.36089845E+00 0.19550963E+04</pdfrwt>
<pdfrwt beam="2">  1       -2 0.62670703E-01 0.19550963E+04</pdfrwt>
<totfact> 0.94011440E+00</totfact>
</mgrwt>
</event>
<event>
 6    1  0.5196787E-004  0.1283472E+04  0.7818608E-02  0.9042776E-01
         -2   -1    0    0    0  501 -0.00000000000E+00  0.00000000000E+00  0.35794232123E+03  0.35794232123E+03  0.00000000000E+00 0. -1.
          2   -1    0    0  501    0  0.00000000000E+00 -0.00000000000E+00 -0.11505343876E+04  0.11505343876E+04  0.00000000000E+00 0.  1.
         23    2    1    2    0    0  0.45673960321E+02  0.14224120964E+03 -0.11278702986E+04  0.11414206295E+04  0.91820315946E+02 0.  0.
         11    1    3    3    0    0 -0.10155347661E+02  0.10434300106E+03 -0.78541395290E+03  0.79237975136E+03  0.00000000000E+00 0. -1.
        -11    1    3    3    0    0  0.55829307983E+02  0.37898208578E+02 -0.34245634574E+03  0.34904087809E+03  0.00000000000E+00 0.  1.
         22    1    1    2    0    0 -0.45673960321E+02 -0.14224120964E+03  0.33527823227E+03  0.36705607938E+03  0.00000000000E+00 0. -1.
<mgrwt>
<rscale>  0 0.12834718E+04</rscale>
<asrwt>0</asrwt>
<pdfrwt beam="1">  1        2 0.17700529E+00 0.12834718E+04</pdfrwt>
<pdfrwt beam="2">  1       -2 0.55068050E-01 0.12834718E+04</pdfrwt>
<totfact> 0.61727211E+01</totfact>
</mgrwt>
</event>
<event>
 6    1  0.5196787E-004  0.1434494E+04  0.7818608E-02  0.8929222E-01
         -2   -1    0    0    0  501 -0.00000000000E+00  0.00000000000E+00  0.14663752989E+03  0.14663752989E+03  0.00000000000E+00 0. -1.
          2   -1    0    0  501    0  0.00000000000E+00 -0.00000000000E+00 -0.35082636197E+04  0.35082636197E+04  0.00000000000E+00 0.  1.
         23    2    1    2    0    0  0.14386087609E+03 -0.68056698004E+03 -0.12719353737E+04  0.14524764278E+04  0.89447261377E+02 0.  0.
         11    1    3    3    0    0  0.72500194367E+02 -0.27338148845E+03 -0.60441972330E+03  0.66732070125E+03  0.00000000000E+00 0.  1.
        -11    1    3    3    0    0  0.71360681722E+02 -0.40718549159E+03 -0.66751565041E+03  0.78515572659E+03  0.00000000000E+00 0. -1.
         22    1    1    2    0    0 -0.14386087609E+03  0.68056698004E+03 -0.20896907161E+04  0.22024247218E+04  0.00000000000E+00 0.  1.
<mgrwt>
<rscale>  0 0.14344938E+04</rscale>
<asrwt>0</asrwt>
<pdfrwt beam="1">  1        2 0.53973287E+00 0.14344938E+04</pdfrwt>
<pdfrwt beam="2">  1       -2 0.22559620E-01 0.14344938E+04</pdfrwt>
<totfact> 0.13666063E+01</totfact>
</mgrwt>
</event>
<event>
 6    1  0.5196787E-004  0.3621879E+04  0.7818608E-02  0.8085498E-01
         -2   -1    0    0    0  501 -0.00000000000E+00  0.00000000000E+00  0.11331658791E+04  0.11331658791E+04  0.00000000000E+00 0. -1.
          2   -1    0    0  501    0  0.00000000000E+00 -0.00000000000E+00 -0.28941055366E+04  0.28941055366E+04  0.00000000000E+00 0.  1.
         23    2    1    2    0    0 -0.54828472174E+02  0.18070450344E+04 -0.97616372339E+03  0.20564108969E+04  0.86673204439E+02 0.  0.
         13    1    3    3    0    0  0.66538899251E+01  0.62275305229E+03 -0.37305095240E+03  0.72597014503E+03  0.00000000000E+00 0.  1.
        -13    1    3    3    0    0 -0.61482362099E+02  0.11842919821E+04 -0.60311277099E+03  0.13304407519E+04  0.00000000000E+00 0. -1.
         22    1    1    2    0    0  0.54828472174E+02 -0.18070450344E+04 -0.78477593406E+03  0.19708605188E+04  0.00000000000E+00 0.  1.
<mgrwt>
<rscale>  0 0.36218789E+04</rscale>
<asrwt>0</asrwt>
<pdfrwt beam="1">  1        2 0.44524700E+00 0.36218789E+04</pdfrwt>
<pdfrwt beam="2">  1       -2 0.17433321E+00 0.36218789E+04</pdfrwt>
<totfact> 0.32719130E-01</totfact>
</mgrwt>
</event>
<event>
 6    1  0.5196787E-004  0.4073829E+04  0.7818608E-02  0.7989816E-01
         -2   -1    0    0    0  501 -0.00000000000E+00  0.00000000000E+00  0.11343753183E+04  0.11343753183E+04  0.00000000000E+00 0. -1.
          2   -1    0    0  501    0  0.00000000000E+00 -0.00000000000E+00 -0.36575380300E+04  0.36575380300E+04  0.00000000000E+00 0.  1.
         23    2    1    2    0    0  0.85879007005E+03  0.15456503049E+04 -0.75338632682E+02  0.17722448282E+04  0.92847035635E+02 0.  0.
         11    1    3    3    0    0  0.51651615831E+03  0.10122754276E+04 -0.67605851162E+02  0.11384467639E+04  0.00000000000E+00 0.  1.
        -11    1    3    3    0    0  0.34227391174E+03  0.53337487728E+03 -0.77327815200E+01  0.63379806428E+03  0.00000000000E+00 0. -1.
         22    1    1    2    0    0 -0.85879007005E+03 -0.15456503049E+04 -0.24478240791E+04  0.30196685201E+04  0.00000000000E+00 0.  1.
<mgrwt>
<rscale>  0 0.40738291E+04</rscale>
<asrwt>0</asrwt>
<pdfrwt beam="1">  1        2 0.56269816E+00 0.40738291E+04</pdfrwt>
<pdfrwt beam="2">  1       -2 0.17451928E+00 0.40738291E+04</pdfrwt>
<totfact> 0.97161211E-02</totfact>
</mgrwt>
</event>
<event>
 6    1  0.5196787E-004  0.1500495E+04  0.7818608E-02  0.8884124E-01
          1   -1    0    0  501    0  0.00000000000E+00  0.00000000000E+00  0.10571927429E+04  0.10571927429E+04  0.00000000000E+00 0. -1.
         -1   -1    0    0    0  501 -0.00000000000E+00 -0.00000000000E+00 -0.53242048790E+03  0.53242048790E+03  0.00000000000E+00 0.  1.
         23    2    1    2    0    0 -0.64493411102E+03  0.33287691898E+03  0.45261093864E+03  0.86026125386E+03  0.91900557016E+02 0.  0.
         11    1    3    3    0    0 -0.30003533687E+03  0.10589083897E+03  0.18116457659E+03  0.36613477978E+03  0.00000000000E+00 0.  1.
        -11    1    3    3    0    0 -0.34489877414E+03  0.22698608001E+03  0.27144636205E+03  0.49412647409E+03  0.00000000000E+00 0. -1.
         22    1    1    2    0    0  0.64493411102E+03 -0.33287691898E+03  0.72161316412E+02  0.72935197698E+03  0.00000000000E+00 0.  1.
<mgrwt>
<rscale>  0 0.15004947E+04</rscale>
<asrwt>0</asrwt>
<pdfrwt beam="1">  1        1 0.16264504E+00 0.15004947E+04</pdfrwt>
<pdfrwt beam="2">  1       -1 0.81910845E-01 0.15004947E+04</pdfrwt>
<totfact> 0.19606663E+01</totfact>
</mgrwt>
</event>
<event>
 6    1  0.5196787E-004  0.3719639E+04  0.7818608E-02  0.8063624E-01
         -2   -1    0    0    0  501 -0.00000000000E+00  0.00000000000E+00  0.81777362282E+03  0.81777362282E+03  0.00000000000E+00 0. -1.
          2   -1    0    0  501    0  0.00000000000E+00 -0.00000000000E+00 -0.42296890220E+04  0.42296890220E+04  0.00000000000E+00 0.  1.
         23    2    1    2    0    0  0.27248577271E+03  0.94795808190E+03  0.43072436840E+03  0.10802528691E+04  0.92464902686E+02 0.  0.
         13    1    3    3    0    0  0.10897872022E+03  0.35605549708E+03  0.11464837310E+03  0.38961022563E+03  0.00000000000E+00 0.  1.
        -13    1    3    3    0    0  0.16350705248E+03  0.59190258482E+03  0.31607599530E+03  0.69064264344E+03  0.00000000000E+00 0. -1.
         22    1    1    2    0    0 -0.27248577271E+03 -0.94795808190E+03 -0.38426397675E+04  0.39672097757E+04  0.00000000000E+00 0.  1.
<mgrwt>
<rscale>  0 0.37196388E+04</rscale>
<asrwt>0</asrwt>
<pdfrwt beam="1">  1        2 0.65072139E+00 0.37196388E+04</pdfrwt>
<pdfrwt beam="2">  1       -2 0.12581133E+00 0.37196388E+04</pdfrwt>
<totfact> 0.83050285E-02</totfact>
</mgrwt>
</event>
<event>
 6    1  0.5196787E-004  0.2758337E+04  0.7818608E-02  0.8316321E-01
          2   -1    0    0  501    0  0.00000000000E+00  0.00000000000E+00  0.13103144468E+04  0.13103144468E+04  0.00000000000E+00 0.  1.
         -2   -1    0    0    0  501 -0.00000000000E+00 -0.00000000000E+00 -0.14516402981E+04  0.14516402981E+04  0.00000000000E+00 0. -1.
         23    2    1    2    0    0 -0.10639377954E+04 -0.28561264727E+03 -0.89954039427E+03  0.14246337251E+04  0.82886144609E+02 0.  0.
         11    1    3    3    0    0 -0.50511746687E+03 -0.13431845951E+03 -0.48027748045E+03  0.70982502219E+03  0.00000000000E+00 0.  1.
        -11    1    3    3    0    0 -0.55882032855E+03 -0.15129418775E+03 -0.41926291383E+03  0.71480870291E+03  0.00000000000E+00 0. -1.
         22    1    1    2    0    0  0.10639377954E+04  0.28561264727E+03  0.75821454302E+03  0.13373210198E+04  0.00000000000E+00 0.  1.
<mgrwt>
<rscale>  0 0.27583366E+04</rscale>
<asrwt>0</asrwt>
<pdfrwt beam="1">  1        2 0.20158684E+00 0.27583366E+04</pdfrwt>
<pdfrwt beam="2">  1       -2 0.22332928E+00 0.27583366E+04</pdfrwt>
<totfact> 0.13404182E+00</totfact>
</mgrwt>
</event>
<event>
 6    1  0.5196787E-004  0.3288235E+04  0.7818608E-02  0.8165895E-01
         -2   -1    0    0    0  501 -0.00000000000E+00  0.00000000000E+00  0.93544103617E+03  0.93544103617E+03  0.00000000000E+00 0. -1.
          2   -1    0    0  501    0  0.00000000000E+00 -0.00000000000E+00 -0.28896773572E+04  0.28896773572E+04  0.00000000000E+00 0.  1.
         23    2    1    2    0    0 -0.14517481409E+04  0.22994228445E+03 -0.18313708947E+04  0.23501465185E+04  0.93931812239E+02 0.  0.
         11    1    3    3    0    0 -0.72430595175E+03  0.72960227494E+02 -0.86978221841E+03  0.11342237054E+04  0.00000000000E+00 0.  1.
        -11    1    3    3    0    0 -0.72744218914E+03  0.15698205696E+03 -0.96158867633E+03  0.12159228130E+04  0.00000000000E+00 0. -1.
         22    1    1    2    0    0  0.14517481409E+04 -0.22994228445E+03 -0.12286542628E+03  0.14749718749E+04  0.00000000000E+00 0. -1.
<mgrwt>
<rscale>  0 0.32882353E+04</rscale>
<asrwt>0</asrwt>
<pdfrwt beam="1">  1        2 0.44456575E+00 0.32882353E+04</pdfrwt>
<pdfrwt beam="2">  1       -2 0.14391401E+00 0.32882353E+04</pdfrwt>
<totfact> 0.56926913E-01</totfact>
</mgrwt>
</event>
<event>
 6    1  0.5196787E-004  0.3634577E+04  0.7818608E-02  0.8082617E-01
         -2   -1    0    0    0  501 -0.00000000000E+00  0.00000000000E+00  0.10848590848E+04  0.10848590848E+04  0.00000000000E+00 0. -1.
          2   -1    0    0  501    0  0.00000000000E+00 -0.00000000000E+00 -0.30442093802E+04  0.30442093802E+04  0.00000000000E+00 0.  1.
         23    2    1    2    0    0 -0.16205997728E+04 -0.42140291979E+03 -0.18149699727E+03  0.16867977195E+04  0.91767869334E+02 0.  0.
         11    1    3    3    0    0 -0.73654781007E+03 -0.14474888612E+03 -0.75477860859E+02  0.75442151616E+03  0.00000000000E+00 0. -1.
        -11    1    3    3    0    0 -0.88405196275E+03 -0.27665403366E+03 -0.10601913641E+03  0.93237620330E+03  0.00000000000E+00 0.  1.
         22    1    1    2    0    0  0.16205997728E+04  0.42140291979E+03 -0.17778532982E+04  0.24422707455E+04  0.00000000000E+00 0.  1.
<mgrwt>
<rscale>  0 0.36345774E+04</rscale>
<asrwt>0</asrwt>
<pdfrwt beam="1">  1        2 0.46833990E+00 0.36345774E+04</pdfrwt>
<pdfrwt beam="2">  1       -2 0.16690140E+00 0.36345774E+04</pdfrwt>
<totfact> 0.29747006E-01</totfact>
</mgrwt>
</event>
<event>
 6    1  0.5196787E-004  0.2176102E+04  0.7818608E-02  0.8528441E-01
         -2   -1    0    0    0  501 -0.00000000000E+00  0.00000000000E+00  0.39817780918E+03  0.39817780918E+03  0.00000000000E+00 0. -1.
          2   -1    0    0  501    0  0.00000000000E+00 -0.00000000000E+00 -0.29731827163E+04  0.29731827163E+04  0.00000000000E+00 0.  1.
         23    2    1    2    0    0 -0.49129039871E+03 -0.52315454335E+03 -0.26519328200E+02  0.72375109845E+03  0.89752134529E+02 0.  0.
         11    1    3    3    0    0 -0.33448039537E+03 -0.36669681190E+03 -0.59166508576E+02  0.49984433825E+03  0.00000000000E+00 0. -1.
        -11    1    3    3    0    0 -0.15681000334E+03 -0.15645773145E+03  0.32647180376E+02  0.22390676020E+03  0.00000000000E+00 0.  1.
         22    1    1    2    0    0  0.49129039871E+03  0.52315454335E+03 -0.25484855790E+04  0.26476094271E+04  0.00000000000E+00 0.  1.
<mgrwt>
<rscale>  0 0.21761024E+04</rscale>
<asrwt>0</asrwt>
<pdfrwt beam="1">  1        2 0.45741271E+00 0.21761024E+04</pdfrwt>
<pdfrwt beam="2">  1       -2 0.61258126E-01 0.21761024E+04</pdfrwt>
<totfact> 0.41129554E+00</totfact>
</mgrwt>
</event>
<event>
 6    1  0.5196787E-004  0.1601413E+04  0.7818608E-02  0.8819681E-01
          2   -1    0    0  501    0  0.00000000000E+00  0.00000000000E+00  0.51431285074E+03  0.51431285074E+03  0.00000000000E+00 0.  1.
         -2   -1    0    0    0  501 -0.00000000000E+00 -0.00000000000E+00 -0.12465774268E+04  0.12465774268E+04  0.00000000000E+00 0. -1.
         23    2    1    2    0    0  0.31211130136E+03 -0.55603801198E+03  0.16045873701E+03  0.66382754055E+03  0.91259312470E+02 0.  0.
         13    1    3    3    0    0  0.16697897988E+03 -0.25806480175E+03  0.11983487358E+03  0.32990880338E+03  0.00000000000E+00 0.  1.
        -13    1    3    3    0    0  0.14513232148E+03 -0.29797321023E+03  0.40623863422E+02  0.33391873717E+03  0.00000000000E+00 0. -1.
         22    1    1    2    0    0 -0.31211130136E+03  0.55603801198E+03 -0.89272331307E+03  0.10970627370E+04  0.00000000000E+00 0.  1.
<mgrwt>
<rscale>  0 0.16014129E+04</rscale>
<asrwt>0</asrwt>
<pdfrwt beam="1">  1        2 0.79125054E-01 0.16014129E+04</pdfrwt>
<pdfrwt beam="2">  1       -2 0.19178114E+00 0.16014129E+04</pdfrwt>
<totfact> 0.86062465E+00</totfact>
</mgrwt>
</event>
<event>
 6    1  0.5196787E-004  0.2323398E+04  0.7818608E-02  0.8468752E-01
         -2   -1    0    0    0  501 -0.00000000000E+00  0.00000000000E+00  0.31644050885E+03  0.31644050885E+03  0.00000000000E+00 0. -1.
          2   -1    0    0  501    0  0.00000000000E+00 -0.00000000000E+00 -0.42647672560E+04  0.42647672560E+04  0.00000000000E+00 0.  1.
         23    2    1    2    0    0  0.75173173547E+03 -0.26594708338E+03 -0.36380942754E+04  0.37255953293E+04  0.92207092355E+02 0.  0.
         11    1    3    3    0    0  0.43315658321E+03 -0.14476295290E+03 -0.18714576712E+04  0.19263786630E+04  0.00000000000E+00 0. -1.
        -11    1    3    3    0    0  0.31857515225E+03 -0.12118413048E+03 -0.17666366042E+04  0.17992166663E+04  0.00000000000E+00 0.  1.
         22    1    1    2    0    0 -0.75173173547E+03  0.26594708338E+03 -0.31023247171E+03  0.85561243549E+03  0.00000000000E+00 0. -1.
<mgrwt>
<rscale>  0 0.23233985E+04</rscale>
<asrwt>0</asrwt>
<pdfrwt beam="1">  1        2 0.65611800E+00 0.23233985E+04</pdfrwt>
<pdfrwt beam="2">  1       -2 0.48683158E-01 0.23233985E+04</pdfrwt>
<totfact> 0.74293360E-01</totfact>
</mgrwt>
</event>
<event>
 6    1  0.5196787E-004  0.3382613E+04  0.7818608E-02  0.8142187E-01
          2   -1    0    0  501    0  0.00000000000E+00  0.00000000000E+00  0.24873467486E+04  0.24873467486E+04  0.00000000000E+00 0.  1.
         -2   -1    0    0    0  501 -0.00000000000E+00 -0.00000000000E+00 -0.11500278440E+04  0.11500278440E+04  0.00000000000E+00 0. -1.
         23    2    1    2    0    0 -0.14344124006E+04  0.78128803057E+03  0.11361658823E+04  0.19916490808E+04  0.88561997429E+02 0.  0.
         13    1    3    3    0    0 -0.10596355044E+03  0.83960339635E+02  0.10351461467E+03  0.17027298113E+03  0.00000000000E+00 0.  1.
        -13    1    3    3    0    0 -0.13284488502E+04  0.69732769093E+03  0.10326512676E+04  0.18213760997E+04  0.00000000000E+00 0. -1.
         22    1    1    2    0    0  0.14344124006E+04 -0.78128803057E+03  0.20115302225E+03  0.16457255118E+04  0.00000000000E+00 0. -1.
<mgrwt>
<rscale>  0 0.33826132E+04</rscale>
<asrwt>0</asrwt>
<pdfrwt beam="1">  1        2 0.38266873E+00 0.33826132E+04</pdfrwt>
<pdfrwt beam="2">  1       -2 0.17692736E+00 0.33826132E+04</pdfrwt>
<totfact> 0.55935101E-01</totfact>
</mgrwt>
</event>
<event>
 6    1  0.5196787E-004  0.3360667E+04  0.7818608E-02  0.8147628E-01
          2   -1    0    0  501    0  0.00000000000E+00  0.00000000000E+00  0.13736423729E+04  0.13736423729E+04  0.00000000000E+00 0.  1.
         -2   -1    0    0    0  501 -0.00000000000E+00 -0.00000000000E+00 -0.20554985788E+04  0.20554985788E+04  0.00000000000E+00 0. -1.
         23    2    1    2    0    0 -0.13303027773E+04  0.81592420606E+03  0.29089327855E+03  0.15902066548E+04  0.93276557208E+02 0.  0.
         13    1    3    3    0    0 -0.19542377853E+03  0.15740340054E+03  0.59021029416E+02  0.25777852050E+03  0.00000000000E+00 0.  1.
        -13    1    3    3    0    0 -0.11348789987E+04  0.65852080552E+03  0.23187224913E+03  0.13324281343E+04  0.00000000000E+00 0. -1.
         22    1    1    2    0    0  0.13303027773E+04 -0.81592420606E+03 -0.97274948442E+03  0.18389342970E+04  0.00000000000E+00 0. -1.
<mgrwt>
<rscale>  0 0.33606666E+04</rscale>
<asrwt>0</asrwt>
<pdfrwt beam="1">  1        2 0.21132960E+00 0.33606666E+04</pdfrwt>
<pdfrwt beam="2">  1       -2 0.31623055E+00 0.33606666E+04</pdfrwt>
<totfact> 0.31452682E-01</totfact>
</mgrwt>
</event>
<event>
 6    1  0.5196787E-004  0.2976257E+04  0.7818608E-02  0.8250544E-01
          2   -1    0    0  501    0  0.00000000000E+00  0.00000000000E+00  0.28222289553E+04  0.28222289553E+04  0.00000000000E+00 0.  1.
         -2   -1    0    0    0  501 -0.00000000000E+00 -0.00000000000E+00 -0.78467260034E+03  0.78467260034E+03  0.00000000000E+00 0. -1.
         23    2    1    2    0    0  0.17262759695E+03  0.12542728222E+04  0.75357426700E+02  0.12716873826E+04  0.92246720883E+02 0.  0.
         11    1    3    3    0    0  0.12365655342E+03  0.11131334020E+04  0.61938351594E+02  0.11216921473E+04  0.00000000000E+00 0. -1.
        -11    1    3    3    0    0  0.48971043534E+02  0.14113942025E+03  0.13419075106E+02  0.14999523536E+03  0.00000000000E+00 0.  1.
         22    1    1    2    0    0 -0.17262759695E+03 -0.12542728222E+04  0.19621989282E+04  0.23352141730E+04  0.00000000000E+00 0.  1.
<mgrwt>
<rscale>  0 0.29762565E+04</rscale>
<asrwt>0</asrwt>
<pdfrwt beam="1">  1        2 0.43418906E+00 0.29762565E+04</pdfrwt>
<pdfrwt beam="2">  1       -2 0.12071886E+00 0.29762565E+04</pdfrwt>
<totfact> 0.10054189E+00</totfact>
</mgrwt>
</event>
<event>
 6    1  0.5196787E-004  0.2102723E+04  0.7818608E-02  0.8560045E-01
          2   -1    0    0  501    0  0.00000000000E+00  0.00000000000E+00  0.23161845600E+04  0.23161845600E+04  0.00000000000E+00 0. -1.
         -2   -1    0    0    0  501 -0.00000000000E+00 -0.00000000000E+00 -0.47723336077E+03  0.47723336077E+03  0.00000000000E+00 0.  1.
         23    2    1    2    0    0 -0.57982463489E+03 -0.75206180987E+03  0.15145608082E+04  0.17899127146E+04  0.89997283376E+02 0.  0.
         13    1    3    3    0    0 -0.26798916169E+03 -0.36815194501E+03  0.80727013527E+03  0.92684363120E+03  0.00000000000E+00 0.  1.
        -13    1    3    3    0    0 -0.31183547320E+03 -0.38390986487E+03  0.70729067290E+03  0.86306908337E+03  0.00000000000E+00 0. -1.
         22    1    1    2    0    0  0.57982463489E+03  0.75206180987E+03  0.32439039109E+03  0.10035052062E+04  0.00000000000E+00 0. -1.
<mgrwt>
<rscale>  0 0.21027226E+04</rscale>
<asrwt>0</asrwt>
<pdfrwt beam="1">  1        2 0.35633608E+00 0.21027226E+04</pdfrwt>
<pdfrwt beam="2">  1       -2 0.73420519E-01 0.21027226E+04</pdfrwt>
<totfact> 0.68455223E+00</totfact>
</mgrwt>
</event>
<event>
 6    1  0.5196787E-004  0.1830863E+04  0.7818608E-02  0.8690057E-01
          2   -1    0    0  501    0  0.00000000000E+00  0.00000000000E+00  0.58253196639E+03  0.58253196639E+03  0.00000000000E+00 0.  1.
         -2   -1    0    0    0  501 -0.00000000000E+00 -0.00000000000E+00 -0.14385731099E+04  0.14385731099E+04  0.00000000000E+00 0. -1.
         23    2    1    2    0    0  0.63378986692E+03 -0.59249357438E+03 -0.74382339477E+03  0.11462730614E+04  0.89053116730E+02 0.  0.
         11    1    3    3    0    0  0.31753695196E+03 -0.23893176619E+03 -0.35659373227E+03  0.53392620712E+03  0.00000000000E+00 0. -1.
        -11    1    3    3    0    0  0.31625291496E+03 -0.35356180819E+03 -0.38722966250E+03  0.61234685429E+03  0.00000000000E+00 0.  1.
         22    1    1    2    0    0 -0.63378986692E+03  0.59249357438E+03 -0.11221774870E+03  0.87483201486E+03  0.00000000000E+00 0.  1.
<mgrwt>
<rscale>  0 0.18308630E+04</rscale>
<asrwt>0</asrwt>
<pdfrwt beam="1">  1        2 0.89620303E-01 0.18308630E+04</pdfrwt>
<pdfrwt beam="2">  1       -2 0.22131894E+00 0.18308630E+04</pdfrwt>
<totfact> 0.46898074E+00</totfact>
</mgrwt>
</event>
<event>
 6    1  0.5196787E-004  0.2549136E+04  0.7818608E-02  0.8385687E-01
          2   -1    0    0  501    0  0.00000000000E+00  0.00000000000E+00  0.24129705317E+04  0.24129705317E+04  0.00000000000E+00 0.  1.
         -2   -1    0    0    0  501 -0.00000000000E+00 -0.00000000000E+00 -0.67324641369E+03  0.67324641369E+03  0.00000000000E+00 0. -1.
         23    2    1    2    0    0  0.59199337164E+03  0.34440882930E+03  0.21700557090E+04  0.22773542427E+04  0.90149724055E+02 0.  0.
         13    1    3    3    0    0  0.10821337874E+03  0.71201990803E+02  0.53587172647E+03  0.55130605480E+03  0.00000000000E+00 0. -1.
        -13    1    3    3    0    0  0.48377999291E+03  0.27320683849E+03  0.16341839825E+04  0.17260481879E+04  0.00000000000E+00 0.  1.
         22    1    1    2    0    0 -0.59199337164E+03 -0.34440882930E+03 -0.43033159094E+03  0.80886270276E+03  0.00000000000E+00 0. -1.
<mgrwt>
<rscale>  0 0.25491361E+04</rscale>
<asrwt>0</asrwt>
<pdfrwt beam="1">  1        2 0.37122623E+00 0.25491361E+04</pdfrwt>
<pdfrwt beam="2">  1       -2 0.10357637E+00 0.25491361E+04</pdfrwt>
<totfact> 0.26361926E+00</totfact>
</mgrwt>
</event>
<event>
 6    1  0.5196787E-004  0.2329687E+04  0.7818608E-02  0.8466307E-01
         -2   -1    0    0    0  501 -0.00000000000E+00  0.00000000000E+00  0.96212064644E+03  0.96212064644E+03  0.00000000000E+00 0. -1.
          2   -1    0    0  501    0  0.00000000000E+00 -0.00000000000E+00 -0.14102813482E+04  0.14102813482E+04  0.00000000000E+00 0.  1.
         23    2    1    2    0    0  0.52145033639E+03 -0.24245128826E+03  0.80511860911E+03  0.99348861390E+03  0.90058707076E+02 0.  0.
         11    1    3    3    0    0  0.36598550917E+03 -0.12709212645E+03  0.50819874253E+03  0.63903346034E+03  0.00000000000E+00 0.  1.
        -11    1    3    3    0    0  0.15546482722E+03 -0.11535916181E+03  0.29691986658E+03  0.35445515356E+03  0.00000000000E+00 0. -1.
         22    1    1    2    0    0 -0.52145033639E+03  0.24245128826E+03 -0.12532793109E+04  0.13789133808E+04  0.00000000000E+00 0.  1.
<mgrwt>
<rscale>  0 0.23296874E+04</rscale>
<asrwt>0</asrwt>
<pdfrwt beam="1">  1        2 0.21696636E+00 0.23296874E+04</pdfrwt>
<pdfrwt beam="2">  1       -2 0.14801856E+00 0.23296874E+04</pdfrwt>
<totfact> 0.40077901E+00</totfact>
</mgrwt>
</event>
<event>
 6    1  0.5196787E-004  0.2362000E+04  0.7818608E-02  0.8453869E-01
         -2   -1    0    0    0  501 -0.00000000000E+00  0.00000000000E+00  0.15306770779E+04  0.15306770779E+04  0.00000000000E+00 0. -1.
          2   -1    0    0  501    0  0.00000000000E+00 -0.00000000000E+00 -0.91120498448E+03  0.91120498448E+03  0.00000000000E+00 0.  1.
         23    2    1    2    0    0 -0.77068686489E+03 -0.39568737813E+03  0.11372870069E+04  0.14325956662E+04  0.91552508771E+02 0.  0.
         13    1    3    3    0    0 -0.25118667856E+03 -0.17250973628E+03  0.43179601340E+03  0.52849044815E+03  0.00000000000E+00 0. -1.
        -13    1    3    3    0    0 -0.51950018633E+03 -0.22317764185E+03  0.70549099348E+03  0.90410521804E+03  0.00000000000E+00 0.  1.
         22    1    1    2    0    0  0.77068686489E+03  0.39568737813E+03 -0.51781491346E+03  0.10092863962E+04  0.00000000000E+00 0. -1.
<mgrwt>
<rscale>  0 0.23619996E+04</rscale>
<asrwt>0</asrwt>
<pdfrwt beam="1">  1        2 0.14018538E+00 0.23619996E+04</pdfrwt>
<pdfrwt beam="2">  1       -2 0.23548878E+00 0.23619996E+04</pdfrwt>
<totfact> 0.20532088E+00</totfact>
</mgrwt>
</event>
<event>
 6    1  0.5196787E-004  0.3074448E+04  0.7818608E-02  0.8222786E-01
          4   -1    0    0  501    0  0.00000000000E+00  0.00000000000E+00  0.21732268258E+04  0.21732268258E+04  0.00000000000E+00 0.  1.
         -4   -1    0    0    0  501 -0.00000000000E+00 -0.00000000000E+00 -0.10873495391E+04  0.10873495391E+04  0.00000000000E+00 0. -1.
         23    2    1    2    0    0  0.15276653750E+04  0.76600892589E+02  0.69118034441E+03  0.16808881454E+04  0.89585121764E+02 0.  0.
         11    1    3    3    0    0  0.11480613455E+04  0.71893960441E+02  0.47970080549E+03  0.12463251813E+04  0.00000000000E+00 0.  1.
        -11    1    3    3    0    0  0.37960402946E+03  0.47069321481E+01  0.21147953892E+03  0.43456296411E+03  0.00000000000E+00 0. -1.
         22    1    1    2    0    0 -0.15276653750E+04 -0.76600892589E+02  0.39469694236E+03  0.15796882195E+04  0.00000000000E+00 0. -1.
<mgrwt>
<rscale>  0 0.30744477E+04</rscale>
<asrwt>0</asrwt>
<pdfrwt beam="1">  1        4 0.33434259E+00 0.30744477E+04</pdfrwt>
<pdfrwt beam="2">  1       -4 0.16728454E+00 0.30744477E+04</pdfrwt>
<totfact> 0.69889871E-03</totfact>
</mgrwt>
</event>
<event>
 6    1  0.5196787E-004  0.3205731E+04  0.7818608E-02  0.8187305E-01
         -2   -1    0    0    0  501 -0.00000000000E+00  0.00000000000E+00  0.77693210518E+03  0.77693210518E+03  0.00000000000E+00 0. -1.
          2   -1    0    0  501    0  0.00000000000E+00 -0.00000000000E+00 -0.33068234536E+04  0.33068234536E+04  0.00000000000E+00 0.  1.
         23    2    1    2    0    0  0.13967110854E+04  0.25731926657E+02 -0.22643592489E+04  0.26617951923E+04  0.79792538989E+02 0.  0.
         13    1    3    3    0    0  0.77535309402E+03 -0.22348675992E+02 -0.12844397431E+04  0.15004857005E+04  0.00000000000E+00 0. -1.
        -13    1    3    3    0    0  0.62135799136E+03  0.48080602649E+02 -0.97991950585E+03  0.11613094918E+04  0.00000000000E+00 0.  1.
         22    1    1    2    0    0 -0.13967110854E+04 -0.25731926657E+02 -0.26553209947E+03  0.14219603665E+04  0.00000000000E+00 0. -1.
<mgrwt>
<rscale>  0 0.32057307E+04</rscale>
<asrwt>0</asrwt>
<pdfrwt beam="1">  1        2 0.50874208E+00 0.32057307E+04</pdfrwt>
<pdfrwt beam="2">  1       -2 0.11952801E+00 0.32057307E+04</pdfrwt>
<totfact> 0.49693066E-01</totfact>
</mgrwt>
</event>
<event>
 6    1  0.5196787E-004  0.2867700E+04  0.7818608E-02  0.8282553E-01
         -2   -1    0    0    0  501 -0.00000000000E+00  0.00000000000E+00  0.19252226586E+04  0.19252226586E+04  0.00000000000E+00 0. -1.
          2   -1    0    0  501    0  0.00000000000E+00 -0.00000000000E+00 -0.10678898615E+04  0.10678898615E+04  0.00000000000E+00 0.  1.
         23    2    1    2    0    0 -0.14162230368E+04 -0.21488535458E+03  0.43620467922E+03  0.15000578334E+04  0.89641373016E+02 0.  0.
         11    1    3    3    0    0 -0.79528852056E+03 -0.14957018692E+03  0.28174680954E+03  0.85687591659E+03  0.00000000000E+00 0. -1.
        -11    1    3    3    0    0 -0.62093451628E+03 -0.65315167657E+02  0.15445786968E+03  0.64318191683E+03  0.00000000000E+00 0.  1.
         22    1    1    2    0    0  0.14162230368E+04  0.21488535458E+03  0.42112811786E+03  0.14930546867E+04  0.00000000000E+00 0.  1.
<mgrwt>
<rscale>  0 0.28677000E+04</rscale>
<asrwt>0</asrwt>
<pdfrwt beam="1">  1        2 0.16429075E+00 0.28677000E+04</pdfrwt>
<pdfrwt beam="2">  1       -2 0.29618810E+00 0.28677000E+04</pdfrwt>
<totfact> 0.66198729E-01</totfact>
</mgrwt>
</event>
<event>
 6    1  0.5196787E-004  0.1993187E+04  0.7818608E-02  0.8609813E-01
         -2   -1    0    0    0  501 -0.00000000000E+00  0.00000000000E+00  0.99361218022E+03  0.99361218022E+03  0.00000000000E+00 0. -1.
          2   -1    0    0  501    0  0.00000000000E+00 -0.00000000000E+00 -0.99958365630E+03  0.99958365630E+03  0.00000000000E+00 0.  1.
         23    2    1    2    0    0 -0.49823122675E+03 -0.15548076819E+03 -0.84957139167E+03  0.10011930935E+04  0.90594902418E+02 0.  0.
         13    1    3    3    0    0 -0.52954670470E+02 -0.45771060692E+02 -0.91490426930E+02  0.11519412026E+03  0.00000000000E+00 0. -1.
        -13    1    3    3    0    0 -0.44527655628E+03 -0.10970970750E+03 -0.75808096474E+03  0.88599897325E+03  0.00000000000E+00 0.  1.
         22    1    1    2    0    0  0.49823122675E+03  0.15548076819E+03  0.84359991559E+03  0.99200274302E+03  0.00000000000E+00 0. -1.
<mgrwt>
<rscale>  0 0.19931869E+04</rscale>
<asrwt>0</asrwt>
<pdfrwt beam="1">  1        2 0.15378210E+00 0.19931869E+04</pdfrwt>
<pdfrwt beam="2">  1       -2 0.15286341E+00 0.19931869E+04</pdfrwt>
<totfact> 0.66743602E+00</totfact>
</mgrwt>
</event>
<event>
 6    1  0.5196787E-004  0.9747816E+03  0.7818608E-02  0.9336645E-01
          2   -1    0    0  501    0  0.00000000000E+00  0.00000000000E+00  0.42627350415E+03  0.42627350415E+03  0.00000000000E+00 0.  1.
         -2   -1    0    0    0  501 -0.00000000000E+00 -0.00000000000E+00 -0.55727084508E+03  0.55727084508E+03  0.00000000000E+00 0. -1.
         23    2    1    2    0    0 -0.48212102746E+03  0.32137998572E+02 -0.75005370967E+02  0.49712001106E+03  0.89604484563E+02 0.  0.
         11    1    3    3    0    0 -0.27831746697E+03  0.62828875039E+02 -0.44814037395E+02  0.28881893620E+03  0.00000000000E+00 0.  1.
        -11    1    3    3    0    0 -0.20380356048E+03 -0.30690876467E+02 -0.30191333572E+02  0.20830107486E+03  0.00000000000E+00 0. -1.
         22    1    1    2    0    0  0.48212102746E+03 -0.32137998572E+02 -0.55991969961E+02  0.48642433817E+03  0.00000000000E+00 0.  1.
<mgrwt>
<rscale>  0 0.97478161E+03</rscale>
<asrwt>0</asrwt>
<pdfrwt beam="1">  1        2 0.65580539E-01 0.97478161E+03</pdfrwt>
<pdfrwt beam="2">  1       -2 0.85733976E-01 0.97478161E+03</pdfrwt>
<totfact> 0.87441440E+01</totfact>
</mgrwt>
</event>
<event>
 6    1  0.5196787E-004  0.1675951E+04  0.7818608E-02  0.8775201E-01
         -2   -1    0    0    0  501 -0.00000000000E+00  0.00000000000E+00  0.14529196028E+04  0.14529196028E+04  0.00000000000E+00 0. -1.
          2   -1    0    0  501    0  0.00000000000E+00 -0.00000000000E+00 -0.48330464752E+03  0.48330464752E+03  0.00000000000E+00 0.  1.
         23    2    1    2    0    0 -0.20479904534E+03 -0.38933867999E+03 -0.33454977705E+03  0.55986205026E+03  0.89413115838E+02 0.  0.
         13    1    3    3    0    0 -0.83050156960E+02 -0.23816432870E+03 -0.21851697250E+03  0.33372030700E+03  0.00000000000E+00 0.  1.
        -13    1    3    3    0    0 -0.12174888838E+03 -0.15117435129E+03 -0.11603280455E+03  0.22614174325E+03  0.00000000000E+00 0. -1.
         22    1    1    2    0    0  0.20479904534E+03  0.38933867999E+03  0.13041647323E+04  0.13763622000E+04  0.00000000000E+00 0. -1.
<mgrwt>
<rscale>  0 0.16759508E+04</rscale>
<asrwt>0</asrwt>
<pdfrwt beam="1">  1        2 0.74354562E-01 0.16759508E+04</pdfrwt>
<pdfrwt beam="2">  1       -2 0.22352609E+00 0.16759508E+04</pdfrwt>
<totfact> 0.57300625E+00</totfact>
</mgrwt>
</event>
<event>
 6    1  0.5196787E-004  0.2124038E+04  0.7818608E-02  0.8550728E-01
         -2   -1    0    0    0  501 -0.00000000000E+00  0.00000000000E+00  0.10800357611E+04  0.10800357611E+04  0.00000000000E+00 0. -1.
          2   -1    0    0  501    0  0.00000000000E+00 -0.00000000000E+00 -0.10443028039E+04  0.10443028039E+04  0.00000000000E+00 0.  1.
         23    2    1    2    0    0 -0.45591347763E+03 -0.32347673471E+03  0.91870755057E+03  0.10792842939E+04  0.91305677269E+02 0.  0.
         13    1    3    3    0    0 -0.28730938793E+03 -0.22871568587E+03  0.67207225277E+03  0.76585812152E+03  0.00000000000E+00 0.  1.
        -13    1    3    3    0    0 -0.16860408969E+03 -0.94761048843E+02  0.24663529780E+03  0.31342617242E+03  0.00000000000E+00 0. -1.
         22    1    1    2    0    0  0.45591347763E+03  0.32347673471E+03 -0.88297459334E+03  0.10450542711E+04  0.00000000000E+00 0.  1.
<mgrwt>
<rscale>  0 0.21240380E+04</rscale>
<asrwt>0</asrwt>
<pdfrwt beam="1">  1        2 0.16066197E+00 0.21240380E+04</pdfrwt>
<pdfrwt beam="2">  1       -2 0.16615935E+00 0.21240380E+04</pdfrwt>
<totfact> 0.49291623E+00</totfact>
</mgrwt>
</event>
<event>
 6    1  0.5196787E-004  0.1578329E+04  0.7818608E-02  0.8833973E-01
          2   -1    0    0  501    0  0.00000000000E+00  0.00000000000E+00  0.10344396317E+04  0.10344396317E+04  0.00000000000E+00 0.  1.
         -2   -1    0    0    0  501 -0.00000000000E+00 -0.00000000000E+00 -0.60204636805E+03  0.60204636805E+03  0.00000000000E+00 0. -1.
         23    2    1    2    0    0  0.77070965606E+03  0.14072761475E+03  0.14424580018E+03  0.80172459896E+03  0.90320796165E+02 0.  0.
         11    1    3    3    0    0  0.62479177365E+03  0.14959531018E+03  0.11660910248E+03  0.65294808372E+03  0.00000000000E+00 0.  1.
        -11    1    3    3    0    0  0.14591788241E+03 -0.88676954370E+01  0.27636697698E+02  0.14877651525E+03  0.00000000000E+00 0. -1.
         22    1    1    2    0    0 -0.77070965606E+03 -0.14072761475E+03  0.28814746344E+03  0.83476140075E+03  0.00000000000E+00 0. -1.
<mgrwt>
<rscale>  0 0.15783290E+04</rscale>
<asrwt>0</asrwt>
<pdfrwt beam="1">  1        2 0.15914456E+00 0.15783290E+04</pdfrwt>
<pdfrwt beam="2">  1       -2 0.92622518E-01 0.15783290E+04</pdfrwt>
<totfact> 0.22745275E+01</totfact>
</mgrwt>
</event>
<event>
 6    1  0.5196787E-004  0.3266544E+04  0.7818608E-02  0.8171461E-01
          2   -1    0    0  501    0  0.00000000000E+00  0.00000000000E+00  0.25694914072E+04  0.25694914072E+04  0.00000000000E+00 0.  1.
         -2   -1    0    0    0  501 -0.00000000000E+00 -0.00000000000E+00 -0.10381730653E+04  0.10381730653E+04  0.00000000000E+00 0. -1.
         23    2    1    2    0    0 -0.40962510591E+03 -0.14688477189E+04  0.14083799217E+04  0.20778212766E+04  0.92200351927E+02 0.  0.
         13    1    3    3    0    0 -0.30809013669E+03 -0.10262398812E+04  0.93872995636E+03  0.14245356286E+04  0.00000000000E+00 0. -1.
        -13    1    3    3    0    0 -0.10153496921E+03 -0.44260783771E+03  0.46964996535E+03  0.65328564803E+03  0.00000000000E+00 0.  1.
         22    1    1    2    0    0  0.40962510591E+03  0.14688477189E+04  0.12293842023E+03  0.15298431959E+04  0.00000000000E+00 0.  1.
<mgrwt>
<rscale>  0 0.32665436E+04</rscale>
<asrwt>0</asrwt>
<pdfrwt beam="1">  1        2 0.39530637E+00 0.32665436E+04</pdfrwt>
<pdfrwt beam="2">  1       -2 0.15971893E+00 0.32665436E+04</pdfrwt>
<totfact> 0.67204009E-01</totfact>
</mgrwt>
</event>
<event>
 6    1  0.5196787E-004  0.3985153E+03  0.7818608E-02  0.1044295E+00
         -4   -1    0    0    0  501 -0.00000000000E+00  0.00000000000E+00  0.53169446657E+02  0.53169446657E+02  0.00000000000E+00 0. -1.
          4   -1    0    0  501    0  0.00000000000E+00 -0.00000000000E+00 -0.74673738761E+03  0.74673738761E+03  0.00000000000E+00 0.  1.
         23    2    1    2    0    0  0.46512462901E+02  0.16799523965E+03 -0.50573438047E+03  0.54365060274E+03  0.96968574944E+02 0.  0.
         11    1    3    3    0    0 -0.12173511024E+02  0.12712782208E+03 -0.31101099194E+03  0.33621052129E+03  0.00000000000E+00 0.  1.
        -11    1    3    3    0    0  0.58685973925E+02  0.40867417566E+02 -0.19472338853E+03  0.20744008146E+03  0.00000000000E+00 0. -1.
         22    1    1    2    0    0 -0.46512462901E+02 -0.16799523965E+03 -0.18783356048E+03  0.25625623152E+03  0.00000000000E+00 0.  1.
<mgrwt>
<rscale>  0 0.39851531E+03</rscale>
<asrwt>0</asrwt>
<pdfrwt beam="1">  1        4 0.11488266E+00 0.39851531E+03</pdfrwt>
<pdfrwt beam="2">  1       -4 0.81799160E-02 0.39851531E+03</pdfrwt>
<totfact> 0.12625942E+02</totfact>
</mgrwt>
</event>
<event>
 6    1  0.5196787E-004  0.9455055E+03  0.7818608E-02  0.9370419E-01
         -2   -1    0    0    0  501 -0.00000000000E+00  0.00000000000E+00  0.75377242886E+02  0.75377242886E+02  0.00000000000E+00 0. -1.
          2   -1    0    0  501    0  0.00000000000E+00 -0.00000000000E+00 -0.29650214167E+04  0.29650214167E+04  0.00000000000E+00 0.  1.
         23    2    1    2    0    0  0.44913682575E+03 -0.60792320968E+02 -0.10797020200E+04  0.11745717130E+04  0.91883961587E+02 0.  0.
         11    1    3    3    0    0  0.15316953631E+03  0.11728101563E+02 -0.29117140362E+03  0.32921002643E+03  0.00000000000E+00 0. -1.
        -11    1    3    3    0    0  0.29596728945E+03 -0.72520422531E+02 -0.78853061635E+03  0.84536168652E+03  0.00000000000E+00 0.  1.
         22    1    1    2    0    0 -0.44913682575E+03  0.60792320968E+02 -0.18099421538E+04  0.18658269466E+04  0.00000000000E+00 0. -1.
<mgrwt>
<rscale>  0 0.94550545E+03</rscale>
<asrwt>0</asrwt>
<pdfrwt beam="1">  1        2 0.45615719E+00 0.94550545E+03</pdfrwt>
<pdfrwt beam="2">  1       -2 0.11596498E-01 0.94550545E+03</pdfrwt>
<totfact> 0.10164829E+02</totfact>
</mgrwt>
</event>
<event>
 6    1  0.5196787E-004  0.4939608E+04  0.7818608E-02  0.7837891E-01
          2   -1    0    0  501    0  0.00000000000E+00  0.00000000000E+00  0.30263548816E+04  0.30263548816E+04  0.00000000000E+00 0.  1.
         -2   -1    0    0    0  501 -0.00000000000E+00 -0.00000000000E+00 -0.20156033403E+04  0.20156033403E+04  0.00000000000E+00 0. -1.
         23    2    1    2    0    0  0.23227969090E+03  0.15636852336E+04  0.24413539130E+04  0.29098961895E+04  0.90672711823E+02 0.  0.
         13    1    3    3    0    0  0.21000215682E+03  0.13968571956E+04  0.21269784817E+04  0.25533014691E+04  0.00000000000E+00 0. -1.
        -13    1    3    3    0    0  0.22277534089E+02  0.16682803800E+03  0.31437543129E+03  0.35659472036E+03  0.00000000000E+00 0.  1.
         22    1    1    2    0    0 -0.23227969090E+03 -0.15636852336E+04 -0.14306023716E+04  0.21320620324E+04  0.00000000000E+00 0. -1.
<mgrwt>
<rscale>  0 0.49396077E+04</rscale>
<asrwt>0</asrwt>
<pdfrwt beam="1">  1        2 0.46559306E+00 0.49396077E+04</pdfrwt>
<pdfrwt beam="2">  1       -2 0.31009282E+00 0.49396077E+04</pdfrwt>
<totfact> 0.33768473E-02</totfact>
</mgrwt>
</event>
<event>
 6    1  0.5196787E-004  0.1388494E+04  0.7818608E-02  0.8962190E-01
         -2   -1    0    0    0  501 -0.00000000000E+00  0.00000000000E+00  0.31496049405E+03  0.31496049405E+03  0.00000000000E+00 0. -1.
          2   -1    0    0  501    0  0.00000000000E+00 -0.00000000000E+00 -0.15302827872E+04  0.15302827872E+04  0.00000000000E+00 0.  1.
         23    2    1    2    0    0  0.60302393678E+03 -0.32153832581E+03 -0.47274241043E+03  0.83606061915E+03  0.92126049383E+02 0.  0.
         11    1    3    3    0    0  0.39370188753E+03 -0.23869520953E+03 -0.27405008327E+03  0.53579849518E+03  0.00000000000E+00 0.  1.
        -11    1    3    3    0    0  0.20932204925E+03 -0.82843116281E+02 -0.19869232715E+03  0.30026212396E+03  0.00000000000E+00 0. -1.
         22    1    1    2    0    0 -0.60302393678E+03  0.32153832581E+03 -0.74257988275E+03  0.10091826621E+04  0.00000000000E+00 0.  1.
<mgrwt>
<rscale>  0 0.13884936E+04</rscale>
<asrwt>0</asrwt>
<pdfrwt beam="1">  1        2 0.23542812E+00 0.13884936E+04</pdfrwt>
<pdfrwt beam="2">  1       -2 0.48455461E-01 0.13884936E+04</pdfrwt>
<totfact> 0.47945361E+01</totfact>
</mgrwt>
</event>
<event>
 6    1  0.5196787E-004  0.4190214E+04  0.7818608E-02  0.7967236E-01
         -2   -1    0    0    0  501 -0.00000000000E+00  0.00000000000E+00  0.13934070015E+04  0.13934070015E+04  0.00000000000E+00 0. -1.
          2   -1    0    0  501    0  0.00000000000E+00 -0.00000000000E+00 -0.31501731881E+04  0.31501731881E+04  0.00000000000E+00 0.  1.
         23    2    1    2    0    0 -0.11336362058E+03  0.13489707718E+04  0.85369647137E+03  0.16029869259E+04  0.90531573866E+02 0.  0.
         11    1    3    3    0    0 -0.97606481207E+02  0.11203149271E+04  0.66794294338E+03  0.13079680182E+04  0.00000000000E+00 0.  1.
        -11    1    3    3    0    0 -0.15757139374E+02  0.22865584470E+03  0.18575352799E+03  0.29501890773E+03  0.00000000000E+00 0. -1.
         22    1    1    2    0    0  0.11336362058E+03 -0.13489707718E+04 -0.26104626580E+04  0.29405932637E+04  0.00000000000E+00 0.  1.
<mgrwt>
<rscale>  0 0.41902140E+04</rscale>
<asrwt>0</asrwt>
<pdfrwt beam="1">  1        2 0.48464203E+00 0.41902140E+04</pdfrwt>
<pdfrwt beam="2">  1       -2 0.21437031E+00 0.41902140E+04</pdfrwt>
<totfact> 0.11640545E-01</totfact>
</mgrwt>
</event>
<event>
 6    1  0.5196787E-004  0.2773168E+04  0.7818608E-02  0.8311647E-01
         -2   -1    0    0    0  501 -0.00000000000E+00  0.00000000000E+00  0.13761608166E+04  0.13761608166E+04  0.00000000000E+00 0. -1.
          2   -1    0    0  501    0  0.00000000000E+00 -0.00000000000E+00 -0.13970863421E+04  0.13970863421E+04  0.00000000000E+00 0.  1.
         23    2    1    2    0    0  0.71227660814E+03  0.10785506219E+04  0.48750227333E+03  0.13843237493E+04  0.89913101409E+02 0.  0.
         11    1    3    3    0    0  0.45829317619E+03  0.62020337198E+03  0.30858527501E+03  0.83060804831E+03  0.00000000000E+00 0. -1.
        -11    1    3    3    0    0  0.25398343194E+03  0.45834724990E+03  0.17891699832E+03  0.55371570095E+03  0.00000000000E+00 0.  1.
         22    1    1    2    0    0 -0.71227660814E+03 -0.10785506219E+04 -0.50842779883E+03  0.13889234094E+04  0.00000000000E+00 0.  1.
<mgrwt>
<rscale>  0 0.27731682E+04</rscale>
<asrwt>0</asrwt>
<pdfrwt beam="1">  1        2 0.21493636E+00 0.27731682E+04</pdfrwt>
<pdfrwt beam="2">  1       -2 0.21171705E+00 0.27731682E+04</pdfrwt>
<totfact> 0.14142417E+00</totfact>
</mgrwt>
</event>
<event>
 6    1  0.5196787E-004  0.1379981E+04  0.7818608E-02  0.8968438E-01
          2   -1    0    0  501    0  0.00000000000E+00  0.00000000000E+00  0.11202828048E+04  0.11202828048E+04  0.00000000000E+00 0. -1.
         -2   -1    0    0    0  501 -0.00000000000E+00 -0.00000000000E+00 -0.42497033261E+03  0.42497033261E+03  0.00000000000E+00 0.  1.
         23    2    1    2    0    0  0.15535200698E+03  0.28489304402E+03  0.10272181764E+04  0.10810767819E+04  0.90837953103E+02 0.  0.
         11    1    3    3    0    0  0.16827784361E+02  0.12157666167E+03  0.38589137775E+03  0.40493976640E+03  0.00000000000E+00 0. -1.
        -11    1    3    3    0    0  0.13852422262E+03  0.16331638236E+03  0.64132679866E+03  0.67613701546E+03  0.00000000000E+00 0.  1.
         22    1    1    2    0    0 -0.15535200698E+03 -0.28489304402E+03 -0.33190570418E+03  0.46417635558E+03  0.00000000000E+00 0.  1.
<mgrwt>
<rscale>  0 0.13799811E+04</rscale>
<asrwt>0</asrwt>
<pdfrwt beam="1">  1        2 0.17235120E+00 0.13799811E+04</pdfrwt>
<pdfrwt beam="2">  1       -2 0.65380051E-01 0.13799811E+04</pdfrwt>
<totfact> 0.44487696E+01</totfact>
</mgrwt>
</event>
<event>
 6    1  0.5196787E-004  0.1828668E+04  0.7818608E-02  0.8691201E-01
         -2   -1    0    0    0  501 -0.00000000000E+00  0.00000000000E+00  0.66341385433E+03  0.66341385433E+03  0.00000000000E+00 0. -1.
          2   -1    0    0  501    0  0.00000000000E+00 -0.00000000000E+00 -0.12601582310E+04  0.12601582310E+04  0.00000000000E+00 0.  1.
         23    2    1    2    0    0  0.40664884417E+02 -0.91046287904E+03 -0.26722652324E+03  0.95445996456E+03  0.94802543670E+02 0.  0.
         11    1    3    3    0    0 -0.10027231622E+02 -0.33646613994E+03 -0.13869017455E+03  0.36406726468E+03  0.00000000000E+00 0. -1.
        -11    1    3    3    0    0  0.50692116040E+02 -0.57399673910E+03 -0.12853634869E+03  0.59039269987E+03  0.00000000000E+00 0.  1.
         22    1    1    2    0    0 -0.40664884417E+02  0.91046287904E+03 -0.32951785347E+03  0.96911212080E+03  0.00000000000E+00 0. -1.
<mgrwt>
<rscale>  0 0.18286677E+04</rscale>
<asrwt>0</asrwt>
<pdfrwt beam="1">  1        2 0.19387050E+00 0.18286677E+04</pdfrwt>
<pdfrwt beam="2">  1       -2 0.10206367E+00 0.18286677E+04</pdfrwt>
<totfact> 0.12930320E+01</totfact>
</mgrwt>
</event>
<event>
 6    1  0.5196787E-004  0.2486977E+04  0.7818608E-02  0.8407640E-01
         -1   -1    0    0    0  501 -0.00000000000E+00  0.00000000000E+00  0.66377575736E+03  0.66377575736E+03  0.00000000000E+00 0. -1.
          1   -1    0    0  501    0  0.00000000000E+00 -0.00000000000E+00 -0.23294972336E+04  0.23294972336E+04  0.00000000000E+00 0.  1.
         23    2    1    2    0    0  0.46951197859E+03 -0.11169507521E+04 -0.50621428603E+03  0.13162287444E+04  0.90469462137E+02 0.  0.
         11    1    3    3    0    0  0.35745610514E+03 -0.92435843483E+03 -0.39125287421E+03  0.10655009126E+04  0.00000000000E+00 0. -1.
        -11    1    3    3    0    0  0.11205587345E+03 -0.19259231730E+03 -0.11496141182E+03  0.25072783185E+03  0.00000000000E+00 0.  1.
         22    1    1    2    0    0 -0.46951197859E+03  0.11169507521E+04 -0.11595071903E+04  0.16770442466E+04  0.00000000000E+00 0.  1.
<mgrwt>
<rscale>  0 0.24869771E+04</rscale>
<asrwt>0</asrwt>
<pdfrwt beam="1">  1        1 0.35838419E+00 0.24869771E+04</pdfrwt>
<pdfrwt beam="2">  1       -1 0.10211935E+00 0.24869771E+04</pdfrwt>
<totfact> 0.14344553E+00</totfact>
</mgrwt>
</event>
<event>
 6    1  0.5196787E-004  0.1175987E+04  0.7818608E-02  0.9134138E-01
         -2   -1    0    0    0  501 -0.00000000000E+00  0.00000000000E+00  0.12446354311E+03  0.12446354311E+03  0.00000000000E+00 0.  1.
          2   -1    0    0  501    0  0.00000000000E+00 -0.00000000000E+00 -0.27778142914E+04  0.27778142914E+04  0.00000000000E+00 0. -1.
         23    2    1    2    0    0 -0.44724901780E+03  0.24726288657E+03 -0.63469317820E+03  0.81993564258E+03  0.91040697126E+02 0.  0.
         13    1    3    3    0    0 -0.24897079348E+03  0.88569281097E+02 -0.34741003593E+03  0.43649135916E+03  0.00000000000E+00 0.  1.
        -13    1    3    3    0    0 -0.19827822432E+03  0.15869360547E+03 -0.28728314227E+03  0.38344428342E+03  0.00000000000E+00 0. -1.
         22    1    1    2    0    0  0.44724901780E+03 -0.24726288657E+03 -0.20186575701E+04  0.20823421920E+04  0.00000000000E+00 0. -1.
<mgrwt>
<rscale>  0 0.11759874E+04</rscale>
<asrwt>0</asrwt>
<pdfrwt beam="1">  1        2 0.42735605E+00 0.11759874E+04</pdfrwt>
<pdfrwt beam="2">  1       -2 0.19148237E-01 0.11759874E+04</pdfrwt>
<totfact> 0.54992486E+01</totfact>
</mgrwt>
</event>
<event>
 6    1  0.5196787E-004  0.2811715E+04  0.7818608E-02  0.8299640E-01
          2   -1    0    0  501    0  0.00000000000E+00  0.00000000000E+00  0.12353066924E+04  0.12353066924E+04  0.00000000000E+00 0.  1.
         -2   -1    0    0    0  501 -0.00000000000E+00 -0.00000000000E+00 -0.15999553394E+04  0.15999553394E+04  0.00000000000E+00 0. -1.
         23    2    1    2    0    0  0.25913005830E+03  0.58884802091E+03 -0.14413878773E+04  0.15809663135E+04  0.89247369055E+02 0.  0.
         13    1    3    3    0    0  0.14248865381E+03  0.39314576489E+03 -0.85232067518E+03  0.94937723918E+03  0.00000000000E+00 0. -1.
        -13    1    3    3    0    0  0.11664140448E+03  0.19570225601E+03 -0.58906720207E+03  0.63158907432E+03  0.00000000000E+00 0.  1.
         22    1    1    2    0    0 -0.25913005830E+03 -0.58884802091E+03  0.10767392303E+04  0.12542957183E+04  0.00000000000E+00 0.  1.
<mgrwt>
<rscale>  0 0.28117152E+04</rscale>
<asrwt>0</asrwt>
<pdfrwt beam="1">  1        2 0.19004718E+00 0.28117152E+04</pdfrwt>
<pdfrwt beam="2">  1       -2 0.24614697E+00 0.28117152E+04</pdfrwt>
<totfact> 0.10647263E+00</totfact>
</mgrwt>
</event>
<event>
 6    1  0.5196787E-004  0.1970625E+04  0.7818608E-02  0.8620479E-01
         -2   -1    0    0    0  501 -0.00000000000E+00  0.00000000000E+00  0.82264358681E+03  0.82264358681E+03  0.00000000000E+00 0. -1.
          2   -1    0    0  501    0  0.00000000000E+00 -0.00000000000E+00 -0.11801470200E+04  0.11801470200E+04  0.00000000000E+00 0.  1.
         23    2    1    2    0    0  0.76306517567E+03  0.60378550611E+03 -0.32249033115E+03  0.10291113387E+04  0.90800518046E+02 0.  0.
         11    1    3    3    0    0  0.62250106095E+03  0.51765955249E+03 -0.23802511342E+03  0.84388087891E+03  0.00000000000E+00 0. -1.
        -11    1    3    3    0    0  0.14056411472E+03  0.86125953621E+02 -0.84465217732E+02  0.18523045981E+03  0.00000000000E+00 0.  1.
         22    1    1    2    0    0 -0.76306517567E+03 -0.60378550611E+03 -0.35013101991E+02  0.97367926805E+03  0.00000000000E+00 0. -1.
<mgrwt>
<rscale>  0 0.19706246E+04</rscale>
<asrwt>0</asrwt>
<pdfrwt beam="1">  1        2 0.18156108E+00 0.19706246E+04</pdfrwt>
<pdfrwt beam="2">  1       -2 0.12656055E+00 0.19706246E+04</pdfrwt>
<totfact> 0.84268813E+00</totfact>
</mgrwt>
</event>
<event>
 6    1  0.5196787E-004  0.1980140E+04  0.7818608E-02  0.8615963E-01
          2   -1    0    0  501    0  0.00000000000E+00  0.00000000000E+00  0.35390976955E+04  0.35390976955E+04  0.00000000000E+00 0.  1.
         -2   -1    0    0    0  501 -0.00000000000E+00 -0.00000000000E+00 -0.27697417045E+03  0.27697417045E+03  0.00000000000E+00 0. -1.
         23    2    1    2    0    0 -0.75396282611E+03  0.84812578404E+02  0.28539445520E+04  0.29545248906E+04  0.92545703376E+02 0.  0.
         11    1    3    3    0    0 -0.44433091891E+03  0.13109981961E+02  0.17679878453E+04  0.18230147718E+04  0.00000000000E+00 0. -1.
        -11    1    3    3    0    0 -0.30963190721E+03  0.71702596443E+02  0.10859567067E+04  0.11315101189E+04  0.00000000000E+00 0.  1.
         22    1    1    2    0    0  0.75396282611E+03 -0.84812578404E+02  0.40817897315E+03  0.86154697535E+03  0.00000000000E+00 0. -1.
<mgrwt>
<rscale>  0 0.19801400E+04</rscale>
<asrwt>0</asrwt>
<pdfrwt beam="1">  1        2 0.54447654E+00 0.19801400E+04</pdfrwt>
<pdfrwt beam="2">  1       -2 0.42611413E-01 0.19801400E+04</pdfrwt>
<totfact> 0.37301621E+00</totfact>
</mgrwt>
</event>
<event>
 6    1  0.5196787E-004  0.6877174E+03  0.7818608E-02  0.9738471E-01
         -1   -1    0    0    0  501 -0.00000000000E+00  0.00000000000E+00  0.12684347994E+03  0.12684347994E+03  0.00000000000E+00 0. -1.
          1   -1    0    0  501    0  0.00000000000E+00 -0.00000000000E+00 -0.93216314601E+03  0.93216314601E+03  0.00000000000E+00 0.  1.
         23    2    1    2    0    0  0.81854645853E+02 -0.32704090171E+03 -0.40523538382E+03  0.53582083932E+03  0.96084968194E+02 0.  0.
         11    1    3    3    0    0  0.14029349166E+02 -0.14643912635E+03 -0.24153863326E+03  0.28281115912E+03  0.00000000000E+00 0.  1.
        -11    1    3    3    0    0  0.67825296686E+02 -0.18060177535E+03 -0.16369675056E+03  0.25300968020E+03  0.00000000000E+00 0. -1.
         22    1    1    2    0    0 -0.81854645853E+02  0.32704090171E+03 -0.40008428225E+03  0.52318578664E+03  0.00000000000E+00 0.  1.
<mgrwt>
<rscale>  0 0.68771743E+03</rscale>
<asrwt>0</asrwt>
<pdfrwt beam="1">  1        1 0.14340971E+00 0.68771743E+03</pdfrwt>
<pdfrwt beam="2">  1       -1 0.19514382E-01 0.68771743E+03</pdfrwt>
<totfact> 0.36951395E+02</totfact>
</mgrwt>
</event>
<event>
 6    1  0.5196787E-004  0.3909158E+04  0.7818608E-02  0.8023127E-01
         -2   -1    0    0    0  501 -0.00000000000E+00  0.00000000000E+00  0.15894469990E+04  0.15894469990E+04  0.00000000000E+00 0. -1.
          2   -1    0    0  501    0  0.00000000000E+00 -0.00000000000E+00 -0.24035905963E+04  0.24035905963E+04  0.00000000000E+00 0.  1.
         23    2    1    2    0    0 -0.93771998658E+03 -0.10405902913E+04  0.98361451046E+03  0.17139849101E+04  0.89999107700E+02 0.  0.
         13    1    3    3    0    0 -0.69157980793E+03 -0.82426535602E+03  0.75318653201E+03  0.13133872087E+04  0.00000000000E+00 0. -1.
        -13    1    3    3    0    0 -0.24614017865E+03 -0.21632493527E+03  0.23042797845E+03  0.40059770146E+03  0.00000000000E+00 0.  1.
         22    1    1    2    0    0  0.93771998658E+03  0.10405902913E+04 -0.17977581077E+04  0.22790526851E+04  0.00000000000E+00 0.  1.
<mgrwt>
<rscale>  0 0.39091584E+04</rscale>
<asrwt>0</asrwt>
<pdfrwt beam="1">  1        2 0.36978316E+00 0.39091584E+04</pdfrwt>
<pdfrwt beam="2">  1       -2 0.24453031E+00 0.39091584E+04</pdfrwt>
<totfact> 0.21837584E-01</totfact>
</mgrwt>
</event>
<event>
 6    1  0.5196787E-004  0.1506672E+04  0.7818608E-02  0.8880028E-01
          2   -1    0    0  501    0  0.00000000000E+00  0.00000000000E+00  0.90723047467E+03  0.90723047467E+03  0.00000000000E+00 0.  1.
         -2   -1    0    0    0  501 -0.00000000000E+00 -0.00000000000E+00 -0.62554646504E+03  0.62554646504E+03  0.00000000000E+00 0. -1.
         23    2    1    2    0    0  0.41246353464E+03 -0.54420783312E+03 -0.17578972152E+03  0.71084595251E+03  0.90064471184E+02 0.  0.
         13    1    3    3    0    0  0.19515559253E+03 -0.32623812564E+03 -0.11441206676E+03  0.39699765860E+03  0.00000000000E+00 0. -1.
        -13    1    3    3    0    0  0.21730794211E+03 -0.21796970748E+03 -0.61377654758E+02  0.31384829390E+03  0.00000000000E+00 0.  1.
         22    1    1    2    0    0 -0.41246353464E+03  0.54420783312E+03  0.45747373115E+03  0.82193098721E+03  0.00000000000E+00 0.  1.
<mgrwt>
<rscale>  0 0.15066716E+04</rscale>
<asrwt>0</asrwt>
<pdfrwt beam="1">  1        2 0.13957392E+00 0.15066716E+04</pdfrwt>
<pdfrwt beam="2">  1       -2 0.96237918E-01 0.15066716E+04</pdfrwt>
<totfact> 0.25321766E+01</totfact>
</mgrwt>
</event>
<event>
 6    1  0.5196787E-004  0.4620140E+04  0.7818608E-02  0.7889935E-01
          2   -1    0    0  501    0  0.00000000000E+00  0.00000000000E+00  0.33783018355E+04  0.33783018355E+04  0.00000000000E+00 0.  1.
         -2   -1    0    0    0  501 -0.00000000000E+00 -0.00000000000E+00 -0.15796173609E+04  0.15796173609E+04  0.00000000000E+00 0. -1.
         23    2    1    2    0    0  0.13081722294E+04  0.16247006041E+04  0.19625952962E+04  0.28655919295E+04  0.94181606446E+02 0.  0.
         13    1    3    3    0    0  0.10247738892E+04  0.13127088058E+04  0.15266838813E+04  0.22592320833E+04  0.00000000000E+00 0. -1.
        -13    1    3    3    0    0  0.28339834014E+03  0.31199179828E+03  0.43591141486E+03  0.60635984613E+03  0.00000000000E+00 0.  1.
         22    1    1    2    0    0 -0.13081722294E+04 -0.16247006041E+04 -0.16391082151E+03  0.20923272670E+04  0.00000000000E+00 0.  1.
<mgrwt>
<rscale>  0 0.46201404E+04</rscale>
<asrwt>0</asrwt>
<pdfrwt beam="1">  1        2 0.51973874E+00 0.46201404E+04</pdfrwt>
<pdfrwt beam="2">  1       -2 0.24301806E+00 0.46201404E+04</pdfrwt>
<totfact> 0.52445519E-02</totfact>
</mgrwt>
</event>
<event>
 6    1  0.5196787E-004  0.3516779E+04  0.7818608E-02  0.8109825E-01
          2   -1    0    0  501    0  0.00000000000E+00  0.00000000000E+00  0.29431692964E+04  0.29431692964E+04  0.00000000000E+00 0.  1.
         -2   -1    0    0    0  501 -0.00000000000E+00 -0.00000000000E+00 -0.10505455403E+04  0.10505455403E+04  0.00000000000E+00 0. -1.
         23    2    1    2    0    0 -0.12460010742E+04  0.12389655603E+04  0.93887436877E+03  0.19944169024E+04  0.93055701376E+02 0.  0.
         11    1    3    3    0    0 -0.10252592982E+04  0.10673833692E+04  0.79007664047E+03  0.16777022928E+04  0.00000000000E+00 0.  1.
        -11    1    3    3    0    0 -0.22074177598E+03  0.17158219113E+03  0.14879772830E+03  0.31671460958E+03  0.00000000000E+00 0. -1.
         22    1    1    2    0    0  0.12460010742E+04 -0.12389655603E+04  0.95374938737E+03  0.19992979344E+04  0.00000000000E+00 0. -1.
<mgrwt>
<rscale>  0 0.35167789E+04</rscale>
<asrwt>0</asrwt>
<pdfrwt beam="1">  1        2 0.45279527E+00 0.35167789E+04</pdfrwt>
<pdfrwt beam="2">  1       -2 0.16162239E+00 0.35167789E+04</pdfrwt>
<totfact> 0.37966814E-01</totfact>
</mgrwt>
</event>
<event>
 6    1  0.5196787E-004  0.2441513E+04  0.7818608E-02  0.8424123E-01
         -2   -1    0    0    0  501 -0.00000000000E+00  0.00000000000E+00  0.95759787232E+03  0.95759787232E+03  0.00000000000E+00 0. -1.
          2   -1    0    0  501    0  0.00000000000E+00 -0.00000000000E+00 -0.15562335835E+04  0.15562335835E+04  0.00000000000E+00 0.  1.
         23    2    1    2    0    0 -0.16383835118E+03  0.11401509325E+04 -0.71104191246E+03  0.13564973173E+04  0.87847687826E+02 0.  0.
         13    1    3    3    0    0 -0.45012749362E+02  0.44170935153E+03 -0.31970836017E+03  0.54712588533E+03  0.00000000000E+00 0.  1.
        -13    1    3    3    0    0 -0.11882560182E+03  0.69844158098E+03 -0.39133355229E+03  0.80937143193E+03  0.00000000000E+00 0. -1.
         22    1    1    2    0    0  0.16383835118E+03 -0.11401509325E+04  0.11240620127E+03  0.11573341386E+04  0.00000000000E+00 0. -1.
<mgrwt>
<rscale>  0 0.24415126E+04</rscale>
<asrwt>0</asrwt>
<pdfrwt beam="1">  1        2 0.23942055E+00 0.24415126E+04</pdfrwt>
<pdfrwt beam="2">  1       -2 0.14732275E+00 0.24415126E+04</pdfrwt>
<totfact> 0.33238153E+00</totfact>
</mgrwt>
</event>
<event>
 6    1  0.5196787E-004  0.5887576E+03  0.7818608E-02  0.9929009E-01
          2   -1    0    0  501    0  0.00000000000E+00  0.00000000000E+00  0.18375346424E+04  0.18375346424E+04  0.00000000000E+00 0.  1.
         -2   -1    0    0    0  501 -0.00000000000E+00 -0.00000000000E+00 -0.47160412614E+02  0.47160412614E+02  0.00000000000E+00 0. -1.
         23    2    1    2    0    0  0.25448816750E+02  0.14064908278E+03  0.17148636766E+04  0.17230421849E+04  0.87676307317E+02 0.  0.
         11    1    3    3    0    0  0.50982976851E+02  0.65375863518E+02  0.65972211438E+03  0.66491092310E+03  0.00000000000E+00 0. -1.
        -11    1    3    3    0    0 -0.25534160101E+02  0.75273219265E+02  0.10551415622E+04  0.10581312618E+04  0.00000000000E+00 0.  1.
         22    1    1    2    0    0 -0.25448816750E+02 -0.14064908278E+03  0.75510553118E+02  0.16165287005E+03  0.00000000000E+00 0. -1.
<mgrwt>
<rscale>  0 0.58875765E+03</rscale>
<asrwt>0</asrwt>
<pdfrwt beam="1">  1        2 0.28269758E+00 0.58875765E+03</pdfrwt>
<pdfrwt beam="2">  1       -2 0.72554495E-02 0.58875765E+03</pdfrwt>
<totfact> 0.97273972E+02</totfact>
</mgrwt>
</event>
<event>
 6    1  0.5196787E-004  0.2661861E+04  0.7818608E-02  0.8347487E-01
          2   -1    0    0  501    0  0.00000000000E+00  0.00000000000E+00  0.19260023252E+04  0.19260023252E+04  0.00000000000E+00 0.  1.
         -2   -1    0    0    0  501 -0.00000000000E+00 -0.00000000000E+00 -0.91971675207E+03  0.91971675207E+03  0.00000000000E+00 0. -1.
         23    2    1    2    0    0  0.89967591669E+03  0.82476866735E+03 -0.59439134926E+02  0.12254014346E+04  0.91736336728E+02 0.  0.
         13    1    3    3    0    0  0.12223307812E+03  0.82569861529E+02  0.13289696083E+02  0.14810578464E+03  0.00000000000E+00 0.  1.
        -13    1    3    3    0    0  0.77744283856E+03  0.74219880582E+03 -0.72728831009E+02  0.10772956500E+04  0.00000000000E+00 0. -1.
         22    1    1    2    0    0 -0.89967591669E+03 -0.82476866735E+03  0.10657247080E+04  0.16203176426E+04  0.00000000000E+00 0.  1.
<mgrwt>
<rscale>  0 0.26618615E+04</rscale>
<asrwt>0</asrwt>
<pdfrwt beam="1">  1        2 0.29630805E+00 0.26618615E+04</pdfrwt>
<pdfrwt beam="2">  1       -2 0.14149489E+00 0.26618615E+04</pdfrwt>
<totfact> 0.22584874E+00</totfact>
</mgrwt>
</event>
<event>
 6    1  0.5196787E-004  0.8209078E+03  0.7818608E-02  0.9530237E-01
         -2   -1    0    0    0  501 -0.00000000000E+00  0.00000000000E+00  0.41631264835E+03  0.41631264835E+03  0.00000000000E+00 0. -1.
          2   -1    0    0  501    0  0.00000000000E+00 -0.00000000000E+00 -0.40467761583E+03  0.40467761583E+03  0.00000000000E+00 0.  1.
         23    2    1    2    0    0  0.68997055832E+02  0.14534380130E+03  0.37886361485E+03  0.42006353027E+03  0.83846982722E+02 0.  0.
         11    1    3    3    0    0  0.78848060065E+02  0.79876788786E+02  0.20000402184E+03  0.22934455894E+03  0.00000000000E+00 0.  1.
        -11    1    3    3    0    0 -0.98510042334E+01  0.65467012514E+02  0.17885959301E+03  0.19071897132E+03  0.00000000000E+00 0. -1.
         22    1    1    2    0    0 -0.68997055832E+02 -0.14534380130E+03 -0.36722858233E+03  0.40092673392E+03  0.00000000000E+00 0.  1.
<mgrwt>
<rscale>  0 0.82090781E+03</rscale>
<asrwt>0</asrwt>
<pdfrwt beam="1">  1        2 0.62258094E-01 0.82090781E+03</pdfrwt>
<pdfrwt beam="2">  1       -2 0.64048100E-01 0.82090781E+03</pdfrwt>
<totfact> 0.17810212E+02</totfact>
</mgrwt>
</event>
<event>
 6    1  0.5196787E-004  0.2083563E+04  0.7818608E-02  0.8568519E-01
         -2   -1    0    0    0  501 -0.00000000000E+00  0.00000000000E+00  0.21665474188E+04  0.21665474188E+04  0.00000000000E+00 0. -1.
          2   -1    0    0  501    0  0.00000000000E+00 -0.00000000000E+00 -0.50093927231E+03  0.50093927231E+03  0.00000000000E+00 0.  1.
         23    2    1    2    0    0  0.45560744154E+03  0.53199353358E+03 -0.14899506395E+03  0.72239541514E+03  0.95185850739E+02 0.  0.
         13    1    3    3    0    0  0.21603968496E+03  0.21006517369E+03 -0.10315851069E+03  0.31849992308E+03  0.00000000000E+00 0. -1.
        -13    1    3    3    0    0  0.23956775657E+03  0.32192835988E+03 -0.45836553264E+02  0.40389549205E+03  0.00000000000E+00 0.  1.
         22    1    1    2    0    0 -0.45560744154E+03 -0.53199353358E+03  0.18146032105E+04  0.19450912760E+04  0.00000000000E+00 0. -1.
<mgrwt>
<rscale>  0 0.20835630E+04</rscale>
<asrwt>0</asrwt>
<pdfrwt beam="1">  1        2 0.77067582E-01 0.20835630E+04</pdfrwt>
<pdfrwt beam="2">  1       -2 0.33331498E+00 0.20835630E+04</pdfrwt>
<totfact> 0.11242193E+00</totfact>
</mgrwt>
</event>
<event>
 6    1  0.5196787E-004  0.1932910E+04  0.7818608E-02  0.8638646E-01
          2   -1    0    0  501    0  0.00000000000E+00  0.00000000000E+00  0.21531239842E+04  0.21531239842E+04  0.00000000000E+00 0.  1.
         -2   -1    0    0    0  501 -0.00000000000E+00 -0.00000000000E+00 -0.43380456363E+03  0.43380456363E+03  0.00000000000E+00 0. -1.
         23    2    1    2    0    0  0.85979471555E+03 -0.88534261973E+02  0.14338487754E+04  0.16766655322E+04  0.90552347563E+02 0.  0.
         13    1    3    3    0    0  0.45478976525E+03 -0.88572597183E+02  0.79932289036E+03  0.92390254822E+03  0.00000000000E+00 0.  1.
        -13    1    3    3    0    0  0.40500495030E+03  0.38335209976E-01  0.63452588501E+03  0.75276298394E+03  0.00000000000E+00 0. -1.
         22    1    1    2    0    0 -0.85979471555E+03  0.88534261973E+02  0.28547064520E+03  0.91026301567E+03  0.00000000000E+00 0. -1.
<mgrwt>
<rscale>  0 0.19329097E+04</rscale>
<asrwt>0</asrwt>
<pdfrwt beam="1">  1        2 0.33124984E+00 0.19329097E+04</pdfrwt>
<pdfrwt beam="2">  1       -2 0.66739165E-01 0.19329097E+04</pdfrwt>
<totfact> 0.10569559E+01</totfact>
</mgrwt>
</event>
<event>
 6    1  0.5196787E-004  0.2951775E+04  0.7818608E-02  0.8257637E-01
         -2   -1    0    0    0  501 -0.00000000000E+00  0.00000000000E+00  0.11049754989E+04  0.11049754989E+04  0.00000000000E+00 0. -1.
          2   -1    0    0  501    0  0.00000000000E+00 -0.00000000000E+00 -0.19713054362E+04  0.19713054362E+04  0.00000000000E+00 0.  1.
         23    2    1    2    0    0  0.14265127541E+04 -0.36706628040E+03 -0.36204919252E+03  0.15193688112E+04  0.87895818975E+02 0.  0.
         13    1    3    3    0    0  0.99650484488E+03 -0.21535615072E+03 -0.25860602883E+03  0.10517971552E+04  0.00000000000E+00 0. -1.
        -13    1    3    3    0    0  0.43000790919E+03 -0.15171012968E+03 -0.10344316370E+03  0.46757165604E+03  0.00000000000E+00 0.  1.
         22    1    1    2    0    0 -0.14265127541E+04  0.36706628040E+03 -0.50428074475E+03  0.15569121238E+04  0.00000000000E+00 0.  1.
<mgrwt>
<rscale>  0 0.29517752E+04</rscale>
<asrwt>0</asrwt>
<pdfrwt beam="1">  1        2 0.30327776E+00 0.29517752E+04</pdfrwt>
<pdfrwt beam="2">  1       -2 0.16999623E+00 0.29517752E+04</pdfrwt>
<totfact> 0.12698088E+00</totfact>
</mgrwt>
</event>
<event>
 6    1  0.5196787E-004  0.4473215E+04  0.7818608E-02  0.7915343E-01
          2   -1    0    0  501    0  0.00000000000E+00  0.00000000000E+00  0.31667633025E+04  0.31667633025E+04  0.00000000000E+00 0.  1.
         -2   -1    0    0    0  501 -0.00000000000E+00 -0.00000000000E+00 -0.15796615338E+04  0.15796615338E+04  0.00000000000E+00 0. -1.
         23    2    1    2    0    0 -0.78144130798E+03 -0.16277634067E+03  0.30097334355E+04  0.31151592191E+04  0.92601040530E+02 0.  0.
         13    1    3    3    0    0 -0.63849621977E+03 -0.10589598011E+03  0.23289674399E+04  0.24172258308E+04  0.00000000000E+00 0. -1.
        -13    1    3    3    0    0 -0.14294508820E+03 -0.56880360557E+02  0.68076599559E+03  0.69793338824E+03  0.00000000000E+00 0.  1.
         22    1    1    2    0    0  0.78144130798E+03  0.16277634067E+03 -0.14226316667E+04  0.16312656173E+04  0.00000000000E+00 0. -1.
<mgrwt>
<rscale>  0 0.44732155E+04</rscale>
<asrwt>0</asrwt>
<pdfrwt beam="1">  1        2 0.48719435E+00 0.44732155E+04</pdfrwt>
<pdfrwt beam="2">  1       -2 0.24302485E+00 0.44732155E+04</pdfrwt>
<totfact> 0.73367184E-02</totfact>
</mgrwt>
</event>
<event>
 6    1  0.5196787E-004  0.1608093E+04  0.7818608E-02  0.8815592E-01
          2   -1    0    0  501    0  0.00000000000E+00  0.00000000000E+00  0.18541252952E+04  0.18541252952E+04  0.00000000000E+00 0.  1.
         -2   -1    0    0    0  501 -0.00000000000E+00 -0.00000000000E+00 -0.34867683758E+03  0.34867683758E+03  0.00000000000E+00 0. -1.
         23    2    1    2    0    0  0.53490514457E+03  0.11342138575E+03 -0.47127989882E+02  0.55675184504E+03  0.93614342383E+02 0.  0.
         11    1    3    3    0    0  0.30077398755E+03  0.50904682267E+02 -0.71123311191E+02  0.31323282660E+03  0.00000000000E+00 0. -1.
        -11    1    3    3    0    0  0.23413115701E+03  0.62516703481E+02  0.23995321309E+02  0.24351901844E+03  0.00000000000E+00 0.  1.
         22    1    1    2    0    0 -0.53490514457E+03 -0.11342138575E+03  0.15525764475E+04  0.16460502878E+04  0.00000000000E+00 0.  1.
<mgrwt>
<rscale>  0 0.16080927E+04</rscale>
<asrwt>0</asrwt>
<pdfrwt beam="1">  1        2 0.28525004E+00 0.16080927E+04</pdfrwt>
<pdfrwt beam="2">  1       -2 0.53642591E-01 0.16080927E+04</pdfrwt>
<totfact> 0.25268150E+01</totfact>
</mgrwt>
</event>
<event>
 6    1  0.5196787E-004  0.2368183E+04  0.7818608E-02  0.8451512E-01
          2   -1    0    0  501    0  0.00000000000E+00  0.00000000000E+00  0.13185845371E+04  0.13185845371E+04  0.00000000000E+00 0.  1.
         -2   -1    0    0    0  501 -0.00000000000E+00 -0.00000000000E+00 -0.10633169276E+04  0.10633169276E+04  0.00000000000E+00 0. -1.
         23    2    1    2    0    0  0.25129529405E+03 -0.98479002018E+03  0.73553435781E+03  0.12577943264E+04  0.89861379107E+02 0.  0.
         11    1    3    3    0    0  0.15051088050E+02 -0.85488090997E+02  0.95126816383E+02  0.12877833727E+03  0.00000000000E+00 0. -1.
        -11    1    3    3    0    0  0.23624420600E+03 -0.89930192918E+03  0.64040754143E+03  0.11290159892E+04  0.00000000000E+00 0.  1.
         22    1    1    2    0    0 -0.25129529405E+03  0.98479002018E+03 -0.48026674833E+03  0.11241071382E+04  0.00000000000E+00 0. -1.
<mgrwt>
<rscale>  0 0.23681835E+04</rscale>
<asrwt>0</asrwt>
<pdfrwt beam="1">  1        2 0.20285916E+00 0.23681835E+04</pdfrwt>
<pdfrwt beam="2">  1       -2 0.16358722E+00 0.23681835E+04</pdfrwt>
<totfact> 0.34466021E+00</totfact>
</mgrwt>
</event>
<event>
 6    1  0.5196787E-004  0.2645970E+04  0.7818608E-02  0.8352752E-01
         -2   -1    0    0    0  501 -0.00000000000E+00  0.00000000000E+00  0.22058842704E+04  0.22058842704E+04  0.00000000000E+00 0. -1.
          2   -1    0    0  501    0  0.00000000000E+00 -0.00000000000E+00 -0.79346355888E+03  0.79346355888E+03  0.00000000000E+00 0.  1.
         23    2    1    2    0    0 -0.77650308867E+03 -0.10105081341E+04  0.11030846315E+04  0.16879468432E+04  0.91022555734E+02 0.  0.
         13    1    3    3    0    0 -0.29914689699E+03 -0.46297491033E+03  0.47050433879E+03  0.72471302348E+03  0.00000000000E+00 0.  1.
        -13    1    3    3    0    0 -0.47735619169E+03 -0.54753322375E+03  0.63258029267E+03  0.96323381976E+03  0.00000000000E+00 0. -1.
         22    1    1    2    0    0  0.77650308867E+03  0.10105081341E+04  0.30933608005E+03  0.13114009860E+04  0.00000000000E+00 0.  1.
<mgrwt>
<rscale>  0 0.26459696E+04</rscale>
<asrwt>0</asrwt>
<pdfrwt beam="1">  1        2 0.12207132E+00 0.26459696E+04</pdfrwt>
<pdfrwt beam="2">  1       -2 0.33936681E+00 0.26459696E+04</pdfrwt>
<totfact> 0.55694909E-01</totfact>
</mgrwt>
</event>
<event>
 6    1  0.5196787E-004  0.2147106E+04  0.7818608E-02  0.8540772E-01
          2   -1    0    0  501    0  0.00000000000E+00  0.00000000000E+00  0.27239123628E+04  0.27239123628E+04  0.00000000000E+00 0.  1.
         -2   -1    0    0    0  501 -0.00000000000E+00 -0.00000000000E+00 -0.42311037822E+03  0.42311037822E+03  0.00000000000E+00 0. -1.
         23    2    1    2    0    0  0.27546409366E+03  0.24841796358E+03  0.26260437891E+04  0.26536930512E+04  0.91590807735E+02 0.  0.
         11    1    3    3    0    0  0.53999422903E+02  0.98530775799E+02  0.65054988393E+03  0.66018134095E+03  0.00000000000E+00 0.  1.
        -11    1    3    3    0    0  0.22146467075E+03  0.14988718778E+03  0.19754939052E+04  0.19935117102E+04  0.00000000000E+00 0. -1.
         22    1    1    2    0    0 -0.27546409366E+03 -0.24841796358E+03 -0.32524180449E+03  0.49332968988E+03  0.00000000000E+00 0. -1.
<mgrwt>
<rscale>  0 0.21471056E+04</rscale>
<asrwt>0</asrwt>
<pdfrwt beam="1">  1        2 0.41906343E+00 0.21471056E+04</pdfrwt>
<pdfrwt beam="2">  1       -2 0.65093906E-01 0.21471056E+04</pdfrwt>
<totfact> 0.51372807E+00</totfact>
</mgrwt>
</event>
<event>
 6    1  0.5196787E-004  0.5341351E+03  0.7818608E-02  0.1005234E+00
         -2   -1    0    0    0  501 -0.00000000000E+00  0.00000000000E+00  0.26332433311E+03  0.26332433311E+03  0.00000000000E+00 0. -1.
          2   -1    0    0  501    0  0.00000000000E+00 -0.00000000000E+00 -0.27086397245E+03  0.27086397245E+03  0.00000000000E+00 0.  1.
         23    2    1    2    0    0 -0.31729223019E+02 -0.13428827068E+03  0.21527436596E+03  0.27210785189E+03  0.93056687996E+02 0.  0.
         13    1    3    3    0    0  0.21289418656E+01 -0.12843840845E+03  0.14390372735E+03  0.19289696707E+03  0.00000000000E+00 0. -1.
        -13    1    3    3    0    0 -0.33858164884E+02 -0.58498622301E+01  0.71370638610E+02  0.79210884814E+02  0.00000000000E+00 0.  1.
         22    1    1    2    0    0  0.31729223019E+02  0.13428827068E+03 -0.22281400530E+03  0.26208045367E+03  0.00000000000E+00 0.  1.
<mgrwt>
<rscale>  0 0.53413509E+03</rscale>
<asrwt>0</asrwt>
<pdfrwt beam="1">  1        2 0.41671381E-01 0.53413509E+03</pdfrwt>
<pdfrwt beam="2">  1       -2 0.40511436E-01 0.53413509E+03</pdfrwt>
<totfact> 0.71363943E+02</totfact>
</mgrwt>
</event>
<event>
 6    1  0.5196787E-004  0.4034837E+04  0.7818608E-02  0.7997556E-01
         -2   -1    0    0    0  501 -0.00000000000E+00  0.00000000000E+00  0.32109246572E+04  0.32109246572E+04  0.00000000000E+00 0. -1.
          2   -1    0    0  501    0  0.00000000000E+00 -0.00000000000E+00 -0.12675403801E+04  0.12675403801E+04  0.00000000000E+00 0.  1.
         23    2    1    2    0    0 -0.13018926940E+04 -0.60241652456E+03 -0.60057640609E+03  0.15579229278E+04  0.92744668701E+02 0.  0.
         13    1    3    3    0    0 -0.86235500396E+03 -0.43337888437E+03 -0.37047671965E+03  0.10337922471E+04  0.00000000000E+00 0. -1.
        -13    1    3    3    0    0 -0.43953769006E+03 -0.16903764019E+03 -0.23009968644E+03  0.52413068073E+03  0.00000000000E+00 0.  1.
         22    1    1    2    0    0  0.13018926940E+04  0.60241652456E+03  0.25439606831E+04  0.29205421095E+04  0.00000000000E+00 0. -1.
<mgrwt>
<rscale>  0 0.40348366E+04</rscale>
<asrwt>0</asrwt>
<pdfrwt beam="1">  1        2 0.19500621E+00 0.40348366E+04</pdfrwt>
<pdfrwt beam="2">  1       -2 0.49398841E+00 0.40348366E+04</pdfrwt>
<totfact> 0.24466663E-02</totfact>
</mgrwt>
</event>
<event>
 6    1  0.5196787E-004  0.1228741E+04  0.7818608E-02  0.9088065E-01
          2   -1    0    0  501    0  0.00000000000E+00  0.00000000000E+00  0.29659991305E+03  0.29659991305E+03  0.00000000000E+00 0.  1.
         -2   -1    0    0    0  501 -0.00000000000E+00 -0.00000000000E+00 -0.12725934693E+04  0.12725934693E+04  0.00000000000E+00 0. -1.
         23    2    1    2    0    0 -0.42163877405E+03  0.25697197100E+02  0.73738743849E+02  0.43765571015E+03  0.87552935761E+02 0.  0.
         13    1    3    3    0    0 -0.35161122694E+03  0.45567252662E+02  0.38055644473E+02  0.35658808379E+03  0.00000000000E+00 0. -1.
        -13    1    3    3    0    0 -0.70027547112E+02 -0.19870055562E+02  0.35683099376E+02  0.81067626360E+02  0.00000000000E+00 0.  1.
         22    1    1    2    0    0  0.42163877405E+03 -0.25697197100E+02 -0.10497323001E+04  0.11315376722E+04  0.00000000000E+00 0. -1.
<mgrwt>
<rscale>  0 0.12287410E+04</rscale>
<asrwt>0</asrwt>
<pdfrwt beam="1">  1        2 0.45630755E-01 0.12287410E+04</pdfrwt>
<pdfrwt beam="2">  1       -2 0.19578361E+00 0.12287410E+04</pdfrwt>
<totfact> 0.15517903E+01</totfact>
</mgrwt>
</event>
<event>
 6    1  0.5196787E-004  0.1924038E+04  0.7818608E-02  0.8642983E-01
         -2   -1    0    0    0  501 -0.00000000000E+00  0.00000000000E+00  0.62243325206E+03  0.62243325206E+03  0.00000000000E+00 0. -1.
          2   -1    0    0  501    0  0.00000000000E+00 -0.00000000000E+00 -0.14868750370E+04  0.14868750370E+04  0.00000000000E+00 0.  1.
         23    2    1    2    0    0 -0.48013206245E+03 -0.11228192338E+03 -0.13358819143E+04  0.14271134318E+04  0.94542216691E+02 0.  0.
         13    1    3    3    0    0 -0.33008393724E+03 -0.37440082117E+02 -0.94876318049E+03  0.10052406369E+04  0.00000000000E+00 0.  1.
        -13    1    3    3    0    0 -0.15004812521E+03 -0.74841841261E+02 -0.38711873378E+03  0.42187279496E+03  0.00000000000E+00 0. -1.
         22    1    1    2    0    0  0.48013206245E+03  0.11228192338E+03  0.47144012932E+03  0.68219485724E+03  0.00000000000E+00 0. -1.
<mgrwt>
<rscale>  0 0.19240379E+04</rscale>
<asrwt>0</asrwt>
<pdfrwt beam="1">  1        2 0.22875000E+00 0.19240379E+04</pdfrwt>
<pdfrwt beam="2">  1       -2 0.95758963E-01 0.19240379E+04</pdfrwt>
<totfact> 0.11042950E+01</totfact>
</mgrwt>
</event>
<event>
 6    1  0.5196787E-004  0.2776848E+04  0.7818608E-02  0.8310492E-01
          2   -1    0    0  501    0  0.00000000000E+00  0.00000000000E+00  0.17656582463E+04  0.17656582463E+04  0.00000000000E+00 0.  1.
         -2   -1    0    0    0  501 -0.00000000000E+00 -0.00000000000E+00 -0.10917862588E+04  0.10917862588E+04  0.00000000000E+00 0. -1.
         23    2    1    2    0    0 -0.49471833893E+03  0.69852535269E+03  0.14599460948E+04  0.16952928776E+04  0.99455708022E+02 0.  0.
         13    1    3    3    0    0 -0.38360458839E+02  0.47830724046E+02  0.16354967274E+03  0.17466481735E+03  0.00000000000E+00 0.  1.
        -13    1    3    3    0    0 -0.45635788009E+03  0.65069462864E+03  0.12963964220E+04  0.15206280602E+04  0.00000000000E+00 0. -1.
         22    1    1    2    0    0  0.49471833893E+03 -0.69852535269E+03 -0.78607410724E+03  0.11621516275E+04  0.00000000000E+00 0. -1.
<mgrwt>
<rscale>  0 0.27768481E+04</rscale>
<asrwt>0</asrwt>
<pdfrwt beam="1">  1        2 0.27163973E+00 0.27768481E+04</pdfrwt>
<pdfrwt beam="2">  1       -2 0.16796712E+00 0.27768481E+04</pdfrwt>
<totfact> 0.17325561E+00</totfact>
</mgrwt>
</event>
<event>
 6    1  0.5196787E-004  0.2509190E+04  0.7818608E-02  0.8399719E-01
         -2   -1    0    0    0  501 -0.00000000000E+00  0.00000000000E+00  0.26982140687E+04  0.26982140687E+04  0.00000000000E+00 0. -1.
          2   -1    0    0  501    0  0.00000000000E+00 -0.00000000000E+00 -0.58335191925E+03  0.58335191925E+03  0.00000000000E+00 0.  1.
         23    2    1    2    0    0  0.13411480743E+03 -0.52652639370E+03  0.25353549079E+04  0.25945208768E+04  0.91089221791E+02 0.  0.
         13    1    3    3    0    0  0.70409903885E+02 -0.36886116687E+03  0.15685255865E+04  0.16128510875E+04  0.00000000000E+00 0.  1.
        -13    1    3    3    0    0  0.63704903544E+02 -0.15766522683E+03  0.96682932135E+03  0.98166978924E+03  0.00000000000E+00 0. -1.
         22    1    1    2    0    0 -0.13411480743E+03  0.52652639370E+03 -0.42049275846E+03  0.68704511114E+03  0.00000000000E+00 0.  1.
<mgrwt>
<rscale>  0 0.25091898E+04</rscale>
<asrwt>0</asrwt>
<pdfrwt beam="1">  1        2 0.89746451E-01 0.25091898E+04</pdfrwt>
<pdfrwt beam="2">  1       -2 0.41510985E+00 0.25091898E+04</pdfrwt>
<totfact> 0.27009351E-01</totfact>
</mgrwt>
</event>
<event>
 6    1  0.5196787E-004  0.2255242E+04  0.7818608E-02  0.8495781E-01
          2   -1    0    0  501    0  0.00000000000E+00  0.00000000000E+00  0.30532918524E+04  0.30532918524E+04  0.00000000000E+00 0.  1.
         -2   -1    0    0    0  501 -0.00000000000E+00 -0.00000000000E+00 -0.41644540292E+03  0.41644540292E+03  0.00000000000E+00 0. -1.
         23    2    1    2    0    0  0.48566860562E+03  0.66477590622E+03  0.14014327598E+03  0.84079683445E+03  0.97458601711E+02 0.  0.
         13    1    3    3    0    0  0.34753973992E+03  0.54229655305E+03  0.99146445538E+02  0.65168968070E+03  0.00000000000E+00 0.  1.
        -13    1    3    3    0    0  0.13812886570E+03  0.12247935317E+03  0.40996830446E+02  0.18910715375E+03  0.00000000000E+00 0. -1.
         22    1    1    2    0    0 -0.48566860562E+03 -0.66477590622E+03  0.24967031735E+04  0.26289404209E+04  0.00000000000E+00 0.  1.
<mgrwt>
<rscale>  0 0.22552422E+04</rscale>
<asrwt>0</asrwt>
<pdfrwt beam="1">  1        2 0.46973719E+00 0.22552422E+04</pdfrwt>
<pdfrwt beam="2">  1       -2 0.64068526E-01 0.22552422E+04</pdfrwt>
<totfact> 0.33059371E+00</totfact>
</mgrwt>
</event>
<event>
 6    1  0.5196787E-004  0.2096958E+04  0.7818608E-02  0.8562584E-01
          2   -1    0    0  501    0  0.00000000000E+00  0.00000000000E+00  0.30547606187E+04  0.30547606187E+04  0.00000000000E+00 0.  1.
         -2   -1    0    0    0  501 -0.00000000000E+00 -0.00000000000E+00 -0.35986732253E+03  0.35986732253E+03  0.00000000000E+00 0. -1.
         23    2    1    2    0    0  0.60015478662E+02  0.69041662328E+02  0.30475348463E+04  0.30503139671E+04  0.92617761417E+02 0.  0.
         13    1    3    3    0    0 -0.23481517639E+02  0.15463841151E+02  0.44376889465E+03  0.44465868249E+03  0.00000000000E+00 0. -1.
        -13    1    3    3    0    0  0.83496996301E+02  0.53577821177E+02  0.26037659516E+04  0.26056552846E+04  0.00000000000E+00 0.  1.
         22    1    1    2    0    0 -0.60015478662E+02 -0.69041662328E+02 -0.35264155016E+03  0.36431397409E+03  0.00000000000E+00 0. -1.
<mgrwt>
<rscale>  0 0.20969583E+04</rscale>
<asrwt>0</asrwt>
<pdfrwt beam="1">  1        2 0.46996315E+00 0.20969583E+04</pdfrwt>
<pdfrwt beam="2">  1       -2 0.55364205E-01 0.20969583E+04</pdfrwt>
<totfact> 0.45547296E+00</totfact>
</mgrwt>
</event>
<event>
 6    1  0.5196787E-004  0.3201481E+04  0.7818608E-02  0.8188426E-01
         -2   -1    0    0    0  501 -0.00000000000E+00  0.00000000000E+00  0.11006613630E+04  0.11006613630E+04  0.00000000000E+00 0. -1.
          2   -1    0    0  501    0  0.00000000000E+00 -0.00000000000E+00 -0.23280272498E+04  0.23280272498E+04  0.00000000000E+00 0.  1.
         23    2    1    2    0    0  0.49002728211E+03  0.11909881633E+04  0.40158692070E+03  0.13521369541E+04  0.91775516947E+02 0.  0.
         13    1    3    3    0    0  0.39366517421E+03  0.87412069811E+03  0.32430651781E+03  0.10120444564E+04  0.00000000000E+00 0.  1.
        -13    1    3    3    0    0  0.96362107905E+02  0.31686746522E+03  0.77280402883E+02  0.34009249775E+03  0.00000000000E+00 0. -1.
         22    1    1    2    0    0 -0.49002728211E+03 -0.11909881633E+04 -0.16289528075E+04  0.20765516587E+04  0.00000000000E+00 0.  1.
<mgrwt>
<rscale>  0 0.32014807E+04</rscale>
<asrwt>0</asrwt>
<pdfrwt beam="1">  1        2 0.35815803E+00 0.32014807E+04</pdfrwt>
<pdfrwt beam="2">  1       -2 0.16933252E+00 0.32014807E+04</pdfrwt>
<totfact> 0.79283203E-01</totfact>
</mgrwt>
</event>
<event>
 6    1  0.5196787E-004  0.2848849E+04  0.7818608E-02  0.8288261E-01
         -2   -1    0    0    0  501 -0.00000000000E+00  0.00000000000E+00  0.20884858241E+04  0.20884858241E+04  0.00000000000E+00 0. -1.
          2   -1    0    0  501    0  0.00000000000E+00 -0.00000000000E+00 -0.97150996125E+03  0.97150996125E+03  0.00000000000E+00 0.  1.
         23    2    1    2    0    0 -0.46296863497E+03 -0.10647521355E+04 -0.32460238323E+03  0.12090001326E+04  0.90981022487E+02 0.  0.
         11    1    3    3    0    0 -0.41524680735E+03 -0.87192420384E+03 -0.26056329792E+03  0.10002874389E+04  0.00000000000E+00 0. -1.
        -11    1    3    3    0    0 -0.47721827619E+02 -0.19282793163E+03 -0.64039085314E+02  0.20871269367E+03  0.00000000000E+00 0.  1.
         22    1    1    2    0    0  0.46296863497E+03  0.10647521355E+04  0.14415782461E+04  0.18509956528E+04  0.00000000000E+00 0. -1.
<mgrwt>
<rscale>  0 0.28488487E+04</rscale>
<asrwt>0</asrwt>
<pdfrwt beam="1">  1        2 0.14946307E+00 0.28488487E+04</pdfrwt>
<pdfrwt beam="2">  1       -2 0.32130551E+00 0.28488487E+04</pdfrwt>
<totfact> 0.53534383E-01</totfact>
</mgrwt>
</event>
<event>
 6    1  0.5196787E-004  0.2892261E+04  0.7818608E-02  0.8275184E-01
         -2   -1    0    0    0  501 -0.00000000000E+00  0.00000000000E+00  0.88017704876E+03  0.88017704876E+03  0.00000000000E+00 0. -1.
          2   -1    0    0  501    0  0.00000000000E+00 -0.00000000000E+00 -0.23759924754E+04  0.23759924754E+04  0.00000000000E+00 0.  1.
         23    2    1    2    0    0 -0.69418927301E+03  0.10831941123E+04 -0.87794664921E+01  0.12898317662E+04  0.91546022223E+02 0.  0.
         13    1    3    3    0    0 -0.26551753816E+03  0.48866841152E+03  0.17324151972E+02  0.55641396975E+03  0.00000000000E+00 0. -1.
        -13    1    3    3    0    0 -0.42867173485E+03  0.59452570083E+03 -0.26103618464E+02  0.73341779642E+03  0.00000000000E+00 0.  1.
         22    1    1    2    0    0  0.69418927301E+03 -0.10831941123E+04 -0.14870359601E+04  0.19663377580E+04  0.00000000000E+00 0.  1.
<mgrwt>
<rscale>  0 0.28922614E+04</rscale>
<asrwt>0</asrwt>
<pdfrwt beam="1">  1        2 0.36553730E+00 0.28922614E+04</pdfrwt>
<pdfrwt beam="2">  1       -2 0.13541185E+00 0.28922614E+04</pdfrwt>
<totfact> 0.13869974E+00</totfact>
</mgrwt>
</event>
<event>
 6    1  0.5196787E-004  0.2161157E+04  0.7818608E-02  0.8534771E-01
          2   -1    0    0  501    0  0.00000000000E+00  0.00000000000E+00  0.27752417043E+04  0.27752417043E+04  0.00000000000E+00 0.  1.
         -2   -1    0    0    0  501 -0.00000000000E+00 -0.00000000000E+00 -0.42073819957E+03  0.42073819957E+03  0.00000000000E+00 0. -1.
         23    2    1    2    0    0 -0.96289340764E+02 -0.45473884732E+03  0.26186371746E+04  0.26613532566E+04  0.97372727233E+02 0.  0.
         11    1    3    3    0    0 -0.13244078722E+02 -0.26377457524E+03  0.13253753699E+04  0.13514334254E+04  0.00000000000E+00 0. -1.
        -11    1    3    3    0    0 -0.83045262042E+02 -0.19096427208E+03  0.12932618047E+04  0.13099198313E+04  0.00000000000E+00 0.  1.
         22    1    1    2    0    0  0.96289340764E+02  0.45473884732E+03 -0.26413366985E+03  0.53462664725E+03  0.00000000000E+00 0. -1.
<mgrwt>
<rscale>  0 0.21611573E+04</rscale>
<asrwt>0</asrwt>
<pdfrwt beam="1">  1        2 0.42696025E+00 0.21611573E+04</pdfrwt>
<pdfrwt beam="2">  1       -2 0.64728956E-01 0.21611573E+04</pdfrwt>
<totfact> 0.48382302E+00</totfact>
</mgrwt>
</event>
<event>
 6    1  0.5196787E-004  0.2175859E+04  0.7818608E-02  0.8528544E-01
          2   -1    0    0  501    0  0.00000000000E+00  0.00000000000E+00  0.26933588764E+04  0.26933588764E+04  0.00000000000E+00 0.  1.
         -2   -1    0    0    0  501 -0.00000000000E+00 -0.00000000000E+00 -0.43944767927E+03  0.43944767927E+03  0.00000000000E+00 0. -1.
         23    2    1    2    0    0  0.50557590022E+03 -0.94204092849E+03  0.85252131635E+03  0.13701546616E+04  0.86504912949E+02 0.  0.
         13    1    3    3    0    0  0.43193384900E+03 -0.83341869413E+03  0.77830378725E+03  0.12193893369E+04  0.00000000000E+00 0.  1.
        -13    1    3    3    0    0  0.73642051217E+02 -0.10862223436E+03  0.74217529094E+02  0.15076532469E+03  0.00000000000E+00 0. -1.
         22    1    1    2    0    0 -0.50557590022E+03  0.94204092849E+03  0.14013898808E+04  0.17626518941E+04  0.00000000000E+00 0.  1.
<mgrwt>
<rscale>  0 0.21758587E+04</rscale>
<asrwt>0</asrwt>
<pdfrwt beam="1">  1        2 0.41436289E+00 0.21758587E+04</pdfrwt>
<pdfrwt beam="2">  1       -2 0.67607337E-01 0.21758587E+04</pdfrwt>
<totfact> 0.49238993E+00</totfact>
</mgrwt>
</event>
<event>
 6    1  0.5196787E-004  0.2436913E+04  0.7818608E-02  0.8425812E-01
          2   -1    0    0  501    0  0.00000000000E+00  0.00000000000E+00  0.27841705364E+04  0.27841705364E+04  0.00000000000E+00 0.  1.
         -2   -1    0    0    0  501 -0.00000000000E+00 -0.00000000000E+00 -0.53324194401E+03  0.53324194401E+03  0.00000000000E+00 0. -1.
         23    2    1    2    0    0  0.11355039033E+03  0.93955917615E+03  0.86089670632E+02  0.95474604314E+03  0.91996950389E+02 0.  0.
         11    1    3    3    0    0  0.56382980147E+02  0.48731840572E+03  0.90697511165E+02  0.49888305998E+03  0.00000000000E+00 0. -1.
        -11    1    3    3    0    0  0.57167410185E+02  0.45224077042E+03 -0.46078405327E+01  0.45586298316E+03  0.00000000000E+00 0.  1.
         22    1    1    2    0    0 -0.11355039033E+03 -0.93955917615E+03  0.21648389218E+04  0.23626664373E+04  0.00000000000E+00 0.  1.
<mgrwt>
<rscale>  0 0.24369132E+04</rscale>
<asrwt>0</asrwt>
<pdfrwt beam="1">  1        2 0.42833392E+00 0.24369132E+04</pdfrwt>
<pdfrwt beam="2">  1       -2 0.82037224E-01 0.24369132E+04</pdfrwt>
<totfact> 0.27680026E+00</totfact>
</mgrwt>
</event>
<event>
 6    1  0.5196787E-004  0.4365007E+04  0.7818608E-02  0.7934706E-01
         -2   -1    0    0    0  501 -0.00000000000E+00  0.00000000000E+00  0.14130668769E+04  0.14130668769E+04  0.00000000000E+00 0.  1.
          2   -1    0    0  501    0  0.00000000000E+00 -0.00000000000E+00 -0.33709106654E+04  0.33709106654E+04  0.00000000000E+00 0. -1.
         23    2    1    2    0    0 -0.17665589825E+04 -0.11910373186E+04 -0.14932453340E+04  0.26033463820E+04  0.91270063544E+02 0.  0.
         11    1    3    3    0    0 -0.14158647594E+04 -0.99749593140E+03 -0.12151938659E+04  0.21157427258E+04  0.00000000000E+00 0.  1.
        -11    1    3    3    0    0 -0.35069422314E+03 -0.19354138719E+03 -0.27805146810E+03  0.48760365627E+03  0.00000000000E+00 0. -1.
         22    1    1    2    0    0  0.17665589825E+04  0.11910373186E+04 -0.46459845450E+03  0.21806311602E+04  0.00000000000E+00 0.  1.
<mgrwt>
<rscale>  0 0.43650073E+04</rscale>
<asrwt>0</asrwt>
<pdfrwt beam="1">  1        2 0.51860164E+00 0.43650073E+04</pdfrwt>
<pdfrwt beam="2">  1       -2 0.21739491E+00 0.43650073E+04</pdfrwt>
<totfact> 0.78370067E-02</totfact>
</mgrwt>
</event>
<event>
 6    1  0.5196787E-004  0.2578510E+04  0.7818608E-02  0.8375538E-01
         -2   -1    0    0    0  501 -0.00000000000E+00  0.00000000000E+00  0.20124462537E+04  0.20124462537E+04  0.00000000000E+00 0. -1.
          2   -1    0    0  501    0  0.00000000000E+00 -0.00000000000E+00 -0.82594919167E+03  0.82594919167E+03  0.00000000000E+00 0.  1.
         23    2    1    2    0    0 -0.52405420827E+03  0.28459085864E+03  0.18501852224E+04  0.19461473049E+04  0.93162251510E+02 0.  0.
         11    1    3    3    0    0 -0.26391960509E+03  0.19041105926E+03  0.93180392371E+03  0.98699973743E+03  0.00000000000E+00 0. -1.
        -11    1    3    3    0    0 -0.26013460317E+03  0.94179799384E+02  0.91838129869E+03  0.95914756746E+03  0.00000000000E+00 0.  1.
         22    1    1    2    0    0  0.52405420827E+03 -0.28459085864E+03 -0.66368816035E+03  0.89224814049E+03  0.00000000000E+00 0.  1.
<mgrwt>
<rscale>  0 0.25785099E+04</rscale>
<asrwt>0</asrwt>
<pdfrwt beam="1">  1        2 0.12706911E+00 0.25785099E+04</pdfrwt>
<pdfrwt beam="2">  1       -2 0.30960711E+00 0.25785099E+04</pdfrwt>
<totfact> 0.81162287E-01</totfact>
</mgrwt>
</event>
<event>
 6    1  0.5196787E-004  0.3943068E+03  0.7818608E-02  0.1045769E+00
          2   -1    0    0  501    0  0.00000000000E+00  0.00000000000E+00  0.74368753790E+03  0.74368753790E+03  0.00000000000E+00 0.  1.
         -2   -1    0    0    0  501 -0.00000000000E+00 -0.00000000000E+00 -0.52265864986E+02  0.52265864986E+02  0.00000000000E+00 0. -1.
         23    2    1    2    0    0  0.17138920135E+03 -0.68236691427E+02  0.31143713254E+03  0.37355695958E+03  0.92310400975E+02 0.  0.
         11    1    3    3    0    0  0.10883885358E+03 -0.19785105490E+02  0.25000886930E+03  0.27338943135E+03  0.00000000000E+00 0. -1.
        -11    1    3    3    0    0  0.62550347771E+02 -0.48451585937E+02  0.61428263247E+02  0.10016752823E+03  0.00000000000E+00 0.  1.
         22    1    1    2    0    0 -0.17138920135E+03  0.68236691427E+02  0.37998454037E+03  0.42239644331E+03  0.00000000000E+00 0.  1.
<mgrwt>
<rscale>  0 0.39430685E+03</rscale>
<asrwt>0</asrwt>
<pdfrwt beam="1">  1        2 0.11441346E+00 0.39430685E+03</pdfrwt>
<pdfrwt beam="2">  1       -2 0.80409028E-02 0.39430685E+03</pdfrwt>
<totfact> 0.36692403E+03</totfact>
</mgrwt>
</event>
<event>
 6    1  0.5196787E-004  0.5135315E+04  0.7818608E-02  0.7807966E-01
          2   -1    0    0  501    0  0.00000000000E+00  0.00000000000E+00  0.25179973510E+04  0.25179973510E+04  0.00000000000E+00 0.  1.
         -2   -1    0    0    0  501 -0.00000000000E+00 -0.00000000000E+00 -0.26182966708E+04  0.26182966708E+04  0.00000000000E+00 0. -1.
         23    2    1    2    0    0 -0.16288026401E+04  0.13579712013E+04 -0.14973998340E+04  0.25968110685E+04  0.64324479231E+02 0.  0.
         13    1    3    3    0    0 -0.13419501126E+04  0.11009210800E+04 -0.11998906570E+04  0.21101172759E+04  0.00000000000E+00 0. -1.
        -13    1    3    3    0    0 -0.28685252744E+03  0.25705012132E+03 -0.29750917699E+03  0.48669379261E+03  0.00000000000E+00 0.  1.
         22    1    1    2    0    0  0.16288026401E+04 -0.13579712013E+04  0.13971005141E+04  0.25394829534E+04  0.00000000000E+00 0.  1.
<mgrwt>
<rscale>  0 0.51353146E+04</rscale>
<asrwt>0</asrwt>
<pdfrwt beam="1">  1        2 0.38738421E+00 0.51353146E+04</pdfrwt>
<pdfrwt beam="2">  1       -2 0.40281487E+00 0.51353146E+04</pdfrwt>
<totfact> 0.17428418E-02</totfact>
</mgrwt>
</event>
<event>
 6    1  0.5196787E-004  0.2240621E+04  0.7818608E-02  0.8501708E-01
         -1   -1    0    0    0  501 -0.00000000000E+00  0.00000000000E+00  0.86258742600E+03  0.86258742600E+03  0.00000000000E+00 0. -1.
          1   -1    0    0  501    0  0.00000000000E+00 -0.00000000000E+00 -0.14550364516E+04  0.14550364516E+04  0.00000000000E+00 0.  1.
         23    2    1    2    0    0 -0.41671288777E+02 -0.10697393339E+04 -0.63160446587E+03  0.12463573901E+04  0.91672263094E+02 0.  0.
         11    1    3    3    0    0 -0.45559335447E+02 -0.77258808645E+03 -0.49963085757E+03  0.92119433248E+03  0.00000000000E+00 0.  1.
        -11    1    3    3    0    0  0.38880466698E+01 -0.29715124742E+03 -0.13197360830E+03  0.32516305762E+03  0.00000000000E+00 0. -1.
         22    1    1    2    0    0  0.41671288777E+02  0.10697393339E+04  0.39155440265E+02  0.10712664875E+04  0.00000000000E+00 0. -1.
<mgrwt>
<rscale>  0 0.22406215E+04</rscale>
<asrwt>0</asrwt>
<pdfrwt beam="1">  1        1 0.22385176E+00 0.22406215E+04</pdfrwt>
<pdfrwt beam="2">  1       -1 0.13270576E+00 0.22406215E+04</pdfrwt>
<totfact> 0.30741930E+00</totfact>
</mgrwt>
</event>
<event>
 6    1  0.5196787E-004  0.3001639E+04  0.7818608E-02  0.8243263E-01
         -2   -1    0    0    0  501 -0.00000000000E+00  0.00000000000E+00  0.10637256569E+04  0.10637256569E+04  0.00000000000E+00 0. -1.
          2   -1    0    0  501    0  0.00000000000E+00 -0.00000000000E+00 -0.21175193088E+04  0.21175193088E+04  0.00000000000E+00 0.  1.
         23    2    1    2    0    0 -0.92411038892E+03  0.96088188661E+03 -0.12548007739E+04  0.18330321213E+04  0.90596713288E+02 0.  0.
         11    1    3    3    0    0 -0.77877400514E+03  0.76010929539E+03 -0.10120494751E+04  0.14861020261E+04  0.00000000000E+00 0.  1.
        -11    1    3    3    0    0 -0.14533638378E+03  0.20077259123E+03 -0.24275129883E+03  0.34693009515E+03  0.00000000000E+00 0. -1.
         22    1    1    2    0    0  0.92411038892E+03 -0.96088188661E+03  0.20100712201E+03  0.13482128445E+04  0.00000000000E+00 0.  1.
<mgrwt>
<rscale>  0 0.30016393E+04</rscale>
<asrwt>0</asrwt>
<pdfrwt beam="1">  1        2 0.32577220E+00 0.30016393E+04</pdfrwt>
<pdfrwt beam="2">  1       -2 0.16365010E+00 0.30016393E+04</pdfrwt>
<totfact> 0.11644195E+00</totfact>
</mgrwt>
</event>
<event>
 6    1  0.5196787E-004  0.8342026E+03  0.7818608E-02  0.9511788E-01
         -2   -1    0    0    0  501 -0.00000000000E+00  0.00000000000E+00  0.71471902464E+03  0.71471902464E+03  0.00000000000E+00 0. -1.
          2   -1    0    0  501    0  0.00000000000E+00 -0.00000000000E+00 -0.24341523050E+03  0.24341523050E+03  0.00000000000E+00 0.  1.
         23    2    1    2    0    0 -0.38003408393E+02 -0.11105575755E+03  0.69230440939E+03  0.70789654361E+03  0.89746759591E+02 0.  0.
         13    1    3    3    0    0 -0.54264856499E+02 -0.93942405319E+02  0.39412260967E+03  0.40878170412E+03  0.00000000000E+00 0. -1.
        -13    1    3    3    0    0  0.16261448106E+02 -0.17113352226E+02  0.29818179972E+03  0.29911483949E+03  0.00000000000E+00 0.  1.
         22    1    1    2    0    0  0.38003408393E+02  0.11105575755E+03 -0.22100061525E+03  0.25023771153E+03  0.00000000000E+00 0.  1.
<mgrwt>
<rscale>  0 0.83420260E+03</rscale>
<asrwt>0</asrwt>
<pdfrwt beam="1">  1        2 0.37448497E-01 0.83420260E+03</pdfrwt>
<pdfrwt beam="2">  1       -2 0.10995677E+00 0.83420260E+03</pdfrwt>
<totfact> 0.91721035E+01</totfact>
</mgrwt>
</event>
<event>
 6    1  0.5196787E-004  0.1617681E+04  0.7818608E-02  0.8809759E-01
         -2   -1    0    0    0  501 -0.00000000000E+00  0.00000000000E+00  0.22553451387E+03  0.22553451387E+03  0.00000000000E+00 0. -1.
          2   -1    0    0  501    0  0.00000000000E+00 -0.00000000000E+00 -0.29007678914E+04  0.29007678914E+04  0.00000000000E+00 0.  1.
         23    2    1    2    0    0  0.50765017684E+03  0.60220291897E+03 -0.16752962265E+04  0.18534193142E+04  0.90491158957E+02 0.  0.
         11    1    3    3    0    0  0.45002049554E+03  0.48395925906E+03 -0.14187886807E+04  0.15651505779E+04  0.00000000000E+00 0. -1.
        -11    1    3    3    0    0  0.57629681299E+02  0.11824365991E+03 -0.25650754580E+03  0.28826873630E+03  0.00000000000E+00 0.  1.
         22    1    1    2    0    0 -0.50765017684E+03 -0.60220291897E+03 -0.99993715098E+03  0.12728830911E+04  0.00000000000E+00 0. -1.
<mgrwt>
<rscale>  0 0.16176814E+04</rscale>
<asrwt>0</asrwt>
<pdfrwt beam="1">  1        2 0.44627196E+00 0.16176814E+04</pdfrwt>
<pdfrwt beam="2">  1       -2 0.34697619E-01 0.16176814E+04</pdfrwt>
<totfact> 0.15042695E+01</totfact>
</mgrwt>
</event>
<event>
 6    1  0.5196787E-004  0.8935040E+03  0.7818608E-02  0.9433738E-01
         -2   -1    0    0    0  501 -0.00000000000E+00  0.00000000000E+00  0.50621026272E+03  0.50621026272E+03  0.00000000000E+00 0. -1.
          2   -1    0    0  501    0  0.00000000000E+00 -0.00000000000E+00 -0.39427754836E+03  0.39427754836E+03  0.00000000000E+00 0.  1.
         23    2    1    2    0    0 -0.43370168244E+03  0.74862209030E+02  0.88335223936E+01  0.44845800777E+03  0.85644929341E+02 0.  0.
         11    1    3    3    0    0 -0.16917688913E+03  0.44629653851E+02 -0.35542949092E+02  0.17853830695E+03  0.00000000000E+00 0. -1.
        -11    1    3    3    0    0 -0.26452479331E+03  0.30232555179E+02  0.44376471485E+02  0.26991970082E+03  0.00000000000E+00 0.  1.
         22    1    1    2    0    0  0.43370168244E+03 -0.74862209030E+02  0.10309919196E+03  0.45202980331E+03  0.00000000000E+00 0.  1.
<mgrwt>
<rscale>  0 0.89350398E+03</rscale>
<asrwt>0</asrwt>
<pdfrwt beam="1">  1        2 0.60658085E-01 0.89350398E+03</pdfrwt>
<pdfrwt beam="2">  1       -2 0.77878502E-01 0.89350398E+03</pdfrwt>
<totfact> 0.11917481E+02</totfact>
</mgrwt>
</event>
<event>
 6    1  0.5196787E-004  0.2609529E+04  0.7818608E-02  0.8364972E-01
         -2   -1    0    0    0  501 -0.00000000000E+00  0.00000000000E+00  0.10944326419E+04  0.10944326419E+04  0.00000000000E+00 0. -1.
          2   -1    0    0  501    0  0.00000000000E+00 -0.00000000000E+00 -0.15555182290E+04  0.15555182290E+04  0.00000000000E+00 0.  1.
         23    2    1    2    0    0 -0.70622273131E+03 -0.54225766318E+03 -0.11972803370E+04  0.14946255361E+04  0.87357702481E+02 0.  0.
         11    1    3    3    0    0 -0.42253119261E+02 -0.10287675940E+02 -0.49238879127E+02  0.65693451586E+02  0.00000000000E+00 0.  1.
        -11    1    3    3    0    0 -0.66396961204E+03 -0.53196998724E+03 -0.11480414579E+04  0.14289320845E+04  0.00000000000E+00 0. -1.
         22    1    1    2    0    0  0.70622273131E+03  0.54225766318E+03  0.73619474987E+03  0.11553253348E+04  0.00000000000E+00 0. -1.
<mgrwt>
<rscale>  0 0.26095286E+04</rscale>
<asrwt>0</asrwt>
<pdfrwt beam="1">  1        2 0.23931050E+00 0.26095286E+04</pdfrwt>
<pdfrwt beam="2">  1       -2 0.16837425E+00 0.26095286E+04</pdfrwt>
<totfact> 0.22857082E+00</totfact>
</mgrwt>
</event>
<event>
 6    1  0.5196787E-004  0.4227369E+04  0.7818608E-02  0.7960186E-01
         -2   -1    0    0    0  501 -0.00000000000E+00  0.00000000000E+00  0.22844990069E+04  0.22844990069E+04  0.00000000000E+00 0. -1.
          2   -1    0    0  501    0  0.00000000000E+00 -0.00000000000E+00 -0.19556424368E+04  0.19556424368E+04  0.00000000000E+00 0.  1.
         23    2    1    2    0    0  0.74656608963E+02  0.13726632512E+04  0.17736989305E+04  0.22458126202E+04  0.88816769792E+02 0.  0.
         13    1    3    3    0    0  0.33966286740E+02  0.95156987162E+03  0.12871558049E+04  0.16010649566E+04  0.00000000000E+00 0. -1.
        -13    1    3    3    0    0  0.40690322223E+02  0.42109337956E+03  0.48654312558E+03  0.64474766358E+03  0.00000000000E+00 0.  1.
         22    1    1    2    0    0 -0.74656608963E+02 -0.13726632512E+04 -0.14448423604E+04  0.19943288236E+04  0.00000000000E+00 0.  1.
<mgrwt>
<rscale>  0 0.42273695E+04</rscale>
<asrwt>0</asrwt>
<pdfrwt beam="1">  1        2 0.30086807E+00 0.42273695E+04</pdfrwt>
<pdfrwt beam="2">  1       -2 0.35146139E+00 0.42273695E+04</pdfrwt>
<totfact> 0.83416638E-02</totfact>
</mgrwt>
</event>
<event>
 6    1  0.5196787E-004  0.2044259E+04  0.7818608E-02  0.8586203E-01
          1   -1    0    0  501    0  0.00000000000E+00  0.00000000000E+00  0.14203651997E+04  0.14203651997E+04  0.00000000000E+00 0.  1.
         -1   -1    0    0    0  501 -0.00000000000E+00 -0.00000000000E+00 -0.73554938983E+03  0.73554938983E+03  0.00000000000E+00 0. -1.
         23    2    1    2    0    0  0.25207300348E+03  0.98390625307E+03  0.24355034095E+03  0.10485178548E+04  0.91981571009E+02 0.  0.
         11    1    3    3    0    0  0.68962058212E+02  0.44317430413E+03  0.91928238147E+02  0.45783187993E+03  0.00000000000E+00 0. -1.
        -11    1    3    3    0    0  0.18311094527E+03  0.54073194894E+03  0.15162210280E+03  0.59068597490E+03  0.00000000000E+00 0.  1.
         22    1    1    2    0    0 -0.25207300348E+03 -0.98390625307E+03  0.44126546891E+03  0.11073967347E+04  0.00000000000E+00 0.  1.
<mgrwt>
<rscale>  0 0.20442590E+04</rscale>
<asrwt>0</asrwt>
<pdfrwt beam="1">  1        1 0.21851772E+00 0.20442590E+04</pdfrwt>
<pdfrwt beam="2">  1       -1 0.11316144E+00 0.20442590E+04</pdfrwt>
<totfact> 0.49012780E+00</totfact>
</mgrwt>
</event>
<event>
 6    1  0.5196787E-004  0.5427698E+04  0.7818608E-02  0.7765717E-01
         -2   -1    0    0    0  501 -0.00000000000E+00  0.00000000000E+00  0.31658389766E+04  0.31658389766E+04  0.00000000000E+00 0. -1.
          2   -1    0    0  501    0  0.00000000000E+00 -0.00000000000E+00 -0.23263899759E+04  0.23263899759E+04  0.00000000000E+00 0.  1.
         23    2    1    2    0    0  0.26399436337E+03 -0.17902155433E+04 -0.16256450147E+04  0.24342470657E+04  0.90952445172E+02 0.  0.
         13    1    3    3    0    0  0.22717010632E+03 -0.15904001312E+04 -0.14042625733E+04  0.21337601105E+04  0.00000000000E+00 0. -1.
        -13    1    3    3    0    0  0.36824257048E+02 -0.19981541216E+03 -0.22138244138E+03  0.30048695512E+03  0.00000000000E+00 0.  1.
         22    1    1    2    0    0 -0.26399436337E+03  0.17902155433E+04  0.24650940154E+04  0.30579818869E+04  0.00000000000E+00 0. -1.
<mgrwt>
<rscale>  0 0.54276979E+04</rscale>
<asrwt>0</asrwt>
<pdfrwt beam="1">  1        2 0.35790615E+00 0.54276979E+04</pdfrwt>
<pdfrwt beam="2">  1       -2 0.48705215E+00 0.54276979E+04</pdfrwt>
<totfact> 0.61801562E-03</totfact>
</mgrwt>
</event>
<event>
 6    1  0.5196787E-004  0.1724162E+04  0.7818608E-02  0.8747703E-01
         -2   -1    0    0    0  501 -0.00000000000E+00  0.00000000000E+00  0.79696191146E+03  0.79696191146E+03  0.00000000000E+00 0.  1.
          2   -1    0    0  501    0  0.00000000000E+00 -0.00000000000E+00 -0.93252107391E+03  0.93252107391E+03  0.00000000000E+00 0. -1.
         23    2    1    2    0    0 -0.55412916400E+03  0.37758300155E+03  0.47185379195E+03  0.82472967610E+03  0.88909978064E+02 0.  0.
         11    1    3    3    0    0 -0.53218158281E+02  0.11771579913E+02  0.23336806622E+02  0.59290378712E+02  0.00000000000E+00 0. -1.
        -11    1    3    3    0    0 -0.50091100572E+03  0.36581142164E+03  0.44851698533E+03  0.76543929739E+03  0.00000000000E+00 0.  1.
         22    1    1    2    0    0  0.55412916400E+03 -0.37758300155E+03 -0.60741295440E+03  0.90475330927E+03  0.00000000000E+00 0. -1.
<mgrwt>
<rscale>  0 0.17241621E+04</rscale>
<asrwt>0</asrwt>
<pdfrwt beam="1">  1        2 0.14346478E+00 0.17241621E+04</pdfrwt>
<pdfrwt beam="2">  1       -2 0.12260952E+00 0.17241621E+04</pdfrwt>
<totfact> 0.13327503E+01</totfact>
</mgrwt>
</event>
<event>
 6    1  0.5196787E-004  0.2001613E+04  0.7818608E-02  0.8605867E-01
          2   -1    0    0  501    0  0.00000000000E+00  0.00000000000E+00  0.14951891181E+04  0.14951891181E+04  0.00000000000E+00 0.  1.
         -2   -1    0    0    0  501 -0.00000000000E+00 -0.00000000000E+00 -0.66989066265E+03  0.66989066265E+03  0.00000000000E+00 0. -1.
         23    2    1    2    0    0 -0.33598639793E+03 -0.74793943094E+03  0.10303128960E+04  0.13198986328E+04  0.91035626197E+02 0.  0.
         13    1    3    3    0    0 -0.28954764327E+03 -0.69578217121E+03  0.91898053613E+03  0.11884762906E+04  0.00000000000E+00 0. -1.
        -13    1    3    3    0    0 -0.46438754661E+02 -0.52157259735E+02  0.11133235990E+03  0.13142234224E+03  0.00000000000E+00 0.  1.
         22    1    1    2    0    0  0.33598639793E+03  0.74793943094E+03 -0.20501444059E+03  0.84518114792E+03  0.00000000000E+00 0. -1.
<mgrwt>
<rscale>  0 0.20016126E+04</rscale>
<asrwt>0</asrwt>
<pdfrwt beam="1">  1        2 0.23002909E+00 0.20016126E+04</pdfrwt>
<pdfrwt beam="2">  1       -2 0.10306010E+00 0.20016126E+04</pdfrwt>
<totfact> 0.91224494E+00</totfact>
</mgrwt>
</event>
<event>
 6    1  0.5196787E-004  0.1428068E+04  0.7818608E-02  0.8933748E-01
         -2   -1    0    0    0  501 -0.00000000000E+00  0.00000000000E+00  0.59469217261E+03  0.59469217261E+03  0.00000000000E+00 0. -1.
          2   -1    0    0  501    0  0.00000000000E+00 -0.00000000000E+00 -0.85732537710E+03  0.85732537710E+03  0.00000000000E+00 0.  1.
         23    2    1    2    0    0  0.36981590728E+03 -0.42190423118E+03  0.31222868541E+03  0.64875347233E+03  0.92883423163E+02 0.  0.
         13    1    3    3    0    0  0.13460335774E+03 -0.22186425630E+03  0.13045835289E+03  0.29044998533E+03  0.00000000000E+00 0. -1.
        -13    1    3    3    0    0  0.23521254954E+03 -0.20003997488E+03  0.18177033252E+03  0.35830348700E+03  0.00000000000E+00 0.  1.
         22    1    1    2    0    0 -0.36981590728E+03  0.42190423118E+03 -0.57486188989E+03  0.80326407738E+03  0.00000000000E+00 0.  1.
<mgrwt>
<rscale>  0 0.14280682E+04</rscale>
<asrwt>0</asrwt>
<pdfrwt beam="1">  1        2 0.13189621E+00 0.14280682E+04</pdfrwt>
<pdfrwt beam="2">  1       -2 0.91491104E-01 0.14280682E+04</pdfrwt>
<totfact> 0.31007069E+01</totfact>
</mgrwt>
</event>
<event>
 6    1  0.5196787E-004  0.3443147E+04  0.7818608E-02  0.8127397E-01
         -2   -1    0    0    0  501 -0.00000000000E+00  0.00000000000E+00  0.81228511187E+03  0.81228511187E+03  0.00000000000E+00 0. -1.
          2   -1    0    0  501    0  0.00000000000E+00 -0.00000000000E+00 -0.36487372417E+04  0.36487372417E+04  0.00000000000E+00 0.  1.
         23    2    1    2    0    0 -0.39771459073E+03  0.15950425360E+04 -0.76063540650E+03  0.18131264613E+04  0.80769770652E+02 0.  0.
         11    1    3    3    0    0 -0.10967329978E+03  0.37483249756E+03 -0.21472357888E+03  0.44568357524E+03  0.00000000000E+00 0. -1.
        -11    1    3    3    0    0 -0.28804129094E+03  0.12202100384E+04 -0.54591182761E+03  0.13674428861E+04  0.00000000000E+00 0.  1.
         22    1    1    2    0    0  0.39771459073E+03 -0.15950425360E+04 -0.20758167233E+04  0.26478958922E+04  0.00000000000E+00 0.  1.
<mgrwt>
<rscale>  0 0.34431468E+04</rscale>
<asrwt>0</asrwt>
<pdfrwt beam="1">  1        2 0.56134419E+00 0.34431468E+04</pdfrwt>
<pdfrwt beam="2">  1       -2 0.12496694E+00 0.34431468E+04</pdfrwt>
<totfact> 0.25165768E-01</totfact>
</mgrwt>
</event>
<event>
 6    1  0.5196787E-004  0.1372242E+04  0.7818608E-02  0.8974160E-01
         -2   -1    0    0    0  501 -0.00000000000E+00  0.00000000000E+00  0.39085146843E+03  0.39085146843E+03  0.00000000000E+00 0. -1.
          2   -1    0    0  501    0  0.00000000000E+00 -0.00000000000E+00 -0.12044530679E+04  0.12044530679E+04  0.00000000000E+00 0.  1.
         23    2    1    2    0    0  0.65644496169E+03  0.15480598606E+03 -0.28239911222E+03  0.73678198945E+03  0.90628694920E+02 0.  0.
         13    1    3    3    0    0  0.30363769609E+03  0.25311574284E+02 -0.12580121955E+03  0.32963991433E+03  0.00000000000E+00 0. -1.
        -13    1    3    3    0    0  0.35280726560E+03  0.12949441178E+03 -0.15659789267E+03  0.40714207512E+03  0.00000000000E+00 0.  1.
         22    1    1    2    0    0 -0.65644496169E+03 -0.15480598606E+03 -0.53120248724E+03  0.85852254688E+03  0.00000000000E+00 0.  1.
<mgrwt>
<rscale>  0 0.13722423E+04</rscale>
<asrwt>0</asrwt>
<pdfrwt beam="1">  1        2 0.18530047E+00 0.13722423E+04</pdfrwt>
<pdfrwt beam="2">  1       -2 0.60130996E-01 0.13722423E+04</pdfrwt>
<totfact> 0.47328799E+01</totfact>
</mgrwt>
</event>
<event>
 6    1  0.5196787E-004  0.1718212E+04  0.7818608E-02  0.8751045E-01
         -2   -1    0    0    0  501 -0.00000000000E+00  0.00000000000E+00  0.40542640129E+03  0.40542640129E+03  0.00000000000E+00 0. -1.
          2   -1    0    0  501    0  0.00000000000E+00 -0.00000000000E+00 -0.18204611062E+04  0.18204611062E+04  0.00000000000E+00 0.  1.
         23    2    1    2    0    0  0.45369354953E+03 -0.66665533392E+03 -0.10840511481E+04  0.13542125187E+04  0.91964575636E+02 0.  0.
         11    1    3    3    0    0  0.70832024742E+02 -0.11326796815E+03 -0.24078573395E+03  0.27536263002E+03  0.00000000000E+00 0. -1.
        -11    1    3    3    0    0  0.38286152479E+03 -0.55338736577E+03 -0.84326541412E+03  0.10788498887E+04  0.00000000000E+00 0.  1.
         22    1    1    2    0    0 -0.45369354953E+03  0.66665533392E+03 -0.33098355687E+03  0.87167498877E+03  0.00000000000E+00 0. -1.
<mgrwt>
<rscale>  0 0.17182119E+04</rscale>
<asrwt>0</asrwt>
<pdfrwt beam="1">  1        2 0.28007094E+00 0.17182119E+04</pdfrwt>
<pdfrwt beam="2">  1       -2 0.62373292E-01 0.17182119E+04</pdfrwt>
<totfact> 0.19047882E+01</totfact>
</mgrwt>
</event>
<event>
 6    1  0.5196787E-004  0.2168500E+04  0.7818608E-02  0.8531655E-01
          2   -1    0    0  501    0  0.00000000000E+00  0.00000000000E+00  0.20351151350E+04  0.20351151350E+04  0.00000000000E+00 0.  1.
         -2   -1    0    0    0  501 -0.00000000000E+00 -0.00000000000E+00 -0.57765672910E+03  0.57765672910E+03  0.00000000000E+00 0. -1.
         23    2    1    2    0    0  0.91313932492E+03  0.42604887452E+03  0.12057529115E+04  0.15741686068E+04  0.93944924425E+02 0.  0.
         11    1    3    3    0    0  0.20905685516E+03  0.14054225641E+03  0.28285218061E+03  0.37876410945E+03  0.00000000000E+00 0. -1.
        -11    1    3    3    0    0  0.70408246976E+03  0.28550661812E+03  0.92290073089E+03  0.11954044974E+04  0.00000000000E+00 0.  1.
         22    1    1    2    0    0 -0.91313932492E+03 -0.42604887452E+03  0.25170549441E+03  0.10386032573E+04  0.00000000000E+00 0. -1.
<mgrwt>
<rscale>  0 0.21684999E+04</rscale>
<asrwt>0</asrwt>
<pdfrwt beam="1">  1        2 0.31309463E+00 0.21684999E+04</pdfrwt>
<pdfrwt beam="2">  1       -2 0.88870267E-01 0.21684999E+04</pdfrwt>
<totfact> 0.63678073E+00</totfact>
</mgrwt>
</event>
<event>
 6    1  0.5196787E-004  0.2207539E+04  0.7818608E-02  0.8515297E-01
         -1   -1    0    0    0  501 -0.00000000000E+00  0.00000000000E+00  0.10827080378E+04  0.10827080378E+04  0.00000000000E+00 0. -1.
          1   -1    0    0  501    0  0.00000000000E+00 -0.00000000000E+00 -0.11252402384E+04  0.11252402384E+04  0.00000000000E+00 0.  1.
         23    2    1    2    0    0  0.62556535177E+03  0.60166772857E+03  0.65844367906E+03  0.10922855813E+04  0.78763238093E+02 0.  0.
         11    1    3    3    0    0  0.13740315492E+03  0.18002028770E+03  0.17125473288E+03  0.28392800936E+03  0.00000000000E+00 0.  1.
        -11    1    3    3    0    0  0.48816219685E+03  0.42164744087E+03  0.48718894617E+03  0.80835757193E+03  0.00000000000E+00 0. -1.
         22    1    1    2    0    0 -0.62556535177E+03 -0.60166772857E+03 -0.70097587968E+03  0.11156626949E+04  0.00000000000E+00 0.  1.
<mgrwt>
<rscale>  0 0.22075386E+04</rscale>
<asrwt>0</asrwt>
<pdfrwt beam="1">  1        1 0.17311388E+00 0.22075386E+04</pdfrwt>
<pdfrwt beam="2">  1       -1 0.16657047E+00 0.22075386E+04</pdfrwt>
<totfact> 0.28849314E+00</totfact>
</mgrwt>
</event>
<event>
 6    1  0.5196787E-004  0.1424465E+04  0.7818608E-02  0.8936298E-01
         -2   -1    0    0    0  501 -0.00000000000E+00  0.00000000000E+00  0.15310861323E+04  0.15310861323E+04  0.00000000000E+00 0. -1.
          2   -1    0    0  501    0  0.00000000000E+00 -0.00000000000E+00 -0.33131694754E+03  0.33131694754E+03  0.00000000000E+00 0.  1.
         23    2    1    2    0    0  0.67277507859E+03 -0.22247641028E+03  0.64486717063E+03  0.96238179967E+03  0.90570420514E+02 0.  0.
         11    1    3    3    0    0  0.40097216758E+03 -0.12297265727E+03  0.43935095504E+03  0.60739625888E+03  0.00000000000E+00 0. -1.
        -11    1    3    3    0    0  0.27180291101E+03 -0.99503753012E+02  0.20551621559E+03  0.35498554079E+03  0.00000000000E+00 0.  1.
         22    1    1    2    0    0 -0.67277507859E+03  0.22247641028E+03  0.55490201414E+03  0.90002128019E+03  0.00000000000E+00 0.  1.
<mgrwt>
<rscale>  0 0.14244645E+04</rscale>
<asrwt>0</asrwt>
<pdfrwt beam="1">  1        2 0.50971839E-01 0.14244645E+04</pdfrwt>
<pdfrwt beam="2">  1       -2 0.23555171E+00 0.14244645E+04</pdfrwt>
<totfact> 0.75381325E+00</totfact>
</mgrwt>
</event>
<event>
 6    1  0.5196787E-004  0.1819562E+04  0.7818608E-02  0.8695965E-01
          2   -1    0    0  501    0  0.00000000000E+00  0.00000000000E+00  0.13442052263E+04  0.13442052263E+04  0.00000000000E+00 0.  1.
         -2   -1    0    0    0  501 -0.00000000000E+00 -0.00000000000E+00 -0.61575558969E+03  0.61575558969E+03  0.00000000000E+00 0. -1.
         23    2    1    2    0    0  0.55200301847E+03 -0.47495190295E+03 -0.21857897950E+03  0.76532704690E+03  0.87533284605E+02 0.  0.
         13    1    3    3    0    0  0.39903350491E+03 -0.31565821048E+03 -0.18780082856E+03  0.54234398226E+03  0.00000000000E+00 0.  1.
        -13    1    3    3    0    0  0.15296951356E+03 -0.15929369247E+03 -0.30778150940E+02  0.22298306464E+03  0.00000000000E+00 0. -1.
         22    1    1    2    0    0 -0.55200301847E+03  0.47495190295E+03  0.94702861606E+03  0.11946337691E+04  0.00000000000E+00 0. -1.
<mgrwt>
<rscale>  0 0.18195625E+04</rscale>
<asrwt>0</asrwt>
<pdfrwt beam="1">  1        2 0.20680080E+00 0.18195625E+04</pdfrwt>
<pdfrwt beam="2">  1       -2 0.94731629E-01 0.18195625E+04</pdfrwt>
<totfact> 0.13781252E+01</totfact>
</mgrwt>
</event>
<event>
 6    1  0.5196787E-004  0.2018783E+04  0.7818608E-02  0.8597889E-01
         -2   -1    0    0    0  501 -0.00000000000E+00  0.00000000000E+00  0.40746902330E+03  0.40746902330E+03  0.00000000000E+00 0.  1.
          2   -1    0    0  501    0  0.00000000000E+00 -0.00000000000E+00 -0.25004869465E+04  0.25004869465E+04  0.00000000000E+00 0. -1.
         23    2    1    2    0    0  0.62469619653E+02  0.45977937574E+03 -0.23365271605E+04  0.23839366225E+04  0.92168978892E+02 0.  0.
         11    1    3    3    0    0  0.28331638778E+01  0.16286707767E+03 -0.10277434453E+04  0.10405721028E+04  0.00000000000E+00 0. -1.
        -11    1    3    3    0    0  0.59636455775E+02  0.29691229807E+03 -0.13087837152E+04  0.13433645197E+04  0.00000000000E+00 0.  1.
         22    1    1    2    0    0 -0.62469619653E+02 -0.45977937574E+03  0.24350923726E+03  0.52401934732E+03  0.00000000000E+00 0.  1.
<mgrwt>
<rscale>  0 0.20187828E+04</rscale>
<asrwt>0</asrwt>
<pdfrwt beam="1">  1        2 0.38469030E+00 0.20187828E+04</pdfrwt>
<pdfrwt beam="2">  1       -2 0.62687542E-01 0.20187828E+04</pdfrwt>
<totfact> 0.76183044E+00</totfact>
</mgrwt>
</event>
<event>
 6    1  0.5196787E-004  0.2012703E+04  0.7818608E-02  0.8600705E-01
         -2   -1    0    0    0  501 -0.00000000000E+00  0.00000000000E+00  0.74236343345E+03  0.74236343345E+03  0.00000000000E+00 0. -1.
          2   -1    0    0  501    0  0.00000000000E+00 -0.00000000000E+00 -0.13642148242E+04  0.13642148242E+04  0.00000000000E+00 0.  1.
         23    2    1    2    0    0  0.78113119613E+02  0.92905480170E+03  0.80061841625E+02  0.93956211819E+03  0.84395446787E+02 0.  0.
         13    1    3    3    0    0  0.46934331775E+02  0.84518271685E+03  0.66974952560E+02  0.84913032017E+03  0.00000000000E+00 0.  1.
        -13    1    3    3    0    0  0.31178787838E+02  0.83872084857E+02  0.13086889065E+02  0.90431798029E+02  0.00000000000E+00 0. -1.
         22    1    1    2    0    0 -0.78113119613E+02 -0.92905480170E+03 -0.70191323241E+03  0.11670161395E+04  0.00000000000E+00 0.  1.
<mgrwt>
<rscale>  0 0.20127029E+04</rscale>
<asrwt>0</asrwt>
<pdfrwt beam="1">  1        2 0.20987920E+00 0.20127029E+04</pdfrwt>
<pdfrwt beam="2">  1       -2 0.11420976E+00 0.20127029E+04</pdfrwt>
<totfact> 0.84457389E+00</totfact>
</mgrwt>
</event>
<event>
 6    1  0.5196787E-004  0.2865581E+04  0.7818608E-02  0.8283193E-01
          1   -1    0    0  501    0  0.00000000000E+00  0.00000000000E+00  0.24235039994E+04  0.24235039994E+04  0.00000000000E+00 0.  1.
         -1   -1    0    0    0  501 -0.00000000000E+00 -0.00000000000E+00 -0.84707428285E+03  0.84707428285E+03  0.00000000000E+00 0. -1.
         23    2    1    2    0    0 -0.78831796517E+02 -0.96503118649E+03 -0.41390782600E+03  0.10572226451E+04  0.94341877941E+02 0.  0.
         11    1    3    3    0    0 -0.37503107492E+02 -0.45488342977E+03 -0.24640406542E+03  0.51869102672E+03  0.00000000000E+00 0. -1.
        -11    1    3    3    0    0 -0.41328689025E+02 -0.51014775672E+03 -0.16750376058E+03  0.53853161842E+03  0.00000000000E+00 0.  1.
         22    1    1    2    0    0  0.78831796517E+02  0.96503118649E+03  0.19903375425E+04  0.22133556371E+04  0.00000000000E+00 0.  1.
<mgrwt>
<rscale>  0 0.28655805E+04</rscale>
<asrwt>0</asrwt>
<pdfrwt beam="1">  1        1 0.37284677E+00 0.28655805E+04</pdfrwt>
<pdfrwt beam="2">  1       -1 0.13031912E+00 0.28655805E+04</pdfrwt>
<totfact> 0.66380919E-01</totfact>
</mgrwt>
</event>
<event>
 6    1  0.5196787E-004  0.2607932E+04  0.7818608E-02  0.8365512E-01
          2   -1    0    0  501    0  0.00000000000E+00  0.00000000000E+00  0.27089056501E+04  0.27089056501E+04  0.00000000000E+00 0.  1.
         -2   -1    0    0    0  501 -0.00000000000E+00 -0.00000000000E+00 -0.62768065145E+03  0.62768065145E+03  0.00000000000E+00 0. -1.
         23    2    1    2    0    0  0.38249166771E+03 -0.12271859126E+04  0.13099485838E+04  0.18375357861E+04  0.91034790744E+02 0.  0.
         11    1    3    3    0    0  0.24636047313E+03 -0.63980840532E+03  0.68643829498E+03  0.97017823675E+03  0.00000000000E+00 0.  1.
        -11    1    3    3    0    0  0.13613119458E+03 -0.58737750724E+03  0.62351028881E+03  0.86735754934E+03  0.00000000000E+00 0. -1.
         22    1    1    2    0    0 -0.38249166771E+03  0.12271859126E+04  0.77127641490E+03  0.14990505155E+04  0.00000000000E+00 0. -1.
<mgrwt>
<rscale>  0 0.26079323E+04</rscale>
<asrwt>0</asrwt>
<pdfrwt beam="1">  1        2 0.41675471E+00 0.26079323E+04</pdfrwt>
<pdfrwt beam="2">  1       -2 0.96566255E-01 0.26079323E+04</pdfrwt>
<totfact> 0.20794759E+00</totfact>
</mgrwt>
</event>
<event>
 6    1  0.5196787E-004  0.3355799E+04  0.7818608E-02  0.8148841E-01
          2   -1    0    0  501    0  0.00000000000E+00  0.00000000000E+00  0.37615081274E+04  0.37615081274E+04  0.00000000000E+00 0.  1.
         -2   -1    0    0    0  501 -0.00000000000E+00 -0.00000000000E+00 -0.74846231037E+03  0.74846231037E+03  0.00000000000E+00 0. -1.
         23    2    1    2    0    0 -0.87960504149E+03 -0.27240038465E+03 -0.37428065717E+03  0.99971579725E+03  0.10695170107E+03 0.  0.
         13    1    3    3    0    0 -0.22344405532E+03 -0.97309155071E+02 -0.57802483579E+02  0.25047443907E+03  0.00000000000E+00 0. -1.
        -13    1    3    3    0    0 -0.65616098617E+03 -0.17509122958E+03 -0.31647817359E+03  0.74924135818E+03  0.00000000000E+00 0.  1.
         22    1    1    2    0    0  0.87960504149E+03  0.27240038465E+03  0.33873264742E+04  0.35102546405E+04  0.00000000000E+00 0.  1.
<mgrwt>
<rscale>  0 0.33557992E+04</rscale>
<asrwt>0</asrwt>
<pdfrwt beam="1">  1        2 0.57869355E+00 0.33557992E+04</pdfrwt>
<pdfrwt beam="2">  1       -2 0.11514805E+00 0.33557992E+04</pdfrwt>
<totfact> 0.25618292E-01</totfact>
</mgrwt>
</event>
<event>
 6    1  0.5196787E-004  0.2608551E+04  0.7818608E-02  0.8365302E-01
         -2   -1    0    0    0  501 -0.00000000000E+00  0.00000000000E+00  0.73440826585E+03  0.73440826585E+03  0.00000000000E+00 0. -1.
          2   -1    0    0  501    0  0.00000000000E+00 -0.00000000000E+00 -0.23163332569E+04  0.23163332569E+04  0.00000000000E+00 0.  1.
         23    2    1    2    0    0  0.56426810689E+02  0.95260835472E+03 -0.18290027778E+04  0.20649960713E+04  0.91164416487E+02 0.  0.
         13    1    3    3    0    0  0.40691348076E+02  0.15499350212E+03 -0.33413457872E+03  0.37057345858E+03  0.00000000000E+00 0.  1.
        -13    1    3    3    0    0  0.15735462612E+02  0.79761485260E+03 -0.14948681991E+04  0.16944226127E+04  0.00000000000E+00 0. -1.
         22    1    1    2    0    0 -0.56426810689E+02 -0.95260835472E+03  0.24707778672E+03  0.98574545149E+03  0.00000000000E+00 0. -1.
<mgrwt>
<rscale>  0 0.26085508E+04</rscale>
<asrwt>0</asrwt>
<pdfrwt beam="1">  1        2 0.35635896E+00 0.26085508E+04</pdfrwt>
<pdfrwt beam="2">  1       -2 0.11298589E+00 0.26085508E+04</pdfrwt>
<totfact> 0.24145197E+00</totfact>
</mgrwt>
</event>
<event>
 6    1  0.5196787E-004  0.2875882E+04  0.7818608E-02  0.8280090E-01
         -2   -1    0    0    0  501 -0.00000000000E+00  0.00000000000E+00  0.69032128426E+03  0.69032128426E+03  0.00000000000E+00 0. -1.
          2   -1    0    0  501    0  0.00000000000E+00 -0.00000000000E+00 -0.29952342850E+04  0.29952342850E+04  0.00000000000E+00 0.  1.
         23    2    1    2    0    0  0.56745327928E+03 -0.11592703330E+04 -0.19617345685E+04  0.23500098510E+04  0.90735071913E+02 0.  0.
         11    1    3    3    0    0  0.20109820312E+03 -0.51046103905E+03 -0.84936979700E+03  0.10111577581E+04  0.00000000000E+00 0. -1.
        -11    1    3    3    0    0  0.36635507616E+03 -0.64880929398E+03 -0.11123647715E+04  0.13388520929E+04  0.00000000000E+00 0.  1.
         22    1    1    2    0    0 -0.56745327928E+03  0.11592703330E+04 -0.34317843224E+03  0.13355457183E+04  0.00000000000E+00 0. -1.
<mgrwt>
<rscale>  0 0.28758818E+04</rscale>
<asrwt>0</asrwt>
<pdfrwt beam="1">  1        2 0.46080527E+00 0.28758818E+04</pdfrwt>
<pdfrwt beam="2">  1       -2 0.10620328E+00 0.28758818E+04</pdfrwt>
<totfact> 0.10837839E+00</totfact>
</mgrwt>
</event>
<event>
 6    1  0.5196787E-004  0.1218125E+04  0.7818608E-02  0.9097138E-01
          2   -1    0    0  501    0  0.00000000000E+00  0.00000000000E+00  0.15493617730E+04  0.15493617730E+04  0.00000000000E+00 0.  1.
         -2   -1    0    0    0  501 -0.00000000000E+00 -0.00000000000E+00 -0.23942557649E+03  0.23942557649E+03  0.00000000000E+00 0. -1.
         23    2    1    2    0    0  0.40678293338E+03 -0.19636423931E+03  0.66168864777E+02  0.46553814966E+03  0.91193095995E+02 0.  0.
         13    1    3    3    0    0  0.17624140627E+03 -0.13102521309E+03  0.50892122996E+02  0.22542991801E+03  0.00000000000E+00 0. -1.
        -13    1    3    3    0    0  0.23054152711E+03 -0.65339026217E+02  0.15276741782E+02  0.24010823165E+03  0.00000000000E+00 0.  1.
         22    1    1    2    0    0 -0.40678293338E+03  0.19636423931E+03  0.12437673318E+04  0.13232491999E+04  0.00000000000E+00 0.  1.
<mgrwt>
<rscale>  0 0.12181245E+04</rscale>
<asrwt>0</asrwt>
<pdfrwt beam="1">  1        2 0.23836334E+00 0.12181245E+04</pdfrwt>
<pdfrwt beam="2">  1       -2 0.36834705E-01 0.12181245E+04</pdfrwt>
<totfact> 0.81438525E+01</totfact>
</mgrwt>
</event>
<event>
 6    1  0.5196787E-004  0.1225149E+04  0.7818608E-02  0.9091124E-01
          2   -1    0    0  501    0  0.00000000000E+00  0.00000000000E+00  0.18296188264E+04  0.18296188264E+04  0.00000000000E+00 0.  1.
         -2   -1    0    0    0  501 -0.00000000000E+00 -0.00000000000E+00 -0.20509614490E+03  0.20509614490E+03  0.00000000000E+00 0. -1.
         23    2    1    2    0    0 -0.13532074601E+03  0.23005582759E+03  0.17262579405E+04  0.17490798001E+04  0.89868135447E+02 0.  0.
         11    1    3    3    0    0 -0.43406766204E+02  0.14885839526E+03  0.81653519684E+03  0.83112736501E+03  0.00000000000E+00 0. -1.
        -11    1    3    3    0    0 -0.91913979811E+02  0.81197432336E+02  0.90972274368E+03  0.91795243508E+03  0.00000000000E+00 0.  1.
         22    1    1    2    0    0  0.13532074601E+03 -0.23005582759E+03 -0.10173525901E+03  0.28563517122E+03  0.00000000000E+00 0. -1.
<mgrwt>
<rscale>  0 0.12251494E+04</rscale>
<asrwt>0</asrwt>
<pdfrwt beam="1">  1        2 0.28147981E+00 0.12251494E+04</pdfrwt>
<pdfrwt beam="2">  1       -2 0.31553254E-01 0.12251494E+04</pdfrwt>
<totfact> 0.76370028E+01</totfact>
</mgrwt>
</event>
<event>
 6    1  0.5196787E-004  0.2341126E+04  0.7818608E-02  0.8461880E-01
         -2   -1    0    0    0  501 -0.00000000000E+00  0.00000000000E+00  0.10102732479E+04  0.10102732479E+04  0.00000000000E+00 0. -1.
          2   -1    0    0  501    0  0.00000000000E+00 -0.00000000000E+00 -0.13562838200E+04  0.13562838200E+04  0.00000000000E+00 0.  1.
         23    2    1    2    0    0 -0.97965928355E+03  0.55493470295E+03 -0.49068864481E+03  0.12313845783E+04  0.88587793631E+02 0.  0.
         11    1    3    3    0    0 -0.26361937621E+03  0.15002693082E+03 -0.90005581804E+02  0.31639257298E+03  0.00000000000E+00 0. -1.
        -11    1    3    3    0    0 -0.71603990734E+03  0.40490777213E+03 -0.40068306301E+03  0.91499200533E+03  0.00000000000E+00 0.  1.
         22    1    1    2    0    0  0.97965928355E+03 -0.55493470295E+03  0.14467807264E+03  0.11351724896E+04  0.00000000000E+00 0.  1.
<mgrwt>
<rscale>  0 0.23411256E+04</rscale>
<asrwt>0</asrwt>
<pdfrwt beam="1">  1        2 0.20865905E+00 0.23411256E+04</pdfrwt>
<pdfrwt beam="2">  1       -2 0.15542665E+00 0.23411256E+04</pdfrwt>
<totfact> 0.37759169E+00</totfact>
</mgrwt>
</event>
<event>
 6    1  0.5196787E-004  0.1978369E+04  0.7818608E-02  0.8616801E-01
         -2   -1    0    0    0  501 -0.00000000000E+00  0.00000000000E+00  0.48664901432E+03  0.48664901432E+03  0.00000000000E+00 0. -1.
          2   -1    0    0  501    0  0.00000000000E+00 -0.00000000000E+00 -0.20106607120E+04  0.20106607120E+04  0.00000000000E+00 0.  1.
         23    2    1    2    0    0 -0.65153442066E+03 -0.38229335963E+02  0.17083704731E+03  0.68114044682E+03  0.93853226520E+02 0.  0.
         13    1    3    3    0    0 -0.17958689498E+03  0.23158690539E+02  0.21547059857E+02  0.18235145622E+03  0.00000000000E+00 0. -1.
        -13    1    3    3    0    0 -0.47194752568E+03 -0.61388026503E+02  0.14928998745E+03  0.49878899061E+03  0.00000000000E+00 0.  1.
         22    1    1    2    0    0  0.65153442066E+03  0.38229335963E+02 -0.16948487450E+04  0.18161692795E+04  0.00000000000E+00 0.  1.
<mgrwt>
<rscale>  0 0.19783691E+04</rscale>
<asrwt>0</asrwt>
<pdfrwt beam="1">  1        2 0.30933242E+00 0.19783691E+04</pdfrwt>
<pdfrwt beam="2">  1       -2 0.74869078E-01 0.19783691E+04</pdfrwt>
<totfact> 0.98316471E+00</totfact>
</mgrwt>
</event>
<event>
 6    1  0.5196787E-004  0.1346387E+04  0.7818608E-02  0.8993568E-01
          2   -1    0    0  501    0  0.00000000000E+00  0.00000000000E+00  0.35774333911E+04  0.35774333911E+04  0.00000000000E+00 0.  1.
         -2   -1    0    0    0  501 -0.00000000000E+00 -0.00000000000E+00 -0.12667999605E+03  0.12667999605E+03  0.00000000000E+00 0. -1.
         23    2    1    2    0    0  0.20683070975E+03 -0.48905992148E+03  0.28578481409E+04  0.29081892766E+04  0.91160972820E+02 0.  0.
         11    1    3    3    0    0  0.19836645507E+03 -0.48759747067E+03  0.27452191703E+04  0.27952332348E+04  0.00000000000E+00 0. -1.
        -11    1    3    3    0    0  0.84642546835E+01 -0.14624508141E+01  0.11262897055E+03  0.11295604179E+03  0.00000000000E+00 0.  1.
         22    1    1    2    0    0 -0.20683070975E+03  0.48905992148E+03  0.59290525413E+03  0.79592411050E+03  0.00000000000E+00 0. -1.
<mgrwt>
<rscale>  0 0.13463866E+04</rscale>
<asrwt>0</asrwt>
<pdfrwt beam="1">  1        2 0.55037429E+00 0.13463866E+04</pdfrwt>
<pdfrwt beam="2">  1       -2 0.19489233E-01 0.13463866E+04</pdfrwt>
<totfact> 0.15989123E+01</totfact>
</mgrwt>
</event>
<event>
 6    1  0.5196787E-004  0.6070522E+04  0.7818608E-02  0.7681719E-01
          2   -1    0    0  501    0  0.00000000000E+00  0.00000000000E+00  0.31632669849E+04  0.31632669849E+04  0.00000000000E+00 0.  1.
         -2   -1    0    0    0  501 -0.00000000000E+00 -0.00000000000E+00 -0.29124351284E+04  0.29124351284E+04  0.00000000000E+00 0. -1.
         23    2    1    2    0    0 -0.17429182613E+04  0.24746139089E+04  0.33579162621E+03  0.30477166071E+04  0.11975991453E+03 0.  0.
         13    1    3    3    0    0 -0.11472461483E+04  0.17255453685E+04  0.23005867356E+03  0.20848519221E+04  0.00000000000E+00 0. -1.
        -13    1    3    3    0    0 -0.59567211298E+03  0.74906854040E+03  0.10573295265E+03  0.96286468503E+03  0.00000000000E+00 0.  1.
         22    1    1    2    0    0  0.17429182613E+04 -0.24746139089E+04 -0.84959769683E+02  0.30279855063E+04  0.00000000000E+00 0. -1.
<mgrwt>
<rscale>  0 0.60705222E+04</rscale>
<asrwt>0</asrwt>
<pdfrwt beam="1">  1        2 0.48665646E+00 0.60705222E+04</pdfrwt>
<pdfrwt beam="2">  1       -2 0.44806694E+00 0.60705222E+04</pdfrwt>
<totfact> 0.32914650E-03</totfact>
</mgrwt>
</event>
<event>
 6    1  0.5196787E-004  0.4991709E+04  0.7818608E-02  0.7829787E-01
         -2   -1    0    0    0  501 -0.00000000000E+00  0.00000000000E+00  0.16781608057E+04  0.16781608057E+04  0.00000000000E+00 0. -1.
          2   -1    0    0  501    0  0.00000000000E+00 -0.00000000000E+00 -0.37119744081E+04  0.37119744081E+04  0.00000000000E+00 0.  1.
         23    2    1    2    0    0  0.12049024378E+04 -0.11028895955E+04  0.10192485440E+04  0.19275720281E+04  0.92254998911E+02 0.  0.
         13    1    3    3    0    0  0.86661517648E+03 -0.75669604642E+03  0.75515687419E+03  0.13761804662E+04  0.00000000000E+00 0.  1.
        -13    1    3    3    0    0  0.33828726131E+03 -0.34619354905E+03  0.26409166980E+03  0.55139156198E+03  0.00000000000E+00 0. -1.
         22    1    1    2    0    0 -0.12049024378E+04  0.11028895955E+04 -0.30530621465E+04  0.34625631856E+04  0.00000000000E+00 0.  1.
<mgrwt>
<rscale>  0 0.49917091E+04</rscale>
<asrwt>0</asrwt>
<pdfrwt beam="1">  1        2 0.57107298E+00 0.49917091E+04</pdfrwt>
<pdfrwt beam="2">  1       -2 0.25817859E+00 0.49917091E+04</pdfrwt>
<totfact> 0.23779718E-02</totfact>
</mgrwt>
</event>
<event>
 6    1  0.5196787E-004  0.2780083E+04  0.7818608E-02  0.8309479E-01
         -2   -1    0    0    0  501 -0.00000000000E+00  0.00000000000E+00  0.43110411294E+04  0.43110411294E+04  0.00000000000E+00 0. -1.
          2   -1    0    0  501    0  0.00000000000E+00 -0.00000000000E+00 -0.44820159159E+03  0.44820159159E+03  0.00000000000E+00 0.  1.
         23    2    1    2    0    0  0.10137654754E+04  0.70719107463E+02  0.31349307517E+03  0.10672809196E+04  0.89938990069E+02 0.  0.
         11    1    3    3    0    0  0.73489065306E+03  0.45838262091E+02  0.26828366284E+03  0.78367183308E+03  0.00000000000E+00 0.  1.
        -11    1    3    3    0    0  0.27887482231E+03  0.24880845372E+02  0.45209412322E+02  0.28360908650E+03  0.00000000000E+00 0. -1.
         22    1    1    2    0    0 -0.10137654754E+04 -0.70719107463E+02  0.35493464626E+04  0.36919618014E+04  0.00000000000E+00 0. -1.
<mgrwt>
<rscale>  0 0.27800831E+04</rscale>
<asrwt>0</asrwt>
<pdfrwt beam="1">  1        2 0.68954094E-01 0.27800831E+04</pdfrwt>
<pdfrwt beam="2">  1       -2 0.66323707E+00 0.27800831E+04</pdfrwt>
<totfact> 0.18247349E-02</totfact>
</mgrwt>
</event>
<event>
 6    1  0.5196787E-004  0.2410213E+04  0.7818608E-02  0.8435690E-01
          2   -1    0    0  501    0  0.00000000000E+00  0.00000000000E+00  0.95007648603E+03  0.95007648603E+03  0.00000000000E+00 0.  1.
         -2   -1    0    0    0  501 -0.00000000000E+00 -0.00000000000E+00 -0.15285943334E+04  0.15285943334E+04  0.00000000000E+00 0. -1.
         23    2    1    2    0    0  0.40340435495E+03 -0.89602591260E+03  0.42479452505E+03  0.10743086061E+04  0.89950447288E+02 0.  0.
         11    1    3    3    0    0  0.27887729651E+03 -0.51355547695E+03  0.24288601680E+03  0.63285495303E+03  0.00000000000E+00 0.  1.
        -11    1    3    3    0    0  0.12452705844E+03 -0.38247043564E+03  0.18190850826E+03  0.44145365306E+03  0.00000000000E+00 0. -1.
         22    1    1    2    0    0 -0.40340435495E+03  0.89602591260E+03 -0.10033123725E+04  0.14043622134E+04  0.00000000000E+00 0. -1.
<mgrwt>
<rscale>  0 0.24102129E+04</rscale>
<asrwt>0</asrwt>
<pdfrwt beam="1">  1        2 0.14616561E+00 0.24102129E+04</pdfrwt>
<pdfrwt beam="2">  1       -2 0.23516836E+00 0.24102129E+04</pdfrwt>
<totfact> 0.19356461E+00</totfact>
</mgrwt>
</event>
<event>
 6    1  0.5196787E-004  0.2299137E+04  0.7818608E-02  0.8478261E-01
         -2   -1    0    0    0  501 -0.00000000000E+00  0.00000000000E+00  0.79035506605E+03  0.79035506605E+03  0.00000000000E+00 0. -1.
          2   -1    0    0  501    0  0.00000000000E+00 -0.00000000000E+00 -0.16720438059E+04  0.16720438059E+04  0.00000000000E+00 0.  1.
         23    2    1    2    0    0 -0.68577215357E+03 -0.57154806131E+03  0.33119486486E+03  0.95639844978E+03  0.89762593755E+02 0.  0.
         13    1    3    3    0    0 -0.61947279823E+03 -0.47746092291E+03  0.28867555913E+03  0.83369602320E+03  0.00000000000E+00 0.  1.
        -13    1    3    3    0    0 -0.66299355340E+02 -0.94087138394E+02  0.42519305725E+02  0.12270242658E+03  0.00000000000E+00 0. -1.
         22    1    1    2    0    0  0.68577215357E+03  0.57154806131E+03 -0.12128836047E+04  0.15060004222E+04  0.00000000000E+00 0.  1.
<mgrwt>
<rscale>  0 0.22991375E+04</rscale>
<asrwt>0</asrwt>
<pdfrwt beam="1">  1        2 0.25723751E+00 0.22991375E+04</pdfrwt>
<pdfrwt beam="2">  1       -2 0.12159309E+00 0.22991375E+04</pdfrwt>
<totfact> 0.47362698E+00</totfact>
</mgrwt>
</event>
<event>
 6    1  0.5196787E-004  0.1286030E+04  0.7818608E-02  0.9040717E-01
         -2   -1    0    0    0  501 -0.00000000000E+00  0.00000000000E+00  0.16462902010E+04  0.16462902010E+04  0.00000000000E+00 0. -1.
          2   -1    0    0  501    0  0.00000000000E+00 -0.00000000000E+00 -0.25115151053E+03  0.25115151053E+03  0.00000000000E+00 0.  1.
         23    2    1    2    0    0 -0.50731751119E+03  0.30646388640E+03  0.34566275647E+03  0.69216543329E+03  0.91208963407E+02 0.  0.
         11    1    3    3    0    0 -0.16230187895E+03  0.14223348141E+03  0.15049760560E+03  0.26310034671E+03  0.00000000000E+00 0. -1.
        -11    1    3    3    0    0 -0.34501563224E+03  0.16423040499E+03  0.19516515086E+03  0.42906508658E+03  0.00000000000E+00 0.  1.
         22    1    1    2    0    0  0.50731751119E+03 -0.30646388640E+03  0.10494759340E+04  0.12052762782E+04  0.00000000000E+00 0. -1.
<mgrwt>
<rscale>  0 0.12860300E+04</rscale>
<asrwt>0</asrwt>
<pdfrwt beam="1">  1        2 0.38638695E-01 0.12860300E+04</pdfrwt>
<pdfrwt beam="2">  1       -2 0.25327541E+00 0.12860300E+04</pdfrwt>
<totfact> 0.80771660E+00</totfact>
</mgrwt>
</event>
<event>
 6    1  0.5196787E-004  0.7475141E+03  0.7818608E-02  0.9639258E-01
         -2   -1    0    0    0  501 -0.00000000000E+00  0.00000000000E+00  0.14135919288E+03  0.14135919288E+03  0.00000000000E+00 0. -1.
          2   -1    0    0  501    0  0.00000000000E+00 -0.00000000000E+00 -0.98822253606E+03  0.98822253606E+03  0.00000000000E+00 0.  1.
         23    2    1    2    0    0 -0.26363266241E+03 -0.68683306745E+02 -0.80405088279E+03  0.85380558044E+03  0.90920678384E+02 0.  0.
         11    1    3    3    0    0 -0.17612260661E+03 -0.11585516253E+02 -0.41517000223E+03  0.45113138607E+03  0.00000000000E+00 0. -1.
        -11    1    3    3    0    0 -0.87510055802E+02 -0.57097790492E+02 -0.38888088057E+03  0.40267419438E+03  0.00000000000E+00 0.  1.
         22    1    1    2    0    0  0.26363266241E+03  0.68683306745E+02 -0.42812460386E+02  0.27577614849E+03  0.00000000000E+00 0. -1.
<mgrwt>
<rscale>  0 0.74751412E+03</rscale>
<asrwt>0</asrwt>
<pdfrwt beam="1">  1        2 0.15203424E+00 0.74751412E+03</pdfrwt>
<pdfrwt beam="2">  1       -2 0.21747568E-01 0.74751412E+03</pdfrwt>
<totfact> 0.47460663E+02</totfact>
</mgrwt>
</event>
<event>
 6    1  0.5196787E-004  0.4148387E+04  0.7818608E-02  0.7975263E-01
         -2   -1    0    0    0  501 -0.00000000000E+00  0.00000000000E+00  0.44088376713E+04  0.44088376713E+04  0.00000000000E+00 0. -1.
          2   -1    0    0  501    0  0.00000000000E+00 -0.00000000000E+00 -0.97583079005E+03  0.97583079005E+03  0.00000000000E+00 0.  1.
         23    2    1    2    0    0  0.17424085565E+04  0.92564813887E+03  0.89097790022E+03  0.21667928585E+04  0.91310558528E+02 0.  0.
         13    1    3    3    0    0  0.11394042237E+04  0.62437668725E+03  0.54260255164E+03  0.14080148301E+04  0.00000000000E+00 0. -1.
        -13    1    3    3    0    0  0.60300433284E+03  0.30127145161E+03  0.34837534858E+03  0.75877802846E+03  0.00000000000E+00 0.  1.
         22    1    1    2    0    0 -0.17424085565E+04 -0.92564813887E+03  0.25420289810E+04  0.32178756028E+04  0.00000000000E+00 0. -1.
<mgrwt>
<rscale>  0 0.41483874E+04</rscale>
<asrwt>0</asrwt>
<pdfrwt beam="1">  1        2 0.15012782E+00 0.41483874E+04</pdfrwt>
<pdfrwt beam="2">  1       -2 0.67828271E+00 0.41483874E+04</pdfrwt>
<totfact> 0.55071606E-03</totfact>
</mgrwt>
</event>
<event>
 6    1  0.5196787E-004  0.3833480E+04  0.7818608E-02  0.8039008E-01
          2   -1    0    0  501    0  0.00000000000E+00  0.00000000000E+00  0.22809419895E+04  0.22809419895E+04  0.00000000000E+00 0.  1.
         -2   -1    0    0    0  501 -0.00000000000E+00 -0.00000000000E+00 -0.16106906146E+04  0.16106906146E+04  0.00000000000E+00 0. -1.
         23    2    1    2    0    0  0.13610804668E+04  0.65612116698E+03 -0.86012309899E+03  0.17410324429E+04  0.91363005217E+02 0.  0.
         11    1    3    3    0    0  0.60967553904E+03  0.25377587304E+03 -0.34412874843E+03  0.74466841758E+03  0.00000000000E+00 0.  1.
        -11    1    3    3    0    0  0.75140492778E+03  0.40234529394E+03 -0.51599435056E+03  0.99636402528E+03  0.00000000000E+00 0. -1.
         22    1    1    2    0    0 -0.13610804668E+04 -0.65612116698E+03  0.15303744740E+04  0.21506001612E+04  0.00000000000E+00 0.  1.
<mgrwt>
<rscale>  0 0.38334798E+04</rscale>
<asrwt>0</asrwt>
<pdfrwt beam="1">  1        2 0.35091415E+00 0.38334798E+04</pdfrwt>
<pdfrwt beam="2">  1       -2 0.24779856E+00 0.38334798E+04</pdfrwt>
<totfact> 0.24642113E-01</totfact>
</mgrwt>
</event>
<event>
 6    1  0.5196787E-004  0.1195404E+04  0.7818608E-02  0.9116889E-01
          2   -1    0    0  501    0  0.00000000000E+00  0.00000000000E+00  0.15955312391E+04  0.15955312391E+04  0.00000000000E+00 0.  1.
         -2   -1    0    0    0  501 -0.00000000000E+00 -0.00000000000E+00 -0.22390506940E+03  0.22390506940E+03  0.00000000000E+00 0. -1.
         23    2    1    2    0    0  0.58159420146E+03 -0.11778166297E+03  0.64227862453E+03  0.87918518407E+03  0.91216342074E+02 0.  0.
         11    1    3    3    0    0  0.19722514053E+03  0.14030880585E+01  0.19132790034E+03  0.27478371524E+03  0.00000000000E+00 0.  1.
        -11    1    3    3    0    0  0.38436906093E+03 -0.11918475103E+03  0.45095072419E+03  0.60440146883E+03  0.00000000000E+00 0. -1.
         22    1    1    2    0    0 -0.58159420146E+03  0.11778166297E+03  0.72934754513E+03  0.94025112437E+03  0.00000000000E+00 0. -1.
<mgrwt>
<rscale>  0 0.11954038E+04</rscale>
<asrwt>0</asrwt>
<pdfrwt beam="1">  1        2 0.24546634E+00 0.11954038E+04</pdfrwt>
<pdfrwt beam="2">  1       -2 0.34446935E-01 0.11954038E+04</pdfrwt>
<totfact> 0.87399069E+01</totfact>
</mgrwt>
</event>
<event>
 6    1  0.5196787E-004  0.2778226E+04  0.7818608E-02  0.8310060E-01
         -2   -1    0    0    0  501 -0.00000000000E+00  0.00000000000E+00  0.10621784761E+04  0.10621784761E+04  0.00000000000E+00 0. -1.
          2   -1    0    0  501    0  0.00000000000E+00 -0.00000000000E+00 -0.18166766733E+04  0.18166766733E+04  0.00000000000E+00 0.  1.
         23    2    1    2    0    0  0.81157632277E+03 -0.13093487050E+03 -0.15356436189E+04  0.17448409352E+04  0.10231567320E+03 0.  0.
         11    1    3    3    0    0  0.27404378065E+03 -0.63658385902E+02 -0.62198245383E+03  0.68265258857E+03  0.00000000000E+00 0. -1.
        -11    1    3    3    0    0  0.53753254212E+03 -0.67276484594E+02 -0.91366116507E+03  0.10621883467E+04  0.00000000000E+00 0.  1.
         22    1    1    2    0    0 -0.81157632277E+03  0.13093487050E+03  0.78114542173E+03  0.11340142141E+04  0.00000000000E+00 0. -1.
<mgrwt>
<rscale>  0 0.27782260E+04</rscale>
<asrwt>0</asrwt>
<pdfrwt beam="1">  1        2 0.27948872E+00 0.27782260E+04</pdfrwt>
<pdfrwt beam="2">  1       -2 0.16341207E+00 0.27782260E+04</pdfrwt>
<totfact> 0.17509071E+00</totfact>
</mgrwt>
</event>
<event>
 6    1  0.5196787E-004  0.4226766E+04  0.7818608E-02  0.7960300E-01
         -2   -1    0    0    0  501 -0.00000000000E+00  0.00000000000E+00  0.21205675619E+04  0.21205675619E+04  0.00000000000E+00 0. -1.
          2   -1    0    0  501    0  0.00000000000E+00 -0.00000000000E+00 -0.21062230521E+04  0.21062230521E+04  0.00000000000E+00 0.  1.
         23    2    1    2    0    0 -0.17156019558E+04  0.11627433997E+04  0.41616620805E+03  0.21156954097E+04  0.87809281301E+02 0.  0.
         11    1    3    3    0    0 -0.22855845347E+03  0.19210268091E+03  0.60276537620E+02  0.30459098419E+03  0.00000000000E+00 0. -1.
        -11    1    3    3    0    0 -0.14870435023E+04  0.97064071876E+03  0.35588967043E+03  0.18111044255E+04  0.00000000000E+00 0.  1.
         22    1    1    2    0    0  0.17156019558E+04 -0.11627433997E+04 -0.40182169830E+03  0.21110952043E+04  0.00000000000E+00 0. -1.
<mgrwt>
<rscale>  0 0.42267663E+04</rscale>
<asrwt>0</asrwt>
<pdfrwt beam="1">  1        2 0.32403432E+00 0.42267663E+04</pdfrwt>
<pdfrwt beam="2">  1       -2 0.32624116E+00 0.42267663E+04</pdfrwt>
<totfact> 0.98899754E-02</totfact>
</mgrwt>
</event>
<event>
 6    1  0.5196787E-004  0.1044255E+04  0.7818608E-02  0.9261295E-01
         -2   -1    0    0    0  501 -0.00000000000E+00  0.00000000000E+00  0.33663643998E+03  0.33663643998E+03  0.00000000000E+00 0. -1.
          2   -1    0    0  501    0  0.00000000000E+00 -0.00000000000E+00 -0.80982664452E+03  0.80982664452E+03  0.00000000000E+00 0.  1.
         23    2    1    2    0    0 -0.25565015708E+02  0.51565359941E+03 -0.18969836509E+03  0.55746407971E+03  0.90711222230E+02 0.  0.
         13    1    3    3    0    0 -0.34299586876E+02  0.22855142157E+03 -0.43521975082E+02  0.23517307728E+03  0.00000000000E+00 0.  1.
        -13    1    3    3    0    0  0.87345711680E+01  0.28710217784E+03 -0.14617639000E+03  0.32229100243E+03  0.00000000000E+00 0. -1.
         22    1    1    2    0    0  0.25565015708E+02 -0.51565359941E+03 -0.28349183945E+03  0.58899900480E+03  0.00000000000E+00 0. -1.
<mgrwt>
<rscale>  0 0.10442551E+04</rscale>
<asrwt>0</asrwt>
<pdfrwt beam="1">  1        2 0.12458871E+00 0.10442551E+04</pdfrwt>
<pdfrwt beam="2">  1       -2 0.51790222E-01 0.10442551E+04</pdfrwt>
<totfact> 0.11885390E+02</totfact>
</mgrwt>
</event>
<event>
 6    1  0.5196787E-004  0.9181051E+03  0.7818608E-02  0.9403228E-01
          2   -1    0    0  501    0  0.00000000000E+00  0.00000000000E+00  0.17275952770E+03  0.17275952770E+03  0.00000000000E+00 0.  1.
         -2   -1    0    0    0  501 -0.00000000000E+00 -0.00000000000E+00 -0.12197835616E+04  0.12197835616E+04  0.00000000000E+00 0. -1.
         23    2    1    2    0    0 -0.17210101491E+03  0.32616038171E+03 -0.12544022836E+03  0.39991220899E+03  0.90527178667E+02 0.  0.
         11    1    3    3    0    0 -0.57128153592E+02  0.86797974500E+02  0.50612314033E+01  0.10403427499E+03  0.00000000000E+00 0.  1.
        -11    1    3    3    0    0 -0.11497286132E+03  0.23936240721E+03 -0.13050145977E+03  0.29587793400E+03  0.00000000000E+00 0. -1.
         22    1    1    2    0    0  0.17210101491E+03 -0.32616038171E+03 -0.92158380558E+03  0.99263088036E+03  0.00000000000E+00 0. -1.
<mgrwt>
<rscale>  0 0.91810507E+03</rscale>
<asrwt>0</asrwt>
<pdfrwt beam="1">  1        2 0.26578389E-01 0.91810507E+03</pdfrwt>
<pdfrwt beam="2">  1       -2 0.18765901E+00 0.91810507E+03</pdfrwt>
<totfact> 0.32981244E+01</totfact>
</mgrwt>
</event>
<event>
 6    1  0.5196787E-004  0.9845031E+03  0.7818608E-02  0.9325707E-01
         -2   -1    0    0    0  501 -0.00000000000E+00  0.00000000000E+00  0.26035381191E+03  0.26035381191E+03  0.00000000000E+00 0. -1.
          2   -1    0    0  501    0  0.00000000000E+00 -0.00000000000E+00 -0.93070122373E+03  0.93070122373E+03  0.00000000000E+00 0.  1.
         23    2    1    2    0    0 -0.46827684770E+03 -0.85500725596E+02 -0.46847808097E+03  0.67400106660E+03  0.90620887518E+02 0.  0.
         11    1    3    3    0    0 -0.28691520078E+03 -0.42072429786E+02 -0.34335970307E+03  0.44942886810E+03  0.00000000000E+00 0. -1.
        -11    1    3    3    0    0 -0.18136164692E+03 -0.43428295810E+02 -0.12511837790E+03  0.22457219850E+03  0.00000000000E+00 0.  1.
         22    1    1    2    0    0  0.46827684770E+03  0.85500725596E+02 -0.20186933084E+03  0.51705396904E+03  0.00000000000E+00 0. -1.
<mgrwt>
<rscale>  0 0.98450315E+03</rscale>
<asrwt>0</asrwt>
<pdfrwt beam="1">  1        2 0.14318480E+00 0.98450315E+03</pdfrwt>
<pdfrwt beam="2">  1       -2 0.40054434E-01 0.98450315E+03</pdfrwt>
<totfact> 0.16465425E+02</totfact>
</mgrwt>
</event>
<event>
 6    1  0.5196787E-004  0.2988437E+04  0.7818608E-02  0.8247041E-01
          2   -1    0    0  501    0  0.00000000000E+00  0.00000000000E+00  0.17173619552E+04  0.17173619552E+04  0.00000000000E+00 0.  1.
         -2   -1    0    0    0  501 -0.00000000000E+00 -0.00000000000E+00 -0.13000688307E+04  0.13000688307E+04  0.00000000000E+00 0. -1.
         23    2    1    2    0    0 -0.14252310230E+04 -0.36491677958E+03 -0.46801094822E+02  0.14747606432E+04  0.90999381386E+02 0.  0.
         13    1    3    3    0    0 -0.91652484677E+03 -0.20168117125E+03  0.87981392798E-01  0.93845250137E+03  0.00000000000E+00 0. -1.
        -13    1    3    3    0    0 -0.50870617619E+03 -0.16323560833E+03 -0.46889076215E+02  0.53630814183E+03  0.00000000000E+00 0.  1.
         22    1    1    2    0    0  0.14252310230E+04  0.36491677958E+03  0.46409421929E+03  0.15426701427E+04  0.00000000000E+00 0.  1.
<mgrwt>
<rscale>  0 0.29884369E+04</rscale>
<asrwt>0</asrwt>
<pdfrwt beam="1">  1        2 0.26420953E+00 0.29884369E+04</pdfrwt>
<pdfrwt beam="2">  1       -2 0.20001059E+00 0.29884369E+04</pdfrwt>
<totfact> 0.10929382E+00</totfact>
</mgrwt>
</event>
<event>
 6    1  0.5196787E-004  0.1643021E+04  0.7818608E-02  0.8794546E-01
         -2   -1    0    0    0  501 -0.00000000000E+00  0.00000000000E+00  0.17255221299E+04  0.17255221299E+04  0.00000000000E+00 0. -1.
          2   -1    0    0  501    0  0.00000000000E+00 -0.00000000000E+00 -0.39111620496E+03  0.39111620496E+03  0.00000000000E+00 0.  1.
         23    2    1    2    0    0  0.43388708985E+03  0.10389090110E+03 -0.21587570144E+03  0.50343517123E+03  0.88279822694E+02 0.  0.
         13    1    3    3    0    0  0.36425513378E+02  0.69859823856E+01 -0.49358441002E+02  0.61740405513E+02  0.00000000000E+00 0.  1.
        -13    1    3    3    0    0  0.39746157647E+03  0.96904918711E+02 -0.16651726043E+03  0.44169476572E+03  0.00000000000E+00 0. -1.
         22    1    1    2    0    0 -0.43388708985E+03 -0.10389090110E+03  0.15502816264E+04  0.16132031637E+04  0.00000000000E+00 0.  1.
<mgrwt>
<rscale>  0 0.16430212E+04</rscale>
<asrwt>0</asrwt>
<pdfrwt beam="1">  1        2 0.60171725E-01 0.16430212E+04</pdfrwt>
<pdfrwt beam="2">  1       -2 0.26546494E+00 0.16430212E+04</pdfrwt>
<totfact> 0.40305578E+00</totfact>
</mgrwt>
</event>
<event>
 6    1  0.5196787E-004  0.2126497E+04  0.7818608E-02  0.8549660E-01
         -2   -1    0    0    0  501 -0.00000000000E+00  0.00000000000E+00  0.19202663265E+04  0.19202663265E+04  0.00000000000E+00 0. -1.
          2   -1    0    0  501    0  0.00000000000E+00 -0.00000000000E+00 -0.58871903598E+03  0.58871903598E+03  0.00000000000E+00 0.  1.
         23    2    1    2    0    0  0.21888670940E+03 -0.50953635566E+03 -0.40063695221E+03  0.69019429695E+03  0.91211352184E+02 0.  0.
         13    1    3    3    0    0  0.54871638950E+02 -0.20886122399E+03 -0.19330096476E+03  0.28982610411E+03  0.00000000000E+00 0. -1.
        -13    1    3    3    0    0  0.16401507045E+03 -0.30067513168E+03 -0.20733598745E+03  0.40036819284E+03  0.00000000000E+00 0.  1.
         22    1    1    2    0    0 -0.21888670940E+03  0.50953635566E+03  0.17321842427E+04  0.18187910655E+04  0.00000000000E+00 0. -1.
<mgrwt>
<rscale>  0 0.21264970E+04</rscale>
<asrwt>0</asrwt>
<pdfrwt beam="1">  1        2 0.90572160E-01 0.21264970E+04</pdfrwt>
<pdfrwt beam="2">  1       -2 0.29542559E+00 0.21264970E+04</pdfrwt>
<totfact> 0.15829179E+00</totfact>
</mgrwt>
</event>
<event>
 6    1  0.5196787E-004  0.7895824E+03  0.7818608E-02  0.9575220E-01
         -4   -1    0    0    0  501 -0.00000000000E+00  0.00000000000E+00  0.75168066832E+03  0.75168066832E+03  0.00000000000E+00 0. -1.
          4   -1    0    0  501    0  0.00000000000E+00 -0.00000000000E+00 -0.20734881459E+03  0.20734881459E+03  0.00000000000E+00 0.  1.
         23    2    1    2    0    0  0.21289562005E+03 -0.29753309259E+03  0.11205934440E+03  0.39271684085E+03  0.88423606597E+02 0.  0.
         11    1    3    3    0    0  0.19808349335E+03 -0.21848702441E+03  0.75797586128E+02  0.30449782304E+03  0.00000000000E+00 0. -1.
        -11    1    3    3    0    0  0.14812126700E+02 -0.79046068175E+02  0.36261758270E+02  0.88219017814E+02  0.00000000000E+00 0.  1.
         22    1    1    2    0    0 -0.21289562005E+03  0.29753309259E+03  0.43227250933E+03  0.56631264205E+03  0.00000000000E+00 0.  1.
<mgrwt>
<rscale>  0 0.78958241E+03</rscale>
<asrwt>0</asrwt>
<pdfrwt beam="1">  1        4 0.31899818E-01 0.78958241E+03</pdfrwt>
<pdfrwt beam="2">  1       -4 0.11564318E+00 0.78958241E+03</pdfrwt>
<totfact> 0.11025918E+01</totfact>
</mgrwt>
</event>
<event>
 6    1  0.5196787E-004  0.7301443E+03  0.7818608E-02  0.9667026E-01
         -2   -1    0    0    0  501 -0.00000000000E+00  0.00000000000E+00  0.53424122795E+03  0.53424122795E+03  0.00000000000E+00 0. -1.
          2   -1    0    0  501    0  0.00000000000E+00 -0.00000000000E+00 -0.24947098031E+03  0.24947098031E+03  0.00000000000E+00 0.  1.
         23    2    1    2    0    0 -0.22223984393E+03 -0.24531634111E+03 -0.59254902542E+01  0.34317314362E+03  0.90344007136E+02 0.  0.
         13    1    3    3    0    0 -0.10118035885E+03 -0.12158273035E+03 -0.47482322784E+02  0.16514961796E+03  0.00000000000E+00 0.  1.
        -13    1    3    3    0    0 -0.12105948507E+03 -0.12373361076E+03  0.41556832529E+02  0.17802352566E+03  0.00000000000E+00 0. -1.
         22    1    1    2    0    0  0.22223984393E+03  0.24531634111E+03  0.29069573789E+03  0.44053906464E+03  0.00000000000E+00 0.  1.
<mgrwt>
<rscale>  0 0.73014432E+03</rscale>
<asrwt>0</asrwt>
<pdfrwt beam="1">  1        2 0.38380151E-01 0.73014432E+03</pdfrwt>
<pdfrwt beam="2">  1       -2 0.82190958E-01 0.73014432E+03</pdfrwt>
<totfact> 0.17707240E+02</totfact>
</mgrwt>
</event>
<event>
 6    1  0.5196787E-004  0.1128290E+04  0.7818608E-02  0.9178049E-01
         -2   -1    0    0    0  501 -0.00000000000E+00  0.00000000000E+00  0.23547687251E+03  0.23547687251E+03  0.00000000000E+00 0. -1.
          2   -1    0    0  501    0  0.00000000000E+00 -0.00000000000E+00 -0.13515535068E+04  0.13515535068E+04  0.00000000000E+00 0.  1.
         23    2    1    2    0    0 -0.55001927976E+03 -0.45260771256E+02 -0.42289052228E+03  0.70098482100E+03  0.89294904250E+02 0.  0.
         13    1    3    3    0    0 -0.24740654804E+03  0.23284880339E+02 -0.19905550917E+03  0.31839485139E+03  0.00000000000E+00 0. -1.
        -13    1    3    3    0    0 -0.30261273172E+03 -0.68545651595E+02 -0.22383501311E+03  0.38258996961E+03  0.00000000000E+00 0.  1.
         22    1    1    2    0    0  0.55001927976E+03  0.45260771256E+02 -0.69318611202E+03  0.88604555832E+03  0.00000000000E+00 0. -1.
<mgrwt>
<rscale>  0 0.11282900E+04</rscale>
<asrwt>0</asrwt>
<pdfrwt beam="1">  1        2 0.20793131E+00 0.11282900E+04</pdfrwt>
<pdfrwt beam="2">  1       -2 0.36227211E-01 0.11282900E+04</pdfrwt>
<totfact> 0.10956550E+02</totfact>
</mgrwt>
</event>
<event>
 6    1  0.5196787E-004  0.3201009E+04  0.7818608E-02  0.8188551E-01
          2   -1    0    0  501    0  0.00000000000E+00  0.00000000000E+00  0.17689154204E+04  0.17689154204E+04  0.00000000000E+00 0.  1.
         -2   -1    0    0    0  501 -0.00000000000E+00 -0.00000000000E+00 -0.14481275664E+04  0.14481275664E+04  0.00000000000E+00 0. -1.
         23    2    1    2    0    0 -0.12985589953E+03 -0.91315038671E+03 -0.11524504674E+04  0.14789010666E+04  0.91104893372E+02 0.  0.
         11    1    3    3    0    0 -0.37635098418E+01 -0.14975382556E+03 -0.14369052763E+03  0.20757490216E+03  0.00000000000E+00 0.  1.
        -11    1    3    3    0    0 -0.12609238969E+03 -0.76339656115E+03 -0.10087599397E+04  0.12713261644E+04  0.00000000000E+00 0. -1.
         22    1    1    2    0    0  0.12985589953E+03  0.91315038671E+03  0.14732383213E+04  0.17381419202E+04  0.00000000000E+00 0.  1.
<mgrwt>
<rscale>  0 0.32010093E+04</rscale>
<asrwt>0</asrwt>
<pdfrwt beam="1">  1        2 0.27214083E+00 0.32010093E+04</pdfrwt>
<pdfrwt beam="2">  1       -2 0.22278886E+00 0.32010093E+04</pdfrwt>
<totfact> 0.71750586E-01</totfact>
</mgrwt>
</event>
<event>
 6    1  0.5196787E-004  0.1622207E+04  0.7818608E-02  0.8807021E-01
         -2   -1    0    0    0  501 -0.00000000000E+00  0.00000000000E+00  0.21519034041E+03  0.21519034041E+03  0.00000000000E+00 0. -1.
          2   -1    0    0  501    0  0.00000000000E+00 -0.00000000000E+00 -0.30572400985E+04  0.30572400985E+04  0.00000000000E+00 0.  1.
         23    2    1    2    0    0 -0.54458530051E+03  0.52747487851E+03 -0.19903203522E+04  0.21321471944E+04  0.99366276788E+02 0.  0.
         11    1    3    3    0    0 -0.38451579582E+03  0.34699831040E+03 -0.14713541248E+04  0.15598535781E+04  0.00000000000E+00 0.  1.
        -11    1    3    3    0    0 -0.16006950468E+03  0.18047656811E+03 -0.51896622742E+03  0.57229361623E+03  0.00000000000E+00 0. -1.
         22    1    1    2    0    0  0.54458530051E+03 -0.52747487851E+03 -0.85172940586E+03  0.11402832445E+04  0.00000000000E+00 0. -1.
<mgrwt>
<rscale>  0 0.16222066E+04</rscale>
<asrwt>0</asrwt>
<pdfrwt beam="1">  1        2 0.47034462E+00 0.16222066E+04</pdfrwt>
<pdfrwt beam="2">  1       -2 0.33106207E-01 0.16222066E+04</pdfrwt>
<totfact> 0.13147369E+01</totfact>
</mgrwt>
</event>
<event>
 6    1  0.5196787E-004  0.9523580E+03  0.7818608E-02  0.9362399E-01
         -2   -1    0    0    0  501 -0.00000000000E+00  0.00000000000E+00  0.31981864793E+03  0.31981864793E+03  0.00000000000E+00 0. -1.
          2   -1    0    0  501    0  0.00000000000E+00 -0.00000000000E+00 -0.70898449650E+03  0.70898449650E+03  0.00000000000E+00 0.  1.
         23    2    1    2    0    0 -0.19721649492E+03 -0.27005487432E+03 -0.55588018320E+03  0.65514869124E+03  0.91613582760E+02 0.  0.
         13    1    3    3    0    0 -0.62362677918E+02 -0.51860647808E+02 -0.20538461561E+03  0.22081999619E+03  0.00000000000E+00 0.  1.
        -13    1    3    3    0    0 -0.13485381700E+03 -0.21819422652E+03 -0.35049556760E+03  0.43432869506E+03  0.00000000000E+00 0. -1.
         22    1    1    2    0    0  0.19721649492E+03  0.27005487432E+03  0.16671433463E+03  0.37365445319E+03  0.00000000000E+00 0. -1.
<mgrwt>
<rscale>  0 0.95235805E+03</rscale>
<asrwt>0</asrwt>
<pdfrwt beam="1">  1        2 0.10907454E+00 0.95235805E+03</pdfrwt>
<pdfrwt beam="2">  1       -2 0.49202870E-01 0.95235805E+03</pdfrwt>
<totfact> 0.15776962E+02</totfact>
</mgrwt>
</event>
<event>
 6    1  0.5196787E-004  0.1694724E+04  0.7818608E-02  0.8764379E-01
          2   -1    0    0  501    0  0.00000000000E+00  0.00000000000E+00  0.80116780288E+03  0.80116780288E+03  0.00000000000E+00 0.  1.
         -2   -1    0    0    0  501 -0.00000000000E+00 -0.00000000000E+00 -0.89622005084E+03  0.89622005084E+03  0.00000000000E+00 0. -1.
         23    2    1    2    0    0 -0.21341113843E+03  0.10446802442E+03  0.76443757204E+03  0.80565884060E+03  0.90903705974E+02 0.  0.
         13    1    3    3    0    0 -0.15342963064E+03  0.49613030007E+02  0.38131393988E+03  0.41400775965E+03  0.00000000000E+00 0.  1.
        -13    1    3    3    0    0 -0.59981507787E+02  0.54854994413E+02  0.38312363216E+03  0.39165108095E+03  0.00000000000E+00 0. -1.
         22    1    1    2    0    0  0.21341113843E+03 -0.10446802442E+03 -0.85948982001E+03  0.89172901311E+03  0.00000000000E+00 0. -1.
<mgrwt>
<rscale>  0 0.16947243E+04</rscale>
<asrwt>0</asrwt>
<pdfrwt beam="1">  1        2 0.12325659E+00 0.16947243E+04</pdfrwt>
<pdfrwt beam="2">  1       -2 0.13788001E+00 0.16947243E+04</pdfrwt>
<totfact> 0.12225649E+01</totfact>
</mgrwt>
</event>
<event>
 6    1  0.5196787E-004  0.1175168E+04  0.7818608E-02  0.9134874E-01
         -4   -1    0    0    0  501 -0.00000000000E+00  0.00000000000E+00  0.55062371574E+03  0.55062371574E+03  0.00000000000E+00 0. -1.
          4   -1    0    0  501    0  0.00000000000E+00 -0.00000000000E+00 -0.62702517609E+03  0.62702517609E+03  0.00000000000E+00 0.  1.
         23    2    1    2    0    0 -0.35511971481E+01  0.19143596171E+03 -0.59127020913E+03  0.62833098122E+03  0.92406835840E+02 0.  0.
         11    1    3    3    0    0 -0.28041270085E+02  0.14729826788E+03 -0.33338953480E+03  0.36555666382E+03  0.00000000000E+00 0.  1.
        -11    1    3    3    0    0  0.24490072937E+02  0.44137693834E+02 -0.25788067433E+03  0.26277431740E+03  0.00000000000E+00 0. -1.
         22    1    1    2    0    0  0.35511971481E+01 -0.19143596171E+03  0.51486874879E+03  0.54931791061E+03  0.00000000000E+00 0. -1.
<mgrwt>
<rscale>  0 0.11751680E+04</rscale>
<asrwt>0</asrwt>
<pdfrwt beam="1">  1        4 0.96465412E-01 0.11751680E+04</pdfrwt>
<pdfrwt beam="2">  1       -4 0.84711341E-01 0.11751680E+04</pdfrwt>
<totfact> 0.21571204E+00</totfact>
</mgrwt>
</event>
<event>
 6    1  0.5196787E-004  0.1181239E+04  0.7818608E-02  0.9129438E-01
         -2   -1    0    0    0  501 -0.00000000000E+00  0.00000000000E+00  0.25684695230E+03  0.25684695230E+03  0.00000000000E+00 0. -1.
          2   -1    0    0  501    0  0.00000000000E+00 -0.00000000000E+00 -0.13581305033E+04  0.13581305033E+04  0.00000000000E+00 0.  1.
         23    2    1    2    0    0 -0.41118143353E+03 -0.28039779455E+03 -0.12792025311E+03  0.52175780514E+03  0.90413061002E+02 0.  0.
         13    1    3    3    0    0 -0.23257238137E+03 -0.11219506330E+03 -0.40901081054E+02  0.26143936819E+03  0.00000000000E+00 0. -1.
        -13    1    3    3    0    0 -0.17860905215E+03 -0.16820273125E+03 -0.87019172052E+02  0.26031843695E+03  0.00000000000E+00 0.  1.
         22    1    1    2    0    0  0.41118143353E+03  0.28039779455E+03 -0.97336329786E+03  0.10932196504E+04  0.00000000000E+00 0.  1.
<mgrwt>
<rscale>  0 0.11812395E+04</rscale>
<asrwt>0</asrwt>
<pdfrwt beam="1">  1        2 0.20894316E+00 0.11812395E+04</pdfrwt>
<pdfrwt beam="2">  1       -2 0.39514915E-01 0.11812395E+04</pdfrwt>
<totfact> 0.91471360E+01</totfact>
</mgrwt>
</event>
<event>
 6    1  0.5196787E-004  0.1825478E+04  0.7818608E-02  0.8692867E-01
          2   -1    0    0  501    0  0.00000000000E+00  0.00000000000E+00  0.53132171042E+03  0.53132171042E+03  0.00000000000E+00 0.  1.
         -2   -1    0    0    0  501 -0.00000000000E+00 -0.00000000000E+00 -0.15679617207E+04  0.15679617207E+04  0.00000000000E+00 0. -1.
         23    2    1    2    0    0  0.57449713345E+03  0.39382127774E+03  0.15463356872E+03  0.71932875971E+03  0.91543262011E+02 0.  0.
         13    1    3    3    0    0  0.50070582474E+03  0.33673430455E+03  0.16473736985E+03  0.62548758246E+03  0.00000000000E+00 0. -1.
        -13    1    3    3    0    0  0.73791308717E+02  0.57086973188E+02 -0.10103801127E+02  0.93841177247E+02  0.00000000000E+00 0.  1.
         22    1    1    2    0    0 -0.57449713345E+03 -0.39382127774E+03 -0.11912735790E+04  0.13799546714E+04  0.00000000000E+00 0. -1.
<mgrwt>
<rscale>  0 0.18254776E+04</rscale>
<asrwt>0</asrwt>
<pdfrwt beam="1">  1        2 0.81741804E-01 0.18254776E+04</pdfrwt>
<pdfrwt beam="2">  1       -2 0.24122487E+00 0.18254776E+04</pdfrwt>
<totfact> 0.39318405E+00</totfact>
</mgrwt>
</event>
<event>
 6    1  0.5196787E-004  0.5175987E+04  0.7818608E-02  0.7801918E-01
          2   -1    0    0  501    0  0.00000000000E+00  0.00000000000E+00  0.35336095838E+04  0.35336095838E+04  0.00000000000E+00 0.  1.
         -2   -1    0    0    0  501 -0.00000000000E+00 -0.00000000000E+00 -0.18954304336E+04  0.18954304336E+04  0.00000000000E+00 0. -1.
         23    2    1    2    0    0  0.16321176012E+03 -0.11511682705E+04  0.32435759410E+04  0.34468378780E+04  0.89888855703E+02 0.  0.
         13    1    3    3    0    0  0.55585371383E+02 -0.69478713237E+03  0.19044384218E+04  0.20279804228E+04  0.00000000000E+00 0. -1.
        -13    1    3    3    0    0  0.10762638874E+03 -0.45638113813E+03  0.13391375192E+04  0.14188574552E+04  0.00000000000E+00 0.  1.
         22    1    1    2    0    0 -0.16321176012E+03  0.11511682705E+04 -0.16053967908E+04  0.19822021394E+04  0.00000000000E+00 0. -1.
<mgrwt>
<rscale>  0 0.51759873E+04</rscale>
<asrwt>0</asrwt>
<pdfrwt beam="1">  1        2 0.54363224E+00 0.51759873E+04</pdfrwt>
<pdfrwt beam="2">  1       -2 0.29160468E+00 0.51759873E+04</pdfrwt>
<totfact> 0.19730460E-02</totfact>
</mgrwt>
</event>
<event>
 6    1  0.5196787E-004  0.2091207E+04  0.7818608E-02  0.8565127E-01
          2   -1    0    0  501    0  0.00000000000E+00  0.00000000000E+00  0.19728040158E+04  0.19728040158E+04  0.00000000000E+00 0.  1.
         -2   -1    0    0    0  501 -0.00000000000E+00 -0.00000000000E+00 -0.55417914624E+03  0.55417914624E+03  0.00000000000E+00 0. -1.
         23    2    1    2    0    0  0.60366406921E+03  0.56047279448E+03  0.14850673953E+04  0.17005724463E+04  0.89338762742E+02 0.  0.
         13    1    3    3    0    0  0.41252933872E+03  0.32912413272E+03  0.98092175896E+03  0.11138719169E+04  0.00000000000E+00 0.  1.
        -13    1    3    3    0    0  0.19113473050E+03  0.23134866176E+03  0.50414563638E+03  0.58670052939E+03  0.00000000000E+00 0. -1.
         22    1    1    2    0    0 -0.60366406921E+03 -0.56047279448E+03 -0.66442525834E+02  0.82641071572E+03  0.00000000000E+00 0. -1.
<mgrwt>
<rscale>  0 0.20912072E+04</rscale>
<asrwt>0</asrwt>
<pdfrwt beam="1">  1        2 0.30350831E+00 0.20912072E+04</pdfrwt>
<pdfrwt beam="2">  1       -2 0.85258331E-01 0.20912072E+04</pdfrwt>
<totfact> 0.76335672E+00</totfact>
</mgrwt>
</event>
<event>
 6    1  0.5196787E-004  0.3414793E+04  0.7818608E-02  0.8134285E-01
          2   -1    0    0  501    0  0.00000000000E+00  0.00000000000E+00  0.35483000616E+04  0.35483000616E+04  0.00000000000E+00 0.  1.
         -2   -1    0    0    0  501 -0.00000000000E+00 -0.00000000000E+00 -0.82157734945E+03  0.82157734945E+03  0.00000000000E+00 0. -1.
         23    2    1    2    0    0 -0.13357545582E+04 -0.50332750418E+03  0.25603289720E+04  0.29327741813E+04  0.91110578575E+02 0.  0.
         13    1    3    3    0    0 -0.56838047780E+03 -0.25139707254E+03  0.11726255308E+04  0.13271426039E+04  0.00000000000E+00 0.  1.
        -13    1    3    3    0    0 -0.76737408040E+03 -0.25193043164E+03  0.13877034412E+04  0.16056315774E+04  0.00000000000E+00 0. -1.
         22    1    1    2    0    0  0.13357545582E+04  0.50332750418E+03  0.16639374018E+03  0.14371032298E+04  0.00000000000E+00 0. -1.
<mgrwt>
<rscale>  0 0.34147931E+04</rscale>
<asrwt>0</asrwt>
<pdfrwt beam="1">  1        2 0.54589231E+00 0.34147931E+04</pdfrwt>
<pdfrwt beam="2">  1       -2 0.12639652E+00 0.34147931E+04</pdfrwt>
<totfact> 0.28952916E-01</totfact>
</mgrwt>
</event>
<event>
 6    1  0.5196787E-004  0.3918434E+04  0.7818608E-02  0.8021206E-01
         -1   -1    0    0    0  501 -0.00000000000E+00  0.00000000000E+00  0.11680572170E+04  0.11680572170E+04  0.00000000000E+00 0. -1.
          1   -1    0    0  501    0  0.00000000000E+00 -0.00000000000E+00 -0.32862532418E+04  0.32862532418E+04  0.00000000000E+00 0.  1.
         23    2    1    2    0    0 -0.99391842710E+02 -0.10467212580E+04 -0.29374006460E+04  0.31214187370E+04  0.97099159032E+02 0.  0.
         11    1    3    3    0    0 -0.87902888201E+02 -0.72984357722E+03 -0.21679899074E+04  0.22892310507E+04  0.00000000000E+00 0.  1.
        -11    1    3    3    0    0 -0.11488954509E+02 -0.31687768082E+03 -0.76941073858E+03  0.83218768636E+03  0.00000000000E+00 0. -1.
         22    1    1    2    0    0  0.99391842710E+02  0.10467212580E+04  0.81920462125E+03  0.13328917217E+04  0.00000000000E+00 0. -1.
<mgrwt>
<rscale>  0 0.39184343E+04</rscale>
<asrwt>0</asrwt>
<pdfrwt beam="1">  1        1 0.50557742E+00 0.39184343E+04</pdfrwt>
<pdfrwt beam="2">  1       -1 0.17970111E+00 0.39184343E+04</pdfrwt>
<totfact> 0.60216425E-02</totfact>
</mgrwt>
</event>
<event>
 6    1  0.5196787E-004  0.1581582E+04  0.7818608E-02  0.8831944E-01
          2   -1    0    0  501    0  0.00000000000E+00  0.00000000000E+00  0.86020222430E+03  0.86020222430E+03  0.00000000000E+00 0.  1.
         -2   -1    0    0    0  501 -0.00000000000E+00 -0.00000000000E+00 -0.72698031150E+03  0.72698031150E+03  0.00000000000E+00 0. -1.
         23    2    1    2    0    0  0.30211435699E+03  0.64203205691E+03 -0.27736253350E+03  0.76739119995E+03  0.92092518512E+02 0.  0.
         13    1    3    3    0    0  0.13933694345E+03  0.21047595867E+03 -0.71863434306E+02  0.26244859721E+03  0.00000000000E+00 0.  1.
        -13    1    3    3    0    0  0.16277741354E+03  0.43155609824E+03 -0.20549909920E+03  0.50494260274E+03  0.00000000000E+00 0. -1.
         22    1    1    2    0    0 -0.30211435699E+03 -0.64203205691E+03  0.41058444630E+03  0.81979133586E+03  0.00000000000E+00 0. -1.
<mgrwt>
<rscale>  0 0.15815816E+04</rscale>
<asrwt>0</asrwt>
<pdfrwt beam="1">  1        2 0.13233880E+00 0.15815816E+04</pdfrwt>
<pdfrwt beam="2">  1       -2 0.11184312E+00 0.15815816E+04</pdfrwt>
<totfact> 0.18922307E+01</totfact>
</mgrwt>
</event>
<event>
 6    1  0.5196787E-004  0.2356572E+04  0.7818608E-02  0.8455944E-01
         -2   -1    0    0    0  501 -0.00000000000E+00  0.00000000000E+00  0.10823582161E+04  0.10823582161E+04  0.00000000000E+00 0. -1.
          2   -1    0    0  501    0  0.00000000000E+00 -0.00000000000E+00 -0.12827153103E+04  0.12827153103E+04  0.00000000000E+00 0.  1.
         23    2    1    2    0    0  0.19722086346E+03 -0.30626452435E+03 -0.12230628485E+04  0.12794303585E+04  0.91461921149E+02 0.  0.
         11    1    3    3    0    0  0.34966576963E+02 -0.12955318628E+03 -0.49465249273E+03  0.51253075824E+03  0.00000000000E+00 0. -1.
        -11    1    3    3    0    0  0.16225428650E+03 -0.17671133807E+03 -0.72841035581E+03  0.76689960030E+03  0.00000000000E+00 0.  1.
         22    1    1    2    0    0 -0.19722086346E+03  0.30626452435E+03  0.10227057544E+04  0.10856431679E+04  0.00000000000E+00 0. -1.
<mgrwt>
<rscale>  0 0.23565716E+04</rscale>
<asrwt>0</asrwt>
<pdfrwt beam="1">  1        2 0.19734082E+00 0.23565716E+04</pdfrwt>
<pdfrwt beam="2">  1       -2 0.16651665E+00 0.23565716E+04</pdfrwt>
<totfact> 0.34473737E+00</totfact>
</mgrwt>
</event>
<event>
 6    1  0.5196787E-004  0.3026850E+04  0.7818608E-02  0.8236105E-01
         -2   -1    0    0    0  501 -0.00000000000E+00  0.00000000000E+00  0.12283730802E+04  0.12283730802E+04  0.00000000000E+00 0. -1.
          2   -1    0    0  501    0  0.00000000000E+00 -0.00000000000E+00 -0.18646247608E+04  0.18646247608E+04  0.00000000000E+00 0.  1.
         23    2    1    2    0    0  0.43103649700E+03  0.13701348408E+04  0.16433787913E+03  0.14486117589E+04  0.91690488261E+02 0.  0.
         11    1    3    3    0    0  0.25095481375E+03  0.65054750707E+03  0.91932542435E+02  0.70330787701E+03  0.00000000000E+00 0.  1.
        -11    1    3    3    0    0  0.18008168325E+03  0.71958733378E+03  0.72405336693E+02  0.74530388189E+03  0.00000000000E+00 0. -1.
         22    1    1    2    0    0 -0.43103649700E+03 -0.13701348408E+04 -0.80058955980E+03  0.16443860821E+04  0.00000000000E+00 0.  1.
<mgrwt>
<rscale>  0 0.30268498E+04</rscale>
<asrwt>0</asrwt>
<pdfrwt beam="1">  1        2 0.28686535E+00 0.30268498E+04</pdfrwt>
<pdfrwt beam="2">  1       -2 0.18898047E+00 0.30268498E+04</pdfrwt>
<totfact> 0.10686669E+00</totfact>
</mgrwt>
</event>
<event>
 6    1  0.5196787E-004  0.2519914E+04  0.7818608E-02  0.8395925E-01
          2   -1    0    0  501    0  0.00000000000E+00  0.00000000000E+00  0.64548999927E+03  0.64548999927E+03  0.00000000000E+00 0.  1.
         -2   -1    0    0    0  501 -0.00000000000E+00 -0.00000000000E+00 -0.24593594429E+04  0.24593594429E+04  0.00000000000E+00 0. -1.
         23    2    1    2    0    0  0.11254308142E+04  0.42314244573E+03 -0.13638144563E+04  0.18210295411E+04  0.10254107129E+03 0.  0.
         11    1    3    3    0    0  0.62434067617E+03  0.28834708668E+03 -0.76568144293E+03  0.10291809337E+04  0.00000000000E+00 0. -1.
        -11    1    3    3    0    0  0.50109013801E+03  0.13479535905E+03 -0.59813301341E+03  0.79184860736E+03  0.00000000000E+00 0.  1.
         22    1    1    2    0    0 -0.11254308142E+04 -0.42314244573E+03 -0.45005498733E+03  0.12838199011E+04  0.00000000000E+00 0.  1.
<mgrwt>
<rscale>  0 0.25199142E+04</rscale>
<asrwt>0</asrwt>
<pdfrwt beam="1">  1        2 0.99306153E-01 0.25199142E+04</pdfrwt>
<pdfrwt beam="2">  1       -2 0.37836299E+00 0.25199142E+04</pdfrwt>
<totfact> 0.41444624E-01</totfact>
</mgrwt>
</event>
<event>
 6    1  0.5196787E-004  0.3465490E+04  0.7818608E-02  0.8122017E-01
          2   -1    0    0  501    0  0.00000000000E+00  0.00000000000E+00  0.19969217880E+04  0.19969217880E+04  0.00000000000E+00 0.  1.
         -2   -1    0    0    0  501 -0.00000000000E+00 -0.00000000000E+00 -0.15035167703E+04  0.15035167703E+04  0.00000000000E+00 0. -1.
         23    2    1    2    0    0 -0.90367186696E+03 -0.83457430009E+03  0.14778525393E+04  0.19249151442E+04  0.90072631039E+02 0.  0.
         11    1    3    3    0    0 -0.41281774204E+03 -0.41071023720E+03  0.63781538228E+03  0.86366072560E+03  0.00000000000E+00 0.  1.
        -11    1    3    3    0    0 -0.49085412492E+03 -0.42386406289E+03  0.84003715701E+03  0.10612544186E+04  0.00000000000E+00 0. -1.
         22    1    1    2    0    0  0.90367186696E+03  0.83457430009E+03 -0.98444752159E+03  0.15755234141E+04  0.00000000000E+00 0. -1.
<mgrwt>
<rscale>  0 0.34654901E+04</rscale>
<asrwt>0</asrwt>
<pdfrwt beam="1">  1        2 0.30721874E+00 0.34654901E+04</pdfrwt>
<pdfrwt beam="2">  1       -2 0.23131027E+00 0.34654901E+04</pdfrwt>
<totfact> 0.46376658E-01</totfact>
</mgrwt>
</event>
<event>
 6    1  0.5196787E-004  0.3726875E+04  0.7818608E-02  0.8062032E-01
         -2   -1    0    0    0  501 -0.00000000000E+00  0.00000000000E+00  0.13459070930E+04  0.13459070930E+04  0.00000000000E+00 0. -1.
          2   -1    0    0  501    0  0.00000000000E+00 -0.00000000000E+00 -0.25799690308E+04  0.25799690308E+04  0.00000000000E+00 0.  1.
         23    2    1    2    0    0  0.45767738696E+03 -0.45466912462E+03  0.12226213407E+04  0.13858986959E+04  0.98588281695E+02 0.  0.
         11    1    3    3    0    0  0.20974368275E+03 -0.15926260907E+03  0.56876557261E+03  0.62677848374E+03  0.00000000000E+00 0. -1.
        -11    1    3    3    0    0  0.24793370421E+03 -0.29540651555E+03  0.65385576808E+03  0.75912021220E+03  0.00000000000E+00 0.  1.
         22    1    1    2    0    0 -0.45767738696E+03  0.45466912462E+03 -0.24566832784E+04  0.25399774279E+04  0.00000000000E+00 0.  1.
<mgrwt>
<rscale>  0 0.37268746E+04</rscale>
<asrwt>0</asrwt>
<pdfrwt beam="1">  1        2 0.39691831E+00 0.37268746E+04</pdfrwt>
<pdfrwt beam="2">  1       -2 0.20706263E+00 0.37268746E+04</pdfrwt>
<totfact> 0.30165402E-01</totfact>
</mgrwt>
</event>
<event>
 6    1  0.5196787E-004  0.2042680E+04  0.7818608E-02  0.8586922E-01
         -2   -1    0    0    0  501 -0.00000000000E+00  0.00000000000E+00  0.10259362243E+04  0.10259362243E+04  0.00000000000E+00 0. -1.
          2   -1    0    0  501    0  0.00000000000E+00 -0.00000000000E+00 -0.10167645742E+04  0.10167645742E+04  0.00000000000E+00 0.  1.
         23    2    1    2    0    0  0.36197406252E+02 -0.59657867138E+03  0.83023018985E+03  0.10271450447E+04  0.92349398208E+02 0.  0.
         11    1    3    3    0    0  0.52001281155E+02 -0.18457559594E+03  0.28693043408E+03  0.34511064582E+03  0.00000000000E+00 0.  1.
        -11    1    3    3    0    0 -0.15803874902E+02 -0.41200307544E+03  0.54329975578E+03  0.68203439888E+03  0.00000000000E+00 0. -1.
         22    1    1    2    0    0 -0.36197406252E+02  0.59657867138E+03 -0.82105853972E+03  0.10155557538E+04  0.00000000000E+00 0.  1.
<mgrwt>
<rscale>  0 0.20426802E+04</rscale>
<asrwt>0</asrwt>
<pdfrwt beam="1">  1        2 0.15642532E+00 0.20426802E+04</pdfrwt>
<pdfrwt beam="2">  1       -2 0.15783634E+00 0.20426802E+04</pdfrwt>
<totfact> 0.59461283E+00</totfact>
</mgrwt>
</event>
<event>
 6    1  0.5196787E-004  0.3200664E+04  0.7818608E-02  0.8188642E-01
         -2   -1    0    0    0  501 -0.00000000000E+00  0.00000000000E+00  0.24079881447E+04  0.24079881447E+04  0.00000000000E+00 0. -1.
          2   -1    0    0  501    0  0.00000000000E+00 -0.00000000000E+00 -0.10635697272E+04  0.10635697272E+04  0.00000000000E+00 0.  1.
         23    2    1    2    0    0  0.58238476063E+03  0.87138685578E+03 -0.63705857012E+03  0.12299651090E+04  0.92105840675E+02 0.  0.
         13    1    3    3    0    0  0.13568110886E+03  0.27545385429E+03 -0.17268031616E+03  0.35228210391E+03  0.00000000000E+00 0. -1.
        -13    1    3    3    0    0  0.44670365177E+03  0.59593300148E+03 -0.46437825395E+03  0.87768300514E+03  0.00000000000E+00 0.  1.
         22    1    1    2    0    0 -0.58238476063E+03 -0.87138685578E+03  0.19814769876E+04  0.22415927628E+04  0.00000000000E+00 0. -1.
<mgrwt>
<rscale>  0 0.32006645E+04</rscale>
<asrwt>0</asrwt>
<pdfrwt beam="1">  1        2 0.16362611E+00 0.32006645E+04</pdfrwt>
<pdfrwt beam="2">  1       -2 0.37045971E+00 0.32006645E+04</pdfrwt>
<totfact> 0.22274071E-01</totfact>
</mgrwt>
</event>
<event>
 6    1  0.5196787E-004  0.3128896E+04  0.7818608E-02  0.8207852E-01
          2   -1    0    0  501    0  0.00000000000E+00  0.00000000000E+00  0.10147775641E+04  0.10147775641E+04  0.00000000000E+00 0.  1.
         -2   -1    0    0    0  501 -0.00000000000E+00 -0.00000000000E+00 -0.24118559254E+04  0.24118559254E+04  0.00000000000E+00 0. -1.
         23    2    1    2    0    0 -0.77408448178E+03 -0.42075067338E+03  0.71487976600E+03  0.11382705275E+04  0.91481145142E+02 0.  0.
         13    1    3    3    0    0 -0.28430911988E+03 -0.11543525791E+03  0.21420281311E+03  0.37421894602E+03  0.00000000000E+00 0.  1.
        -13    1    3    3    0    0 -0.48977536190E+03 -0.30531541547E+03  0.50067695289E+03  0.76405158151E+03  0.00000000000E+00 0. -1.
         22    1    1    2    0    0  0.77408448178E+03  0.42075067338E+03 -0.21119581274E+04  0.22883629620E+04  0.00000000000E+00 0. -1.
<mgrwt>
<rscale>  0 0.31288958E+04</rscale>
<asrwt>0</asrwt>
<pdfrwt beam="1">  1        2 0.15611963E+00 0.31288958E+04</pdfrwt>
<pdfrwt beam="2">  1       -2 0.37105475E+00 0.31288958E+04</pdfrwt>
<totfact> 0.23847660E-01</totfact>
</mgrwt>
</event>
<event>
 6    1  0.5196787E-004  0.2546266E+04  0.7818608E-02  0.8386686E-01
         -1   -1    0    0    0  501 -0.00000000000E+00  0.00000000000E+00  0.15096854385E+04  0.15096854385E+04  0.00000000000E+00 0.  1.
          1   -1    0    0  501    0  0.00000000000E+00 -0.00000000000E+00 -0.10736461050E+04  0.10736461050E+04  0.00000000000E+00 0. -1.
         23    2    1    2    0    0 -0.35099840053E+03 -0.94602504530E+02 -0.10178596321E+04  0.10846749073E+04  0.91279312688E+02 0.  0.
         13    1    3    3    0    0 -0.10414370918E+03 -0.67318860228E+02 -0.39950848517E+03  0.41831181052E+03  0.00000000000E+00 0. -1.
        -13    1    3    3    0    0 -0.24685469136E+03 -0.27283644302E+02 -0.61835114693E+03  0.66636309682E+03  0.00000000000E+00 0.  1.
         22    1    1    2    0    0  0.35099840053E+03  0.94602504530E+02  0.14538989656E+04  0.14986566362E+04  0.00000000000E+00 0.  1.
<mgrwt>
<rscale>  0 0.25462662E+04</rscale>
<asrwt>0</asrwt>
<pdfrwt beam="1">  1        1 0.16517632E+00 0.25462662E+04</pdfrwt>
<pdfrwt beam="2">  1       -1 0.23225930E+00 0.25462662E+04</pdfrwt>
<totfact> 0.10711556E+00</totfact>
</mgrwt>
</event>
<event>
 6    1  0.5196787E-004  0.2215749E+04  0.7818608E-02  0.8511902E-01
          2   -1    0    0  501    0  0.00000000000E+00  0.00000000000E+00  0.19920466579E+04  0.19920466579E+04  0.00000000000E+00 0.  1.
         -2   -1    0    0    0  501 -0.00000000000E+00 -0.00000000000E+00 -0.61614299309E+03  0.61614299309E+03  0.00000000000E+00 0. -1.
         23    2    1    2    0    0  0.50380814933E+03 -0.28959036223E+03  0.17968222177E+04  0.18906538278E+04  0.91195314236E+02 0.  0.
         11    1    3    3    0    0  0.22068125321E+03 -0.10990597708E+03  0.90122054921E+03  0.93433292655E+03  0.00000000000E+00 0. -1.
        -11    1    3    3    0    0  0.28312689612E+03 -0.17968438515E+03  0.89560166852E+03  0.95632090128E+03  0.00000000000E+00 0.  1.
         22    1    1    2    0    0 -0.50380814933E+03  0.28959036223E+03 -0.42091855296E+03  0.71753582312E+03  0.00000000000E+00 0. -1.
<mgrwt>
<rscale>  0 0.22157487E+04</rscale>
<asrwt>0</asrwt>
<pdfrwt beam="1">  1        2 0.30646871E+00 0.22157487E+04</pdfrwt>
<pdfrwt beam="2">  1       -2 0.94791231E-01 0.22157487E+04</pdfrwt>
<totfact> 0.57717129E+00</totfact>
</mgrwt>
</event>
<event>
 6    1  0.5196787E-004  0.1508977E+04  0.7818608E-02  0.8878505E-01
          1   -1    0    0  501    0  0.00000000000E+00  0.00000000000E+00  0.84918213048E+03  0.84918213048E+03  0.00000000000E+00 0.  1.
         -1   -1    0    0    0  501 -0.00000000000E+00 -0.00000000000E+00 -0.67035437389E+03  0.67035437389E+03  0.00000000000E+00 0. -1.
         23    2    1    2    0    0  0.26814497267E+02 -0.16918611006E+03 -0.64733127633E+03  0.67580567954E+03  0.91282956164E+02 0.  0.
         11    1    3    3    0    0  0.53755377509E+02 -0.74425043427E+02 -0.37899625664E+03  0.38995754929E+03  0.00000000000E+00 0.  1.
        -11    1    3    3    0    0 -0.26940880242E+02 -0.94761066630E+02 -0.26833501969E+03  0.28584813025E+03  0.00000000000E+00 0. -1.
         22    1    1    2    0    0 -0.26814497267E+02  0.16918611006E+03  0.82615903291E+03  0.84373082483E+03  0.00000000000E+00 0.  1.
<mgrwt>
<rscale>  0 0.15089771E+04</rscale>
<asrwt>0</asrwt>
<pdfrwt beam="1">  1        1 0.13064341E+00 0.15089771E+04</pdfrwt>
<pdfrwt beam="2">  1       -1 0.10313144E+00 0.15089771E+04</pdfrwt>
<totfact> 0.17218448E+01</totfact>
</mgrwt>
</event>
<event>
 6    1  0.5196787E-004  0.1548373E+04  0.7818608E-02  0.8852908E-01
         -2   -1    0    0    0  501 -0.00000000000E+00  0.00000000000E+00  0.37089532639E+03  0.37089532639E+03  0.00000000000E+00 0. -1.
          2   -1    0    0  501    0  0.00000000000E+00 -0.00000000000E+00 -0.16159943308E+04  0.16159943308E+04  0.00000000000E+00 0.  1.
         23    2    1    2    0    0 -0.40841597460E+03  0.56836823094E+03 -0.20794257164E+03  0.73567443977E+03  0.90170471737E+02 0.  0.
         13    1    3    3    0    0 -0.22899235033E+03  0.28178408784E+03 -0.14889263228E+03  0.39243952989E+03  0.00000000000E+00 0.  1.
        -13    1    3    3    0    0 -0.17942362428E+03  0.28658414309E+03 -0.59049939360E+02  0.34323490988E+03  0.00000000000E+00 0. -1.
         22    1    1    2    0    0  0.40841597460E+03 -0.56836823094E+03 -0.10371564327E+04  0.12512152174E+04  0.00000000000E+00 0. -1.
<mgrwt>
<rscale>  0 0.15483730E+04</rscale>
<asrwt>0</asrwt>
<pdfrwt beam="1">  1        2 0.24861451E+00 0.15483730E+04</pdfrwt>
<pdfrwt beam="2">  1       -2 0.57060820E-01 0.15483730E+04</pdfrwt>
<totfact> 0.30273480E+01</totfact>
</mgrwt>
</event>
<event>
 6    1  0.5196787E-004  0.2004542E+04  0.7818608E-02  0.8604500E-01
          2   -1    0    0  501    0  0.00000000000E+00  0.00000000000E+00  0.35733927587E+04  0.35733927587E+04  0.00000000000E+00 0.  1.
         -2   -1    0    0    0  501 -0.00000000000E+00 -0.00000000000E+00 -0.28111862347E+03  0.28111862347E+03  0.00000000000E+00 0. -1.
         23    2    1    2    0    0 -0.94465101009E+03  0.14261048040E+03  0.10797709782E+04  0.14445583743E+04  0.90223342744E+02 0.  0.
         11    1    3    3    0    0 -0.50683916938E+03  0.12196057865E+03  0.58762623537E+03  0.78553479799E+03  0.00000000000E+00 0. -1.
        -11    1    3    3    0    0 -0.43781184072E+03  0.20649901754E+02  0.49214474280E+03  0.65902357635E+03  0.00000000000E+00 0.  1.
         22    1    1    2    0    0  0.94465101009E+03 -0.14261048040E+03  0.22125031570E+04  0.24099530078E+04  0.00000000000E+00 0. -1.
<mgrwt>
<rscale>  0 0.20045421E+04</rscale>
<asrwt>0</asrwt>
<pdfrwt beam="1">  1        2 0.54975270E+00 0.20045421E+04</pdfrwt>
<pdfrwt beam="2">  1       -2 0.43249022E-01 0.20045421E+04</pdfrwt>
<totfact> 0.34172796E+00</totfact>
</mgrwt>
</event>
<event>
 6    1  0.5196787E-004  0.2739656E+04  0.7818608E-02  0.8322251E-01
         -1   -1    0    0    0  501 -0.00000000000E+00  0.00000000000E+00  0.11249138716E+04  0.11249138716E+04  0.00000000000E+00 0. -1.
          1   -1    0    0  501    0  0.00000000000E+00 -0.00000000000E+00 -0.16680648295E+04  0.16680648295E+04  0.00000000000E+00 0.  1.
         23    2    1    2    0    0  0.59316142765E+03 -0.47590928565E+03 -0.14314741098E+04  0.16235993145E+04  0.92878843945E+02 0.  0.
         13    1    3    3    0    0  0.47725817007E+03 -0.33709093211E+03 -0.11272213862E+04  0.12696588955E+04  0.00000000000E+00 0. -1.
        -13    1    3    3    0    0  0.11590325759E+03 -0.13881835354E+03 -0.30425272358E+03  0.35394041900E+03  0.00000000000E+00 0.  1.
         22    1    1    2    0    0 -0.59316142765E+03  0.47590928565E+03  0.88832315191E+03  0.11693793865E+04  0.00000000000E+00 0. -1.
<mgrwt>
<rscale>  0 0.27396564E+04</rscale>
<asrwt>0</asrwt>
<pdfrwt beam="1">  1        1 0.25662536E+00 0.27396564E+04</pdfrwt>
<pdfrwt beam="2">  1       -1 0.17306367E+00 0.27396564E+04</pdfrwt>
<totfact> 0.10190816E+00</totfact>
</mgrwt>
</event>
<event>
 6    1  0.5196787E-004  0.2560574E+04  0.7818608E-02  0.8381718E-01
         -1   -1    0    0    0  501 -0.00000000000E+00  0.00000000000E+00  0.13611389752E+04  0.13611389752E+04  0.00000000000E+00 0. -1.
          1   -1    0    0  501    0  0.00000000000E+00 -0.00000000000E+00 -0.12042377247E+04  0.12042377247E+04  0.00000000000E+00 0.  1.
         23    2    1    2    0    0  0.47038091318E+03  0.10775013418E+04  0.58223401115E+03  0.13151066081E+04  0.90783268045E+02 0.  0.
         11    1    3    3    0    0  0.11043184977E+03  0.35860752218E+03  0.18537512419E+03  0.41851939630E+03  0.00000000000E+00 0. -1.
        -11    1    3    3    0    0  0.35994906342E+03  0.71889381964E+03  0.39685888696E+03  0.89658721178E+03  0.00000000000E+00 0.  1.
         22    1    1    2    0    0 -0.47038091318E+03 -0.10775013418E+04 -0.42533276072E+03  0.12502700918E+04  0.00000000000E+00 0.  1.
<mgrwt>
<rscale>  0 0.25605741E+04</rscale>
<asrwt>0</asrwt>
<pdfrwt beam="1">  1        1 0.18526734E+00 0.25605741E+04</pdfrwt>
<pdfrwt beam="2">  1       -1 0.20940600E+00 0.25605741E+04</pdfrwt>
<totfact> 0.12166827E+00</totfact>
</mgrwt>
</event>
<event>
 6    1  0.5196787E-004  0.2237577E+04  0.7818608E-02  0.8502949E-01
         -2   -1    0    0    0  501 -0.00000000000E+00  0.00000000000E+00  0.80100046082E+03  0.80100046082E+03  0.00000000000E+00 0. -1.
          2   -1    0    0  501    0  0.00000000000E+00 -0.00000000000E+00 -0.15626547265E+04  0.15626547265E+04  0.00000000000E+00 0.  1.
         23    2    1    2    0    0  0.54494621389E+03  0.93698745151E+03 -0.98408645363E+02  0.10929047739E+04  0.99220577811E+02 0.  0.
         11    1    3    3    0    0  0.17515511038E+03  0.36225890821E+03 -0.73465810352E+02  0.40903307270E+03  0.00000000000E+00 0.  1.
        -11    1    3    3    0    0  0.36979110351E+03  0.57472854330E+03 -0.24942835011E+02  0.68387170122E+03  0.00000000000E+00 0. -1.
         22    1    1    2    0    0 -0.54494621389E+03 -0.93698745151E+03 -0.66324562035E+03  0.12707504134E+04  0.00000000000E+00 0. -1.
<mgrwt>
<rscale>  0 0.22375765E+04</rscale>
<asrwt>0</asrwt>
<pdfrwt beam="1">  1        2 0.24040842E+00 0.22375765E+04</pdfrwt>
<pdfrwt beam="2">  1       -2 0.12323084E+00 0.22375765E+04</pdfrwt>
<totfact> 0.53001685E+00</totfact>
</mgrwt>
</event>
<event>
 6    1  0.5196787E-004  0.2616188E+04  0.7818608E-02  0.8362723E-01
         -2   -1    0    0    0  501 -0.00000000000E+00  0.00000000000E+00  0.77839407541E+03  0.77839407541E+03  0.00000000000E+00 0. -1.
          2   -1    0    0  501    0  0.00000000000E+00 -0.00000000000E+00 -0.21982566038E+04  0.21982566038E+04  0.00000000000E+00 0.  1.
         23    2    1    2    0    0  0.12063285850E+04  0.74992286149E+02 -0.14623596750E+03  0.12208098224E+04  0.90217327826E+02 0.  0.
         13    1    3    3    0    0  0.12176080472E+03 -0.75009507966E+00  0.11129798315E+02  0.12227071857E+03  0.00000000000E+00 0. -1.
        -13    1    3    3    0    0  0.10845677803E+04  0.75742381229E+02 -0.15736576581E+03  0.10985391038E+04  0.00000000000E+00 0.  1.
         22    1    1    2    0    0 -0.12063285850E+04 -0.74992286149E+02 -0.12736265609E+04  0.17558408568E+04  0.00000000000E+00 0. -1.
<mgrwt>
<rscale>  0 0.26161880E+04</rscale>
<asrwt>0</asrwt>
<pdfrwt beam="1">  1        2 0.33819332E+00 0.26161880E+04</pdfrwt>
<pdfrwt beam="2">  1       -2 0.11975293E+00 0.26161880E+04</pdfrwt>
<totfact> 0.24399628E+00</totfact>
</mgrwt>
</event>
<event>
 6    1  0.5196787E-004  0.3616444E+04  0.7818608E-02  0.8086735E-01
          2   -1    0    0  501    0  0.00000000000E+00  0.00000000000E+00  0.12825675122E+04  0.12825675122E+04  0.00000000000E+00 0.  1.
         -2   -1    0    0    0  501 -0.00000000000E+00 -0.00000000000E+00 -0.25493142328E+04  0.25493142328E+04  0.00000000000E+00 0. -1.
         23    2    1    2    0    0 -0.13427190653E+04 -0.11129418360E+04 -0.11348473266E+04  0.20829016225E+04  0.95219197773E+02 0.  0.
         11    1    3    3    0    0 -0.95200306545E+03 -0.82132964591E+03 -0.77578461091E+03  0.14774078605E+04  0.00000000000E+00 0.  1.
        -11    1    3    3    0    0 -0.39071599986E+03 -0.29161219006E+03 -0.35906271569E+03  0.60549376193E+03  0.00000000000E+00 0. -1.
         22    1    1    2    0    0  0.13427190653E+04  0.11129418360E+04 -0.13189939400E+03  0.17489801225E+04  0.00000000000E+00 0.  1.
<mgrwt>
<rscale>  0 0.36164444E+04</rscale>
<asrwt>0</asrwt>
<pdfrwt beam="1">  1        2 0.19731808E+00 0.36164444E+04</pdfrwt>
<pdfrwt beam="2">  1       -2 0.39220218E+00 0.36164444E+04</pdfrwt>
<totfact> 0.11487114E-01</totfact>
</mgrwt>
</event>
<event>
 6    1  0.5196787E-004  0.2699841E+04  0.7818608E-02  0.8335057E-01
         -2   -1    0    0    0  501 -0.00000000000E+00  0.00000000000E+00  0.46210963115E+03  0.46210963115E+03  0.00000000000E+00 0. -1.
          2   -1    0    0  501    0  0.00000000000E+00 -0.00000000000E+00 -0.39434051429E+04  0.39434051429E+04  0.00000000000E+00 0.  1.
         23    2    1    2    0    0  0.11713451757E+04 -0.47013767462E+03 -0.96874957039E+03  0.15937597952E+04  0.92280013849E+02 0.  0.
         13    1    3    3    0    0  0.40550485392E+03 -0.21031372690E+03 -0.35463499596E+03  0.57830098620E+03  0.00000000000E+00 0.  1.
        -13    1    3    3    0    0  0.76584032177E+03 -0.25982394772E+03 -0.61411457442E+03  0.10154588090E+04  0.00000000000E+00 0. -1.
         22    1    1    2    0    0 -0.11713451757E+04  0.47013767462E+03 -0.25125459414E+04  0.28117549789E+04  0.00000000000E+00 0.  1.
<mgrwt>
<rscale>  0 0.26998411E+04</rscale>
<asrwt>0</asrwt>
<pdfrwt beam="1">  1        2 0.60667774E+00 0.26998411E+04</pdfrwt>
<pdfrwt beam="2">  1       -2 0.71093787E-01 0.26998411E+04</pdfrwt>
<totfact> 0.59957750E-01</totfact>
</mgrwt>
</event>
<event>
 6    1  0.5196787E-004  0.2861407E+03  0.7818608E-02  0.1092382E+00
         -2   -1    0    0    0  501 -0.00000000000E+00  0.00000000000E+00  0.16998989025E+02  0.16998989025E+02  0.00000000000E+00 0. -1.
          2   -1    0    0  501    0  0.00000000000E+00 -0.00000000000E+00 -0.12041378262E+04  0.12041378262E+04  0.00000000000E+00 0.  1.
         23    2    1    2    0    0  0.94543813579E+02 -0.87802057727E+02 -0.66347525620E+03  0.68181197798E+03  0.89556818284E+02 0.  0.
         13    1    3    3    0    0  0.37609685430E+01 -0.55271527863E+02 -0.16376536591E+03  0.17288198792E+03  0.00000000000E+00 0. -1.
        -13    1    3    3    0    0  0.90782845036E+02 -0.32530529864E+02 -0.49970989030E+03  0.50892999006E+03  0.00000000000E+00 0.  1.
         22    1    1    2    0    0 -0.94543813579E+02  0.87802057727E+02 -0.52366358092E+03  0.53932483719E+03  0.00000000000E+00 0.  1.
<mgrwt>
<rscale>  0 0.28614070E+03</rscale>
<asrwt>0</asrwt>
<pdfrwt beam="1">  1        2 0.18525202E+00 0.28614070E+03</pdfrwt>
<pdfrwt beam="2">  1       -2 0.26152284E-02 0.28614070E+03</pdfrwt>
<totfact> 0.10329041E+04</totfact>
</mgrwt>
</event>
<event>
 6    1  0.5196787E-004  0.6066676E+03  0.7818608E-02  0.9891669E-01
          1   -1    0    0  501    0  0.00000000000E+00  0.00000000000E+00  0.18310307234E+03  0.18310307234E+03  0.00000000000E+00 0.  1.
         -1   -1    0    0    0  501 -0.00000000000E+00 -0.00000000000E+00 -0.50251140426E+03  0.50251140426E+03  0.00000000000E+00 0. -1.
         23    2    1    2    0    0  0.19485931275E+03  0.20099519144E+03 -0.59687281227E+02  0.30374507102E+03  0.10163305506E+03 0.  0.
         11    1    3    3    0    0  0.29688070350E+02  0.96866230045E+02 -0.33684749265E+02  0.10676661640E+03  0.00000000000E+00 0.  1.
        -11    1    3    3    0    0  0.16517124239E+03  0.10412896140E+03 -0.26002531963E+02  0.19697845462E+03  0.00000000000E+00 0. -1.
         22    1    1    2    0    0 -0.19485931275E+03 -0.20099519144E+03 -0.25972105070E+03  0.38186940559E+03  0.00000000000E+00 0. -1.
<mgrwt>
<rscale>  0 0.60666756E+03</rscale>
<asrwt>0</asrwt>
<pdfrwt beam="1">  1        1 0.28169703E-01 0.60666756E+03</pdfrwt>
<pdfrwt beam="2">  1       -1 0.77309447E-01 0.60666756E+03</pdfrwt>
<totfact> 0.28437687E+02</totfact>
</mgrwt>
</event>
<event>
 6    1  0.5196787E-004  0.1599879E+04  0.7818608E-02  0.8820622E-01
         -2   -1    0    0    0  501 -0.00000000000E+00  0.00000000000E+00  0.21521183058E+03  0.21521183058E+03  0.00000000000E+00 0. -1.
          2   -1    0    0  501    0  0.00000000000E+00 -0.00000000000E+00 -0.29733657920E+04  0.29733657920E+04  0.00000000000E+00 0.  1.
         23    2    1    2    0    0 -0.56255772991E+03 -0.49880840877E+03 -0.85385602115E+03  0.11412301500E+04  0.89750332908E+02 0.  0.
         13    1    3    3    0    0 -0.36640729492E+03 -0.35943688782E+03 -0.62958657791E+03  0.81229824645E+03  0.00000000000E+00 0. -1.
        -13    1    3    3    0    0 -0.19615043499E+03 -0.13937152095E+03 -0.22426944324E+03  0.32893190355E+03  0.00000000000E+00 0.  1.
         22    1    1    2    0    0  0.56255772991E+03  0.49880840877E+03 -0.19042979402E+04  0.20473474726E+04  0.00000000000E+00 0.  1.
<mgrwt>
<rscale>  0 0.15998794E+04</rscale>
<asrwt>0</asrwt>
<pdfrwt beam="1">  1        2 0.45744086E+00 0.15998794E+04</pdfrwt>
<pdfrwt beam="2">  1       -2 0.33109515E-01 0.15998794E+04</pdfrwt>
<totfact> 0.14860717E+01</totfact>
</mgrwt>
</event>
<event>
 6    1  0.5196787E-004  0.2067804E+04  0.7818608E-02  0.8575560E-01
         -1   -1    0    0    0  501 -0.00000000000E+00  0.00000000000E+00  0.59799905678E+03  0.59799905678E+03  0.00000000000E+00 0. -1.
          1   -1    0    0  501    0  0.00000000000E+00 -0.00000000000E+00 -0.17875495606E+04  0.17875495606E+04  0.00000000000E+00 0.  1.
         23    2    1    2    0    0  0.10458537835E+02  0.97453224885E+03 -0.98732921303E+03  0.13902014741E+04  0.89547075449E+02 0.  0.
         13    1    3    3    0    0 -0.85106409723E+01  0.42562454811E+03 -0.49188894113E+03  0.65052549325E+03  0.00000000000E+00 0.  1.
        -13    1    3    3    0    0  0.18969178807E+02  0.54890770074E+03 -0.49544027190E+03  0.73967598088E+03  0.00000000000E+00 0. -1.
         22    1    1    2    0    0 -0.10458537835E+02 -0.97453224885E+03 -0.20222129077E+03  0.99534714321E+03  0.00000000000E+00 0.  1.
<mgrwt>
<rscale>  0 0.20678036E+04</rscale>
<asrwt>0</asrwt>
<pdfrwt beam="1">  1        1 0.27500762E+00 0.20678036E+04</pdfrwt>
<pdfrwt beam="2">  1       -1 0.91999855E-01 0.20678036E+04</pdfrwt>
<totfact> 0.44071840E+00</totfact>
</mgrwt>
</event>
<event>
 6    1  0.5196787E-004  0.1027001E+04  0.7818608E-02  0.9279417E-01
          2   -1    0    0  501    0  0.00000000000E+00  0.00000000000E+00  0.13298549796E+04  0.13298549796E+04  0.00000000000E+00 0.  1.
         -2   -1    0    0    0  501 -0.00000000000E+00 -0.00000000000E+00 -0.19827918151E+03  0.19827918151E+03  0.00000000000E+00 0. -1.
         23    2    1    2    0    0 -0.11356856771E+03  0.25746822981E+03  0.12023210446E+04  0.12379745519E+04  0.88415993230E+02 0.  0.
         13    1    3    3    0    0 -0.10730327661E+03  0.26174951561E+03  0.11923237510E+04  0.12254234898E+04  0.00000000000E+00 0.  1.
        -13    1    3    3    0    0 -0.62652911000E+01 -0.42812857937E+01  0.99972936380E+01  0.12551062134E+02  0.00000000000E+00 0. -1.
         22    1    1    2    0    0  0.11356856771E+03 -0.25746822981E+03 -0.70745246502E+02  0.29015960924E+03  0.00000000000E+00 0. -1.
<mgrwt>
<rscale>  0 0.10270006E+04</rscale>
<asrwt>0</asrwt>
<pdfrwt beam="1">  1        2 0.20459307E+00 0.10270006E+04</pdfrwt>
<pdfrwt beam="2">  1       -2 0.30504490E-01 0.10270006E+04</pdfrwt>
<totfact> 0.15719203E+02</totfact>
</mgrwt>
</event>
<event>
 6    1  0.5196787E-004  0.3240097E+04  0.7818608E-02  0.8178307E-01
         -2   -1    0    0    0  501 -0.00000000000E+00  0.00000000000E+00  0.95690777635E+03  0.95690777635E+03  0.00000000000E+00 0. -1.
          2   -1    0    0  501    0  0.00000000000E+00 -0.00000000000E+00 -0.27427475588E+04  0.27427475588E+04  0.00000000000E+00 0.  1.
         23    2    1    2    0    0 -0.73465771562E+02 -0.95920391308E+03 -0.23802185189E+04  0.25688346381E+04  0.89452967313E+02 0.  0.
         11    1    3    3    0    0 -0.38542335855E+01 -0.27886173525E+03 -0.79043817052E+03  0.83819521826E+03  0.00000000000E+00 0. -1.
        -11    1    3    3    0    0 -0.69611537977E+02 -0.68034217783E+03 -0.15897803484E+04  0.17306394198E+04  0.00000000000E+00 0.  1.
         22    1    1    2    0    0  0.73465771562E+02  0.95920391308E+03  0.59437873651E+03  0.11308206971E+04  0.00000000000E+00 0. -1.
<mgrwt>
<rscale>  0 0.32400966E+04</rscale>
<asrwt>0</asrwt>
<pdfrwt beam="1">  1        2 0.42196116E+00 0.32400966E+04</pdfrwt>
<pdfrwt beam="2">  1       -2 0.14721658E+00 0.32400966E+04</pdfrwt>
<totfact> 0.66130441E-01</totfact>
</mgrwt>
</event>
<event>
 6    1  0.5196787E-004  0.2219661E+04  0.7818608E-02  0.8510289E-01
          2   -1    0    0  501    0  0.00000000000E+00  0.00000000000E+00  0.65681410480E+03  0.65681410480E+03  0.00000000000E+00 0.  1.
         -2   -1    0    0    0  501 -0.00000000000E+00 -0.00000000000E+00 -0.18753000912E+04  0.18753000912E+04  0.00000000000E+00 0. -1.
         23    2    1    2    0    0 -0.10883559776E+04  0.19602275095E+02 -0.84601321731E+03  0.13816191083E+04  0.90719420396E+02 0.  0.
         11    1    3    3    0    0 -0.43660210490E+03  0.33480245184E+02 -0.29432193338E+03  0.52760565320E+03  0.00000000000E+00 0. -1.
        -11    1    3    3    0    0 -0.65175387273E+03 -0.13877970089E+02 -0.55169128393E+03  0.85401345507E+03  0.00000000000E+00 0.  1.
         22    1    1    2    0    0  0.10883559776E+04 -0.19602275095E+02 -0.37247276913E+03  0.11504950878E+04  0.00000000000E+00 0. -1.
<mgrwt>
<rscale>  0 0.22196608E+04</rscale>
<asrwt>0</asrwt>
<pdfrwt beam="1">  1        2 0.10104832E+00 0.22196608E+04</pdfrwt>
<pdfrwt beam="2">  1       -2 0.28850770E+00 0.22196608E+04</pdfrwt>
<totfact> 0.15139346E+00</totfact>
</mgrwt>
</event>
<event>
 6    1  0.5196787E-004  0.5189241E+04  0.7818608E-02  0.7799960E-01
          1   -1    0    0  501    0  0.00000000000E+00  0.00000000000E+00  0.43839869813E+04  0.43839869813E+04  0.00000000000E+00 0. -1.
         -1   -1    0    0    0  501 -0.00000000000E+00 -0.00000000000E+00 -0.15356014124E+04  0.15356014124E+04  0.00000000000E+00 0.  1.
         23    2    1    2    0    0  0.22965310552E+04  0.11088251186E+04  0.19650320347E+04  0.32207253928E+04  0.90405351325E+02 0.  0.
         11    1    3    3    0    0  0.20689967181E+04  0.10270056182E+04  0.17687885182E+04  0.29093127680E+04  0.00000000000E+00 0. -1.
        -11    1    3    3    0    0  0.22753433703E+03  0.81819500355E+02  0.19624351646E+03  0.31141262485E+03  0.00000000000E+00 0.  1.
         22    1    1    2    0    0 -0.22965310552E+04 -0.11088251186E+04  0.88335353421E+03  0.26988630009E+04  0.00000000000E+00 0. -1.
<mgrwt>
<rscale>  0 0.51892414E+04</rscale>
<asrwt>0</asrwt>
<pdfrwt beam="1">  1        1 0.67445953E+00 0.51892414E+04</pdfrwt>
<pdfrwt beam="2">  1       -1 0.23624637E+00 0.51892414E+04</pdfrwt>
<totfact> 0.25562538E-03</totfact>
</mgrwt>
</event>
<event>
 6    1  0.5196787E-004  0.3406963E+04  0.7818608E-02  0.8136200E-01
         -2   -1    0    0    0  501 -0.00000000000E+00  0.00000000000E+00  0.17279736571E+04  0.17279736571E+04  0.00000000000E+00 0. -1.
          2   -1    0    0  501    0  0.00000000000E+00 -0.00000000000E+00 -0.16793362978E+04  0.16793362978E+04  0.00000000000E+00 0.  1.
         23    2    1    2    0    0 -0.44364572723E+03 -0.14342967989E+04  0.82676788644E+03  0.17162996191E+04  0.90057790412E+02 0.  0.
         11    1    3    3    0    0 -0.18404964799E+03 -0.48367893341E+03  0.25365748105E+03  0.57633471285E+03  0.00000000000E+00 0. -1.
        -11    1    3    3    0    0 -0.25959607924E+03 -0.95061786553E+03  0.57311040540E+03  0.11399649062E+04  0.00000000000E+00 0.  1.
         22    1    1    2    0    0  0.44364572723E+03  0.14342967989E+04 -0.77813052709E+03  0.16910103358E+04  0.00000000000E+00 0. -1.
<mgrwt>
<rscale>  0 0.34069628E+04</rscale>
<asrwt>0</asrwt>
<pdfrwt beam="1">  1        2 0.25835943E+00 0.34069628E+04</pdfrwt>
<pdfrwt beam="2">  1       -2 0.26584210E+00 0.34069628E+04</pdfrwt>
<totfact> 0.42846755E-01</totfact>
</mgrwt>
</event>
<event>
 6    1  0.5196787E-004  0.3066225E+04  0.7818608E-02  0.8225069E-01
          2   -1    0    0  501    0  0.00000000000E+00  0.00000000000E+00  0.23314568408E+04  0.23314568408E+04  0.00000000000E+00 0.  1.
         -2   -1    0    0    0  501 -0.00000000000E+00 -0.00000000000E+00 -0.10081398264E+04  0.10081398264E+04  0.00000000000E+00 0. -1.
         23    2    1    2    0    0  0.13611745544E+04  0.70154847361E+03  0.61612431170E+03  0.16528578176E+04  0.85810077330E+02 0.  0.
         11    1    3    3    0    0  0.72254903081E+03  0.37266706953E+03  0.37319386484E+03  0.89455659820E+03  0.00000000000E+00 0.  1.
        -11    1    3    3    0    0  0.63862552354E+03  0.32888140407E+03  0.24293044686E+03  0.75830121936E+03  0.00000000000E+00 0. -1.
         22    1    1    2    0    0 -0.13611745544E+04 -0.70154847361E+03  0.70719270268E+03  0.16867388497E+04  0.00000000000E+00 0.  1.
<mgrwt>
<rscale>  0 0.30662254E+04</rscale>
<asrwt>0</asrwt>
<pdfrwt beam="1">  1        2 0.35868567E+00 0.30662254E+04</pdfrwt>
<pdfrwt beam="2">  1       -2 0.15509843E+00 0.30662254E+04</pdfrwt>
<totfact> 0.10150382E+00</totfact>
</mgrwt>
</event>
<event>
 6    1  0.5196787E-004  0.1396123E+04  0.7818608E-02  0.8956630E-01
          2   -1    0    0  501    0  0.00000000000E+00  0.00000000000E+00  0.20437483575E+04  0.20437483575E+04  0.00000000000E+00 0.  1.
         -2   -1    0    0    0  501 -0.00000000000E+00 -0.00000000000E+00 -0.23842931964E+03  0.23842931964E+03  0.00000000000E+00 0. -1.
         23    2    1    2    0    0  0.29154222938E+03  0.54523438679E+03  0.38302318235E+03  0.73130601623E+03  0.76317253003E+02 0.  0.
         13    1    3    3    0    0  0.65359287172E+02  0.18854095409E+03  0.10314127229E+03  0.22462780291E+03  0.00000000000E+00 0. -1.
        -13    1    3    3    0    0  0.22618294221E+03  0.35669343270E+03  0.27988191006E+03  0.50667821332E+03  0.00000000000E+00 0.  1.
         22    1    1    2    0    0 -0.29154222938E+03 -0.54523438679E+03  0.14222958555E+04  0.15508716609E+04  0.00000000000E+00 0.  1.
<mgrwt>
<rscale>  0 0.13961225E+04</rscale>
<asrwt>0</asrwt>
<pdfrwt beam="1">  1        2 0.31442281E+00 0.13961225E+04</pdfrwt>
<pdfrwt beam="2">  1       -2 0.36681435E-01 0.13961225E+04</pdfrwt>
<totfact> 0.43080417E+01</totfact>
</mgrwt>
</event>
<event>
 6    1  0.5196787E-004  0.8576244E+03  0.7818608E-02  0.9480160E-01
          1   -1    0    0  501    0  0.00000000000E+00  0.00000000000E+00  0.12831272164E+04  0.12831272164E+04  0.00000000000E+00 0.  1.
         -1   -1    0    0    0  501 -0.00000000000E+00 -0.00000000000E+00 -0.14330606233E+03  0.14330606233E+03  0.00000000000E+00 0. -1.
         23    2    1    2    0    0 -0.31505312324E+03 -0.93722252484E+02  0.13135467235E+03  0.36575096257E+03  0.92072719081E+02 0.  0.
         11    1    3    3    0    0 -0.11540620532E+03 -0.40198837749E+02  0.26048445254E+01  0.12223470865E+03  0.00000000000E+00 0.  1.
        -11    1    3    3    0    0 -0.19964691791E+03 -0.53523414735E+02  0.12874982783E+03  0.24351625392E+03  0.00000000000E+00 0. -1.
         22    1    1    2    0    0  0.31505312324E+03  0.93722252484E+02  0.10084664817E+04  0.10606823161E+04  0.00000000000E+00 0.  1.
<mgrwt>
<rscale>  0 0.85762441E+03</rscale>
<asrwt>0</asrwt>
<pdfrwt beam="1">  1        1 0.19740418E+00 0.85762441E+03</pdfrwt>
<pdfrwt beam="2">  1       -1 0.22047087E-01 0.85762441E+03</pdfrwt>
<totfact> 0.16291241E+02</totfact>
</mgrwt>
</event>
<event>
 6    1  0.5196787E-004  0.1670640E+04  0.7818608E-02  0.8778289E-01
          2   -1    0    0  501    0  0.00000000000E+00  0.00000000000E+00  0.12553936849E+04  0.12553936849E+04  0.00000000000E+00 0.  1.
         -2   -1    0    0    0  501 -0.00000000000E+00 -0.00000000000E+00 -0.55580943204E+03  0.55580943204E+03  0.00000000000E+00 0. -1.
         23    2    1    2    0    0  0.83007677312E+03 -0.11267114882E+02  0.27945496177E+03  0.88079298243E+03  0.92448932364E+02 0.  0.
         13    1    3    3    0    0  0.67715485560E+03  0.16349613535E+02  0.19999704656E+03  0.70626116059E+03  0.00000000000E+00 0. -1.
        -13    1    3    3    0    0  0.15292191752E+03 -0.27616728417E+02  0.79457915209E+02  0.17453182184E+03  0.00000000000E+00 0.  1.
         22    1    1    2    0    0 -0.83007677312E+03  0.11267114882E+02  0.42012929105E+03  0.93041013448E+03  0.00000000000E+00 0. -1.
<mgrwt>
<rscale>  0 0.16706402E+04</rscale>
<asrwt>0</asrwt>
<pdfrwt beam="1">  1        2 0.19313749E+00 0.16706402E+04</pdfrwt>
<pdfrwt beam="2">  1       -2 0.85509144E-01 0.16706402E+04</pdfrwt>
<totfact> 0.19906916E+01</totfact>
</mgrwt>
</event>
<event>
 6    1  0.5196787E-004  0.1517970E+04  0.7818608E-02  0.8872590E-01
          2   -1    0    0  501    0  0.00000000000E+00  0.00000000000E+00  0.86125421791E+03  0.86125421791E+03  0.00000000000E+00 0.  1.
         -2   -1    0    0    0  501 -0.00000000000E+00 -0.00000000000E+00 -0.66886003829E+03  0.66886003829E+03  0.00000000000E+00 0. -1.
         23    2    1    2    0    0 -0.15327905679E+03 -0.66003970067E+03  0.43526138713E+03  0.81030083858E+03  0.89376161091E+02 0.  0.
         13    1    3    3    0    0 -0.62683813303E+02 -0.17634308712E+03  0.80931982310E+02  0.20390225744E+03  0.00000000000E+00 0. -1.
        -13    1    3    3    0    0 -0.90595243491E+02 -0.48369661354E+03  0.35432940482E+03  0.60639858114E+03  0.00000000000E+00 0.  1.
         22    1    1    2    0    0  0.15327905679E+03  0.66003970067E+03 -0.24286720750E+03  0.71981341762E+03  0.00000000000E+00 0. -1.
<mgrwt>
<rscale>  0 0.15179704E+04</rscale>
<asrwt>0</asrwt>
<pdfrwt beam="1">  1        2 0.13250065E+00 0.15179704E+04</pdfrwt>
<pdfrwt beam="2">  1       -2 0.10290154E+00 0.15179704E+04</pdfrwt>
<totfact> 0.23209774E+01</totfact>
</mgrwt>
</event>
<event>
 6    1  0.5196787E-004  0.2015665E+04  0.7818608E-02  0.8599332E-01
          2   -1    0    0  501    0  0.00000000000E+00  0.00000000000E+00  0.27941646209E+04  0.27941646209E+04  0.00000000000E+00 0.  1.
         -2   -1    0    0    0  501 -0.00000000000E+00 -0.00000000000E+00 -0.36351700600E+03  0.36351700600E+03  0.00000000000E+00 0. -1.
         23    2    1    2    0    0 -0.67748445031E+03 -0.22232888571E+03  0.23290948085E+04  0.24374536864E+04  0.89902905456E+02 0.  0.
         13    1    3    3    0    0 -0.36251789411E+03 -0.80471035733E+02  0.12948610167E+04  0.13470559987E+04  0.00000000000E+00 0.  1.
        -13    1    3    3    0    0 -0.31496655619E+03 -0.14185784997E+03  0.10342337918E+04  0.10903976877E+04  0.00000000000E+00 0. -1.
         22    1    1    2    0    0  0.67748445031E+03  0.22232888571E+03  0.10155280639E+03  0.72022794052E+03  0.00000000000E+00 0. -1.
<mgrwt>
<rscale>  0 0.20156650E+04</rscale>
<asrwt>0</asrwt>
<pdfrwt beam="1">  1        2 0.42987147E+00 0.20156650E+04</pdfrwt>
<pdfrwt beam="2">  1       -2 0.55925695E-01 0.20156650E+04</pdfrwt>
<totfact> 0.65043921E+00</totfact>
</mgrwt>
</event>
<event>
 6    1  0.5196787E-004  0.1186004E+04  0.7818608E-02  0.9125196E-01
         -2   -1    0    0    0  501 -0.00000000000E+00  0.00000000000E+00  0.24142789672E+03  0.24142789672E+03  0.00000000000E+00 0. -1.
          2   -1    0    0  501    0  0.00000000000E+00 -0.00000000000E+00 -0.14565474159E+04  0.14565474159E+04  0.00000000000E+00 0.  1.
         23    2    1    2    0    0  0.47496293804E+03  0.82760981692E+01 -0.11148000350E+03  0.49644359566E+03  0.91488612283E+02 0.  0.
         13    1    3    3    0    0  0.36146834766E+03 -0.27167043139E+02 -0.10490185095E+03  0.37736164739E+03  0.00000000000E+00 0. -1.
        -13    1    3    3    0    0  0.11349459038E+03  0.35443141309E+02 -0.65781525595E+01  0.11908194827E+03  0.00000000000E+00 0.  1.
         22    1    1    2    0    0 -0.47496293804E+03 -0.82760981692E+01 -0.11036395157E+04  0.12015317169E+04  0.00000000000E+00 0.  1.
<mgrwt>
<rscale>  0 0.11860037E+04</rscale>
<asrwt>0</asrwt>
<pdfrwt beam="1">  1        2 0.22408422E+00 0.11860037E+04</pdfrwt>
<pdfrwt beam="2">  1       -2 0.37142754E-01 0.11860037E+04</pdfrwt>
<totfact> 0.90599966E+01</totfact>
</mgrwt>
</event>
<event>
 6    1  0.5196787E-004  0.5432934E+04  0.7818608E-02  0.7764985E-01
          2   -1    0    0  501    0  0.00000000000E+00  0.00000000000E+00  0.29145812341E+04  0.29145812341E+04  0.00000000000E+00 0. -1.
         -2   -1    0    0    0  501 -0.00000000000E+00 -0.00000000000E+00 -0.25318192662E+04  0.25318192662E+04  0.00000000000E+00 0.  1.
         23    2    1    2    0    0 -0.20427242040E+04 -0.15161984270E+04  0.11443196599E+04  0.27909250321E+04  0.90637780871E+02 0.  0.
         11    1    3    3    0    0 -0.12628568467E+03 -0.84589149542E+02  0.46755050022E+02  0.15902651689E+03  0.00000000000E+00 0.  1.
        -11    1    3    3    0    0 -0.19164385194E+04 -0.14316092774E+04  0.10975646099E+04  0.26318985153E+04  0.00000000000E+00 0. -1.
         22    1    1    2    0    0  0.20427242040E+04  0.15161984270E+04 -0.76155769194E+03  0.26554754681E+04  0.00000000000E+00 0.  1.
<mgrwt>
<rscale>  0 0.54329340E+04</rscale>
<asrwt>0</asrwt>
<pdfrwt beam="1">  1        2 0.44839711E+00 0.54329340E+04</pdfrwt>
<pdfrwt beam="2">  1       -2 0.38951065E+00 0.54329340E+04</pdfrwt>
<totfact> 0.12033321E-02</totfact>
</mgrwt>
</event>
<event>
 6    1  0.5196787E-004  0.1628760E+04  0.7818608E-02  0.8803072E-01
          2   -1    0    0  501    0  0.00000000000E+00  0.00000000000E+00  0.22840254299E+04  0.22840254299E+04  0.00000000000E+00 0.  1.
         -2   -1    0    0    0  501 -0.00000000000E+00 -0.00000000000E+00 -0.29037105730E+03  0.29037105730E+03  0.00000000000E+00 0. -1.
         23    2    1    2    0    0  0.27027048546E+03  0.32399290745E+03 -0.96060000885E+02  0.44251382108E+03  0.92592757181E+02 0.  0.
         11    1    3    3    0    0  0.15435081372E+03  0.11726817909E+03 -0.27477236036E+02  0.19578303814E+03  0.00000000000E+00 0. -1.
        -11    1    3    3    0    0  0.11591967174E+03  0.20672472837E+03 -0.68582764849E+02  0.24673078294E+03  0.00000000000E+00 0.  1.
         22    1    1    2    0    0 -0.27027048546E+03 -0.32399290745E+03  0.20897143734E+04  0.21318826661E+04  0.00000000000E+00 0.  1.
<mgrwt>
<rscale>  0 0.16287601E+04</rscale>
<asrwt>0</asrwt>
<pdfrwt beam="1">  1        2 0.35138852E+00 0.16287601E+04</pdfrwt>
<pdfrwt beam="2">  1       -2 0.44672472E-01 0.16287601E+04</pdfrwt>
<totfact> 0.21069738E+01</totfact>
</mgrwt>
</event>
<event>
 6    1  0.5196787E-004  0.2305186E+04  0.7818608E-02  0.8475879E-01
          2   -1    0    0  501    0  0.00000000000E+00  0.00000000000E+00  0.48882290234E+04  0.48882290234E+04  0.00000000000E+00 0.  1.
         -2   -1    0    0    0  501 -0.00000000000E+00 -0.00000000000E+00 -0.27176931016E+03  0.27176931016E+03  0.00000000000E+00 0. -1.
         23    2    1    2    0    0 -0.20371033501E+03 -0.11293937667E+04  0.21216162511E+04  0.24138606674E+04  0.91867426764E+02 0.  0.
         11    1    3    3    0    0 -0.10460842746E+03 -0.46511895501E+03  0.96643963600E+03  0.10776289414E+04  0.00000000000E+00 0. -1.
        -11    1    3    3    0    0 -0.99101907550E+02 -0.66427481164E+03  0.11551766151E+04  0.13362317259E+04  0.00000000000E+00 0.  1.
         22    1    1    2    0    0  0.20371033501E+03  0.11293937667E+04  0.24948434622E+04  0.27461376661E+04  0.00000000000E+00 0.  1.
<mgrwt>
<rscale>  0 0.23051860E+04</rscale>
<asrwt>0</asrwt>
<pdfrwt beam="1">  1        2 0.75203517E+00 0.23051860E+04</pdfrwt>
<pdfrwt beam="2">  1       -2 0.41810667E-01 0.23051860E+04</pdfrwt>
<totfact> 0.23425509E-01</totfact>
</mgrwt>
</event>
<event>
 6    1  0.5196787E-004  0.2535227E+04  0.7818608E-02  0.8390542E-01
         -2   -1    0    0    0  501 -0.00000000000E+00  0.00000000000E+00  0.68946629287E+03  0.68946629287E+03  0.00000000000E+00 0. -1.
          2   -1    0    0  501    0  0.00000000000E+00 -0.00000000000E+00 -0.23305622621E+04  0.23305622621E+04  0.00000000000E+00 0.  1.
         23    2    1    2    0    0  0.50231436046E+03 -0.23673684054E+03 -0.21769929512E+04  0.22483099381E+04  0.85060094492E+02 0.  0.
         11    1    3    3    0    0  0.43252013088E+03 -0.17871707759E+03 -0.17290196768E+04  0.17912349093E+04  0.00000000000E+00 0. -1.
        -11    1    3    3    0    0  0.69794229575E+02 -0.58019762948E+02 -0.44797327444E+03  0.45707502884E+03  0.00000000000E+00 0.  1.
         22    1    1    2    0    0 -0.50231436046E+03  0.23673684054E+03  0.53589698196E+03  0.77171861690E+03  0.00000000000E+00 0. -1.
<mgrwt>
<rscale>  0 0.25352271E+04</rscale>
<asrwt>0</asrwt>
<pdfrwt beam="1">  1        2 0.35854803E+00 0.25352271E+04</pdfrwt>
<pdfrwt beam="2">  1       -2 0.10607174E+00 0.25352271E+04</pdfrwt>
<totfact> 0.27782447E+00</totfact>
</mgrwt>
</event>
<event>
 6    1  0.5196787E-004  0.1528370E+04  0.7818608E-02  0.8865803E-01
          2   -1    0    0  501    0  0.00000000000E+00  0.00000000000E+00  0.81143449495E+03  0.81143449495E+03  0.00000000000E+00 0.  1.
         -2   -1    0    0    0  501 -0.00000000000E+00 -0.00000000000E+00 -0.71968702039E+03  0.71968702039E+03  0.00000000000E+00 0. -1.
         23    2    1    2    0    0  0.46245624256E+03 -0.21966252334E+03  0.61067777844E+03  0.80214547957E+03  0.91611248592E+02 0.  0.
         13    1    3    3    0    0  0.21306252347E+03 -0.82935531978E+02  0.33849998758E+03  0.40848033363E+03  0.00000000000E+00 0.  1.
        -13    1    3    3    0    0  0.24939371909E+03 -0.13672699136E+03  0.27217779086E+03  0.39366514594E+03  0.00000000000E+00 0. -1.
         22    1    1    2    0    0 -0.46245624256E+03  0.21966252334E+03 -0.51893030387E+03  0.72897603577E+03  0.00000000000E+00 0. -1.
<mgrwt>
<rscale>  0 0.15283702E+04</rscale>
<asrwt>0</asrwt>
<pdfrwt beam="1">  1        2 0.12483608E+00 0.15283702E+04</pdfrwt>
<pdfrwt beam="2">  1       -2 0.11072108E+00 0.15283702E+04</pdfrwt>
<totfact> 0.21075219E+01</totfact>
</mgrwt>
</event>
<event>
 6    1  0.5196787E-004  0.2596676E+04  0.7818608E-02  0.8369331E-01
          2   -1    0    0  501    0  0.00000000000E+00  0.00000000000E+00  0.28706357803E+04  0.28706357803E+04  0.00000000000E+00 0.  1.
         -2   -1    0    0    0  501 -0.00000000000E+00 -0.00000000000E+00 -0.58721537814E+03  0.58721537814E+03  0.00000000000E+00 0. -1.
         23    2    1    2    0    0  0.41745021012E+03 -0.93090919928E+03  0.77273303682E+02  0.10272253881E+04  0.91456105843E+02 0.  0.
         13    1    3    3    0    0  0.14663523116E+03 -0.22928389316E+03  0.15047719492E+02  0.27257921517E+03  0.00000000000E+00 0. -1.
        -13    1    3    3    0    0  0.27081497896E+03 -0.70162530612E+03  0.62225584190E+02  0.75464617294E+03  0.00000000000E+00 0.  1.
         22    1    1    2    0    0 -0.41745021012E+03  0.93090919928E+03  0.22061470985E+04  0.24306257703E+04  0.00000000000E+00 0.  1.
<mgrwt>
<rscale>  0 0.25966759E+04</rscale>
<asrwt>0</asrwt>
<pdfrwt beam="1">  1        2 0.44163627E+00 0.25966759E+04</pdfrwt>
<pdfrwt beam="2">  1       -2 0.90340829E-01 0.25966759E+04</pdfrwt>
<totfact> 0.19409516E+00</totfact>
</mgrwt>
</event>
<event>
 6    1  0.5196787E-004  0.1826699E+04  0.7818608E-02  0.8692229E-01
          2   -1    0    0  501    0  0.00000000000E+00  0.00000000000E+00  0.23545625934E+04  0.23545625934E+04  0.00000000000E+00 0.  1.
         -2   -1    0    0    0  501 -0.00000000000E+00 -0.00000000000E+00 -0.35429406750E+03  0.35429406750E+03  0.00000000000E+00 0. -1.
         23    2    1    2    0    0  0.43337443729E+03  0.65262704913E+03  0.16925142144E+04  0.18671630205E+04  0.89207122542E+02 0.  0.
         13    1    3    3    0    0  0.25553445400E+03  0.31572777489E+03  0.81892909903E+03  0.91412622447E+03  0.00000000000E+00 0. -1.
        -13    1    3    3    0    0  0.17783998330E+03  0.33689927424E+03  0.87358511540E+03  0.95303679598E+03  0.00000000000E+00 0.  1.
         22    1    1    2    0    0 -0.43337443729E+03 -0.65262704913E+03  0.30775431148E+03  0.84169364046E+03  0.00000000000E+00 0. -1.
<mgrwt>
<rscale>  0 0.18266993E+04</rscale>
<asrwt>0</asrwt>
<pdfrwt beam="1">  1        2 0.36224039E+00 0.18266993E+04</pdfrwt>
<pdfrwt beam="2">  1       -2 0.54506781E-01 0.18266993E+04</pdfrwt>
<totfact> 0.12603141E+01</totfact>
</mgrwt>
</event>
<event>
 6    1  0.5196787E-004  0.1381807E+04  0.7818608E-02  0.8967094E-01
         -2   -1    0    0    0  501 -0.00000000000E+00  0.00000000000E+00  0.47348029165E+03  0.47348029165E+03  0.00000000000E+00 0. -1.
          2   -1    0    0  501    0  0.00000000000E+00 -0.00000000000E+00 -0.10081684492E+04  0.10081684492E+04  0.00000000000E+00 0.  1.
         23    2    1    2    0    0 -0.23738308893E+03 -0.11044187921E+02 -0.96078520329E+03  0.99376412602E+03  0.89365688637E+02 0.  0.
         11    1    3    3    0    0 -0.14189516051E+03 -0.33945213342E+02 -0.43293620330E+03  0.45685913607E+03  0.00000000000E+00 0.  1.
        -11    1    3    3    0    0 -0.95487928416E+02  0.22901025421E+02 -0.52784900000E+03  0.53690498995E+03  0.00000000000E+00 0. -1.
         22    1    1    2    0    0  0.23738308893E+03  0.11044187921E+02  0.42609704574E+03  0.48788461483E+03  0.00000000000E+00 0. -1.
<mgrwt>
<rscale>  0 0.13818074E+04</rscale>
<asrwt>0</asrwt>
<pdfrwt beam="1">  1        2 0.15510284E+00 0.13818074E+04</pdfrwt>
<pdfrwt beam="2">  1       -2 0.72843123E-01 0.13818074E+04</pdfrwt>
<totfact> 0.41320532E+01</totfact>
</mgrwt>
</event>
<event>
 6    1  0.5196787E-004  0.8137134E+03  0.7818608E-02  0.9540377E-01
          2   -1    0    0  501    0  0.00000000000E+00  0.00000000000E+00  0.12018412891E+04  0.12018412891E+04  0.00000000000E+00 0.  1.
         -2   -1    0    0    0  501 -0.00000000000E+00 -0.00000000000E+00 -0.13773232108E+03  0.13773232108E+03  0.00000000000E+00 0. -1.
         23    2    1    2    0    0 -0.23761532741E+03  0.28187040121E+03  0.80095415236E+03  0.88662502158E+03  0.93082800836E+02 0.  0.
         13    1    3    3    0    0 -0.10745715258E+03  0.15481346776E+03  0.30678075772E+03  0.36003983495E+03  0.00000000000E+00 0. -1.
        -13    1    3    3    0    0 -0.13015817484E+03  0.12705693344E+03  0.49417339463E+03  0.52658518663E+03  0.00000000000E+00 0.  1.
         22    1    1    2    0    0  0.23761532741E+03 -0.28187040121E+03  0.26315481562E+03  0.45294858857E+03  0.00000000000E+00 0. -1.
<mgrwt>
<rscale>  0 0.81371344E+03</rscale>
<asrwt>0</asrwt>
<pdfrwt beam="1">  1        2 0.18489865E+00 0.81371344E+03</pdfrwt>
<pdfrwt beam="2">  1       -2 0.21189589E-01 0.81371344E+03</pdfrwt>
<totfact> 0.36611752E+02</totfact>
</mgrwt>
</event>
<event>
 6    1  0.5196787E-004  0.1993265E+04  0.7818608E-02  0.8609776E-01
         -2   -1    0    0    0  501 -0.00000000000E+00  0.00000000000E+00  0.65385659087E+03  0.65385659087E+03  0.00000000000E+00 0. -1.
          2   -1    0    0  501    0  0.00000000000E+00 -0.00000000000E+00 -0.15191042166E+04  0.15191042166E+04  0.00000000000E+00 0.  1.
         23    2    1    2    0    0  0.43118667511E+02  0.63341354361E+03 -0.12681516724E+04  0.14210275607E+04  0.89658950139E+02 0.  0.
         13    1    3    3    0    0  0.51170364566E+02  0.39468102392E+03 -0.87019108657E+03  0.95688246092E+03  0.00000000000E+00 0.  1.
        -13    1    3    3    0    0 -0.80516970549E+01  0.23873251969E+03 -0.39796058581E+03  0.46414509977E+03  0.00000000000E+00 0. -1.
         22    1    1    2    0    0 -0.43118667511E+02 -0.63341354361E+03  0.40290404669E+03  0.75193324675E+03  0.00000000000E+00 0. -1.
<mgrwt>
<rscale>  0 0.19932650E+04</rscale>
<asrwt>0</asrwt>
<pdfrwt beam="1">  1        2 0.23370834E+00 0.19932650E+04</pdfrwt>
<pdfrwt beam="2">  1       -2 0.10059332E+00 0.19932650E+04</pdfrwt>
<totfact> 0.93757894E+00</totfact>
</mgrwt>
</event>
<event>
 6    1  0.5196787E-004  0.3062301E+04  0.7818608E-02  0.8226161E-01
         -2   -1    0    0    0  501 -0.00000000000E+00  0.00000000000E+00  0.12052371886E+04  0.12052371886E+04  0.00000000000E+00 0. -1.
          2   -1    0    0  501    0  0.00000000000E+00 -0.00000000000E+00 -0.19451948034E+04  0.19451948034E+04  0.00000000000E+00 0.  1.
         23    2    1    2    0    0 -0.66086111170E+03  0.13594904498E+04 -0.61638787363E+03  0.16337839864E+04  0.66063690950E+02 0.  0.
         13    1    3    3    0    0 -0.48546435920E+03  0.10103438591E+04 -0.48754010697E+03  0.12223607134E+04  0.00000000000E+00 0. -1.
        -13    1    3    3    0    0 -0.17539675250E+03  0.34914659072E+03 -0.12884776666E+03  0.41142327301E+03  0.00000000000E+00 0.  1.
         22    1    1    2    0    0  0.66086111170E+03 -0.13594904498E+04 -0.12356974122E+03  0.15166480057E+04  0.00000000000E+00 0. -1.
<mgrwt>
<rscale>  0 0.30623005E+04</rscale>
<asrwt>0</asrwt>
<pdfrwt beam="1">  1        2 0.29926073E+00 0.30623005E+04</pdfrwt>
<pdfrwt beam="2">  1       -2 0.18542111E+00 0.30623005E+04</pdfrwt>
<totfact> 0.10160643E+00</totfact>
</mgrwt>
</event>
<event>
 6    1  0.5196787E-004  0.1020090E+04  0.7818608E-02  0.9286781E-01
         -2   -1    0    0    0  501 -0.00000000000E+00  0.00000000000E+00  0.16612192577E+03  0.16612192577E+03  0.00000000000E+00 0. -1.
          2   -1    0    0  501    0  0.00000000000E+00 -0.00000000000E+00 -0.15659928668E+04  0.15659928668E+04  0.00000000000E+00 0.  1.
         23    2    1    2    0    0 -0.43467427577E+03  0.11664905895E+03 -0.31293947927E+03  0.55569278855E+03  0.91184585242E+02 0.  0.
         11    1    3    3    0    0 -0.10230751388E+03  0.67000694962E+02 -0.68814142804E+02  0.14032571671E+03  0.00000000000E+00 0. -1.
        -11    1    3    3    0    0 -0.33236676189E+03  0.49648363985E+02 -0.24412533647E+03  0.41536707183E+03  0.00000000000E+00 0.  1.
         22    1    1    2    0    0  0.43467427577E+03 -0.11664905895E+03 -0.10869314617E+04  0.11764220040E+04  0.00000000000E+00 0.  1.
<mgrwt>
<rscale>  0 0.10200897E+04</rscale>
<asrwt>0</asrwt>
<pdfrwt beam="1">  1        2 0.24092198E+00 0.10200897E+04</pdfrwt>
<pdfrwt beam="2">  1       -2 0.25557220E-01 0.10200897E+04</pdfrwt>
<totfact> 0.16008178E+02</totfact>
</mgrwt>
</event>
<event>
 6    1  0.5196787E-004  0.2811841E+04  0.7818608E-02  0.8299602E-01
          2   -1    0    0  501    0  0.00000000000E+00  0.00000000000E+00  0.15439242452E+04  0.15439242452E+04  0.00000000000E+00 0. -1.
         -2   -1    0    0    0  501 -0.00000000000E+00 -0.00000000000E+00 -0.12802519758E+04  0.12802519758E+04  0.00000000000E+00 0.  1.
         23    2    1    2    0    0  0.38751635837E+03 -0.91283301193E+03 -0.86691435794E+03  0.13202948567E+04  0.90581284283E+02 0.  0.
         13    1    3    3    0    0  0.23454509857E+03 -0.45277628544E+03 -0.47493779553E+03  0.69683834391E+03  0.00000000000E+00 0. -1.
        -13    1    3    3    0    0  0.15297125980E+03 -0.46005672650E+03 -0.39197656241E+03  0.62345651284E+03  0.00000000000E+00 0.  1.
         22    1    1    2    0    0 -0.38751635837E+03  0.91283301193E+03  0.11305866273E+04  0.15038813642E+04  0.00000000000E+00 0. -1.
<mgrwt>
<rscale>  0 0.28118407E+04</rscale>
<asrwt>0</asrwt>
<pdfrwt beam="1">  1        2 0.23752681E+00 0.28118407E+04</pdfrwt>
<pdfrwt beam="2">  1       -2 0.19696184E+00 0.28118407E+04</pdfrwt>
<totfact> 0.14519110E+00</totfact>
</mgrwt>
</event>
<event>
 6    1  0.5196787E-004  0.7907214E+03  0.7818608E-02  0.9573545E-01
         -2   -1    0    0    0  501 -0.00000000000E+00  0.00000000000E+00  0.21185051744E+03  0.21185051744E+03  0.00000000000E+00 0. -1.
          2   -1    0    0  501    0  0.00000000000E+00 -0.00000000000E+00 -0.73783195683E+03  0.73783195683E+03  0.00000000000E+00 0.  1.
         23    2    1    2    0    0  0.60912366862E+02 -0.26837620334E+03 -0.59841678984E+03  0.66510738234E+03  0.92352978923E+02 0.  0.
         13    1    3    3    0    0 -0.28668170406E+01 -0.42548213345E+02 -0.36396921217E+02  0.56065185033E+02  0.00000000000E+00 0.  1.
        -13    1    3    3    0    0  0.63779183902E+02 -0.22582799000E+03 -0.56201986863E+03  0.60904219730E+03  0.00000000000E+00 0. -1.
         22    1    1    2    0    0 -0.60912366862E+02  0.26837620334E+03  0.72435350457E+02  0.28457509194E+03  0.00000000000E+00 0. -1.
<mgrwt>
<rscale>  0 0.79072140E+03</rscale>
<asrwt>0</asrwt>
<pdfrwt beam="1">  1        2 0.11351261E+00 0.79072140E+03</pdfrwt>
<pdfrwt beam="2">  1       -2 0.32592387E-01 0.79072140E+03</pdfrwt>
<totfact> 0.33775779E+02</totfact>
</mgrwt>
</event>
<event>
 6    1  0.5196787E-004  0.1971904E+04  0.7818608E-02  0.8619870E-01
         -1   -1    0    0    0  501 -0.00000000000E+00  0.00000000000E+00  0.46360535487E+03  0.46360535487E+03  0.00000000000E+00 0. -1.
          1   -1    0    0  501    0  0.00000000000E+00 -0.00000000000E+00 -0.20968286844E+04  0.20968286844E+04  0.00000000000E+00 0.  1.
         23    2    1    2    0    0 -0.75823406567E+03 -0.19874863728E+02 -0.47261063862E+01  0.76396051751E+03  0.91101194711E+02 0.  0.
         13    1    3    3    0    0 -0.49373701573E+03 -0.44784994941E+02  0.26455722955E+02  0.49646937645E+03  0.00000000000E+00 0.  1.
        -13    1    3    3    0    0 -0.26449704995E+03  0.24910131213E+02 -0.31181829341E+02  0.26749114106E+03  0.00000000000E+00 0. -1.
         22    1    1    2    0    0  0.75823406567E+03  0.19874863728E+02 -0.16284972231E+04  0.17964735218E+04  0.00000000000E+00 0. -1.
<mgrwt>
<rscale>  0 0.19719037E+04</rscale>
<asrwt>0</asrwt>
<pdfrwt beam="1">  1        1 0.32258903E+00 0.19719037E+04</pdfrwt>
<pdfrwt beam="2">  1       -1 0.71323901E-01 0.19719037E+04</pdfrwt>
<totfact> 0.47275408E+00</totfact>
</mgrwt>
</event>
<event>
 6    1  0.5196787E-004  0.1889033E+04  0.7818608E-02  0.8660335E-01
         -2   -1    0    0    0  501 -0.00000000000E+00  0.00000000000E+00  0.34871407558E+03  0.34871407558E+03  0.00000000000E+00 0. -1.
          2   -1    0    0  501    0  0.00000000000E+00 -0.00000000000E+00 -0.25582878629E+04  0.25582878629E+04  0.00000000000E+00 0.  1.
         23    2    1    2    0    0 -0.19986446465E+03  0.57103959908E+03  0.46072495482E+01  0.61165235900E+03  0.89807313574E+02 0.  0.
         13    1    3    3    0    0 -0.29349604464E+02  0.37770730967E+02  0.19331056478E+02  0.51591832149E+02  0.00000000000E+00 0. -1.
        -13    1    3    3    0    0 -0.17051486019E+03  0.53326886812E+03 -0.14723806929E+02  0.56006052685E+03  0.00000000000E+00 0.  1.
         22    1    1    2    0    0  0.19986446465E+03 -0.57103959908E+03 -0.22141810368E+04  0.22953495794E+04  0.00000000000E+00 0.  1.
<mgrwt>
<rscale>  0 0.18890325E+04</rscale>
<asrwt>0</asrwt>
<pdfrwt beam="1">  1        2 0.39358276E+00 0.18890325E+04</pdfrwt>
<pdfrwt beam="2">  1       -2 0.53648318E-01 0.18890325E+04</pdfrwt>
<totfact> 0.98904202E+00</totfact>
</mgrwt>
</event>
<event>
 6    1  0.5196787E-004  0.1708876E+04  0.7818608E-02  0.8756318E-01
         -2   -1    0    0    0  501 -0.00000000000E+00  0.00000000000E+00  0.45998270069E+03  0.45998270069E+03  0.00000000000E+00 0. -1.
          2   -1    0    0  501    0  0.00000000000E+00 -0.00000000000E+00 -0.15871562345E+04  0.15871562345E+04  0.00000000000E+00 0.  1.
         23    2    1    2    0    0  0.24244964137E+03  0.11208811983E+03  0.40425796542E+03  0.49258819235E+03  0.88730205835E+02 0.  0.
         13    1    3    3    0    0  0.18058361924E+03  0.12278689719E+03  0.30427192899E+03  0.37452432822E+03  0.00000000000E+00 0.  1.
        -13    1    3    3    0    0  0.61866022129E+02 -0.10698777360E+02  0.99986036432E+02  0.11806386413E+03  0.00000000000E+00 0. -1.
         22    1    1    2    0    0 -0.24244964137E+03 -0.11208811983E+03 -0.15314314992E+04  0.15545507428E+04  0.00000000000E+00 0.  1.
<mgrwt>
<rscale>  0 0.17088761E+04</rscale>
<asrwt>0</asrwt>
<pdfrwt beam="1">  1        2 0.24417789E+00 0.17088761E+04</pdfrwt>
<pdfrwt beam="2">  1       -2 0.70766568E-01 0.17088761E+04</pdfrwt>
<totfact> 0.19567878E+01</totfact>
</mgrwt>
</event>
<event>
 6    1  0.5196787E-004  0.3283404E+04  0.7818608E-02  0.8167131E-01
         -2   -1    0    0    0  501 -0.00000000000E+00  0.00000000000E+00  0.70357408791E+03  0.70357408791E+03  0.00000000000E+00 0. -1.
          2   -1    0    0  501    0  0.00000000000E+00 -0.00000000000E+00 -0.38307054092E+04  0.38307054092E+04  0.00000000000E+00 0.  1.
         23    2    1    2    0    0  0.80770915042E+03  0.41135887376E+02  0.40616081180E+03  0.90960854230E+03  0.91295466868E+02 0.  0.
         13    1    3    3    0    0  0.59553654362E+03  0.38606467209E+02  0.25446660659E+03  0.64877383422E+03  0.00000000000E+00 0.  1.
        -13    1    3    3    0    0  0.21217260680E+03  0.25294201669E+01  0.15169420521E+03  0.26083470808E+03  0.00000000000E+00 0. -1.
         22    1    1    2    0    0 -0.80770915042E+03 -0.41135887376E+02 -0.35332921331E+04  0.36246709548E+04  0.00000000000E+00 0.  1.
<mgrwt>
<rscale>  0 0.32834038E+04</rscale>
<asrwt>0</asrwt>
<pdfrwt beam="1">  1        2 0.58933930E+00 0.32834038E+04</pdfrwt>
<pdfrwt beam="2">  1       -2 0.10824217E+00 0.32834038E+04</pdfrwt>
<totfact> 0.26534677E-01</totfact>
</mgrwt>
</event>
<event>
 6    1  0.5196787E-004  0.1550076E+04  0.7818608E-02  0.8851819E-01
         -2   -1    0    0    0  501 -0.00000000000E+00  0.00000000000E+00  0.40824282942E+03  0.40824282942E+03  0.00000000000E+00 0. -1.
          2   -1    0    0  501    0  0.00000000000E+00 -0.00000000000E+00 -0.14713883036E+04  0.14713883036E+04  0.00000000000E+00 0.  1.
         23    2    1    2    0    0  0.68366253869E+03  0.10669574886E+03 -0.94891857104E+03  0.11783278926E+04  0.96081831640E+02 0.  0.
         11    1    3    3    0    0  0.58514146539E+03  0.11945634623E+03 -0.84304887034E+03  0.10331465293E+04  0.00000000000E+00 0. -1.
        -11    1    3    3    0    0  0.98521073294E+02 -0.12760597369E+02 -0.10586970071E+03  0.14518136332E+03  0.00000000000E+00 0.  1.
         22    1    1    2    0    0 -0.68366253869E+03 -0.10669574886E+03 -0.11422690315E+03  0.70130324043E+03  0.00000000000E+00 0. -1.
<mgrwt>
<rscale>  0 0.15500758E+04</rscale>
<asrwt>0</asrwt>
<pdfrwt beam="1">  1        2 0.22636743E+00 0.15500758E+04</pdfrwt>
<pdfrwt beam="2">  1       -2 0.62806589E-01 0.15500758E+04</pdfrwt>
<totfact> 0.29801477E+01</totfact>
</mgrwt>
</event>
<event>
 6    1  0.5196787E-004  0.3390750E+04  0.7818608E-02  0.8140180E-01
         -2   -1    0    0    0  501 -0.00000000000E+00  0.00000000000E+00  0.12824055492E+04  0.12824055492E+04  0.00000000000E+00 0. -1.
          2   -1    0    0  501    0  0.00000000000E+00 -0.00000000000E+00 -0.22413322732E+04  0.22413322732E+04  0.00000000000E+00 0.  1.
         23    2    1    2    0    0 -0.74425906329E+02  0.51791702620E+03 -0.21543977793E+04  0.22187748706E+04  0.88061757559E+02 0.  0.
         11    1    3    3    0    0  0.27393060133E+01  0.16614216985E+03 -0.55550577377E+03  0.57982530912E+03  0.00000000000E+00 0.  1.
        -11    1    3    3    0    0 -0.77165212343E+02  0.35177485635E+03 -0.15988920056E+04  0.16389495615E+04  0.00000000000E+00 0. -1.
         22    1    1    2    0    0  0.74425906329E+02 -0.51791702620E+03  0.11954710553E+04  0.13049629518E+04  0.00000000000E+00 0. -1.
<mgrwt>
<rscale>  0 0.33907503E+04</rscale>
<asrwt>0</asrwt>
<pdfrwt beam="1">  1        2 0.34482035E+00 0.33907503E+04</pdfrwt>
<pdfrwt beam="2">  1       -2 0.19729316E+00 0.33907503E+04</pdfrwt>
<totfact> 0.56227808E-01</totfact>
</mgrwt>
</event>
<event>
 6    1  0.5196787E-004  0.3622440E+04  0.7818608E-02  0.8085371E-01
         -2   -1    0    0    0  501 -0.00000000000E+00  0.00000000000E+00  0.11948573101E+04  0.11948573101E+04  0.00000000000E+00 0. -1.
          2   -1    0    0  501    0  0.00000000000E+00 -0.00000000000E+00 -0.27455309439E+04  0.27455309439E+04  0.00000000000E+00 0.  1.
         23    2    1    2    0    0  0.43858383692E+03 -0.21753343516E+03 -0.26713828490E+04  0.27174141241E+04  0.91523865827E+02 0.  0.
         11    1    3    3    0    0  0.38390921804E+02 -0.44943777701E+02 -0.43102355452E+03  0.43505759456E+03  0.00000000000E+00 0. -1.
        -11    1    3    3    0    0  0.40019291512E+03 -0.17258965746E+03 -0.22403592945E+04  0.22823565295E+04  0.00000000000E+00 0.  1.
         22    1    1    2    0    0 -0.43858383692E+03  0.21753343516E+03  0.11207092152E+04  0.12229741299E+04  0.00000000000E+00 0. -1.
<mgrwt>
<rscale>  0 0.36224399E+04</rscale>
<asrwt>0</asrwt>
<pdfrwt beam="1">  1        2 0.42238938E+00 0.36224399E+04</pdfrwt>
<pdfrwt beam="2">  1       -2 0.18382420E+00 0.36224399E+04</pdfrwt>
<totfact> 0.34619526E-01</totfact>
</mgrwt>
</event>
<event>
 6    1  0.5611444E-004  0.3075408E+04  0.7818608E-02  0.8222520E-01
         -2   -1    0    0    0  501 -0.00000000000E+00  0.00000000000E+00  0.11316962573E+04  0.11316962573E+04  0.00000000000E+00 0.  1.
          2   -1    0    0  501    0  0.00000000000E+00 -0.00000000000E+00 -0.20893706080E+04  0.20893706080E+04  0.00000000000E+00 0. -1.
         23    2    1    2    0    0 -0.87046812801E+03 -0.10503249811E+04 -0.12188369256E+04  0.18321452627E+04  0.10146666784E+03 0.  0.
         13    1    3    3    0    0 -0.59800317115E+03 -0.72733007912E+03 -0.77734511254E+03  0.12210168962E+04  0.00000000000E+00 0.  1.
        -13    1    3    3    0    0 -0.27246495686E+03 -0.32299490198E+03 -0.44149181304E+03  0.61112836655E+03  0.00000000000E+00 0. -1.
         22    1    1    2    0    0  0.87046812801E+03  0.10503249811E+04  0.26116257485E+03  0.13889216027E+04  0.00000000000E+00 0.  1.
<mgrwt>
<rscale>  0 0.30754075E+04</rscale>
<asrwt>0</asrwt>
<pdfrwt beam="1">  1        2 0.32144163E+00 0.30754075E+04</pdfrwt>
<pdfrwt beam="2">  1       -2 0.17410712E+00 0.30754075E+04</pdfrwt>
<totfact> 0.10102469E+00</totfact>
</mgrwt>
</event>
<event>
 6    1  0.5196787E-004  0.2068645E+04  0.7818608E-02  0.8575182E-01
          2   -1    0    0  501    0  0.00000000000E+00  0.00000000000E+00  0.87131465276E+03  0.87131465276E+03  0.00000000000E+00 0.  1.
         -2   -1    0    0    0  501 -0.00000000000E+00 -0.00000000000E+00 -0.12278267716E+04  0.12278267716E+04  0.00000000000E+00 0. -1.
         23    2    1    2    0    0 -0.72202745821E+03 -0.72981072131E+03 -0.28886100848E+03  0.10702954630E+04  0.90246089247E+02 0.  0.
         13    1    3    3    0    0 -0.10491583072E+03 -0.13223255053E+03 -0.18924953670E+02  0.16985562348E+03  0.00000000000E+00 0. -1.
        -13    1    3    3    0    0 -0.61711162749E+03 -0.59757817078E+03 -0.26993605481E+03  0.90043983956E+03  0.00000000000E+00 0.  1.
         22    1    1    2    0    0  0.72202745821E+03  0.72981072131E+03 -0.67651110337E+02  0.10288459613E+04  0.00000000000E+00 0.  1.
<mgrwt>
<rscale>  0 0.20686454E+04</rscale>
<asrwt>0</asrwt>
<pdfrwt beam="1">  1        2 0.13404841E+00 0.20686454E+04</pdfrwt>
<pdfrwt beam="2">  1       -2 0.18889643E+00 0.20686454E+04</pdfrwt>
<totfact> 0.44668489E+00</totfact>
</mgrwt>
</event>
<event>
 6    1  0.5196787E-004  0.1851447E+04  0.7818608E-02  0.8679409E-01
          2   -1    0    0  501    0  0.00000000000E+00  0.00000000000E+00  0.19106110888E+04  0.19106110888E+04  0.00000000000E+00 0.  1.
         -2   -1    0    0    0  501 -0.00000000000E+00 -0.00000000000E+00 -0.44852889661E+03  0.44852889661E+03  0.00000000000E+00 0. -1.
         23    2    1    2    0    0  0.91574543394E+03  0.10899660231E+03  0.71269149670E+03  0.11708402027E+04  0.11165863920E+03 0.  0.
         11    1    3    3    0    0  0.39131638674E+03  0.10049720346E+03  0.29246240394E+03  0.49876092484E+03  0.00000000000E+00 0.  1.
        -11    1    3    3    0    0  0.52442904720E+03  0.84993988489E+01  0.42022909276E+03  0.67207927786E+03  0.00000000000E+00 0. -1.
         22    1    1    2    0    0 -0.91574543394E+03 -0.10899660231E+03  0.74939069548E+03  0.11882997827E+04  0.00000000000E+00 0. -1.
<mgrwt>
<rscale>  0 0.18514473E+04</rscale>
<asrwt>0</asrwt>
<pdfrwt beam="1">  1        2 0.29394016E+00 0.18514473E+04</pdfrwt>
<pdfrwt beam="2">  1       -2 0.69004447E-01 0.18514473E+04</pdfrwt>
<totfact> 0.13507317E+01</totfact>
</mgrwt>
</event>
<event>
 6    1  0.5196787E-004  0.2756048E+04  0.7818608E-02  0.8317045E-01
         -2   -1    0    0    0  501 -0.00000000000E+00  0.00000000000E+00  0.65308186003E+03  0.65308186003E+03  0.00000000000E+00 0.  1.
          2   -1    0    0  501    0  0.00000000000E+00 -0.00000000000E+00 -0.29076753991E+04  0.29076753991E+04  0.00000000000E+00 0. -1.
         23    2    1    2    0    0  0.64503588986E+03  0.74327395486E+03 -0.23720038310E+04  0.25696403902E+04  0.90122635876E+02 0.  0.
         13    1    3    3    0    0  0.20619700012E+03  0.28553632561E+03 -0.77132285368E+03  0.84793109431E+03  0.00000000000E+00 0. -1.
        -13    1    3    3    0    0  0.43883888974E+03  0.45773762925E+03 -0.16006809774E+04  0.17217092959E+04  0.00000000000E+00 0.  1.
         22    1    1    2    0    0 -0.64503588986E+03 -0.74327395486E+03  0.11741029196E+03  0.99111686891E+03  0.00000000000E+00 0.  1.
<mgrwt>
<rscale>  0 0.27560479E+04</rscale>
<asrwt>0</asrwt>
<pdfrwt beam="1">  1        2 0.44733467E+00 0.27560479E+04</pdfrwt>
<pdfrwt beam="2">  1       -2 0.10047413E+00 0.27560479E+04</pdfrwt>
<totfact> 0.14169883E+00</totfact>
</mgrwt>
</event>
<event>
 6    1  0.5196787E-004  0.2613417E+04  0.7818608E-02  0.8363658E-01
         -2   -1    0    0    0  501 -0.00000000000E+00  0.00000000000E+00  0.94856937962E+03  0.94856937962E+03  0.00000000000E+00 0. -1.
          2   -1    0    0  501    0  0.00000000000E+00 -0.00000000000E+00 -0.18000654840E+04  0.18000654840E+04  0.00000000000E+00 0.  1.
         23    2    1    2    0    0  0.79354843322E+03  0.10350196764E+04 -0.47737149985E+03  0.13918172392E+04  0.91032038391E+02 0.  0.
         11    1    3    3    0    0  0.54199550914E+03  0.70669250292E+03 -0.28044129814E+03  0.93371341820E+03  0.00000000000E+00 0. -1.
        -11    1    3    3    0    0  0.25155292407E+03  0.32832717346E+03 -0.19693020171E+03  0.45810382096E+03  0.00000000000E+00 0.  1.
         22    1    1    2    0    0 -0.79354843322E+03 -0.10350196764E+04 -0.37412460455E+03  0.13568176245E+04  0.00000000000E+00 0. -1.
<mgrwt>
<rscale>  0 0.26134169E+04</rscale>
<asrwt>0</asrwt>
<pdfrwt beam="1">  1        2 0.27693315E+00 0.26134169E+04</pdfrwt>
<pdfrwt beam="2">  1       -2 0.14593375E+00 0.26134169E+04</pdfrwt>
<totfact> 0.24565947E+00</totfact>
</mgrwt>
</event>
<event>
 6    1  0.5196787E-004  0.1354326E+04  0.7818608E-02  0.8987560E-01
         -2   -1    0    0    0  501 -0.00000000000E+00  0.00000000000E+00  0.38795558255E+03  0.38795558255E+03  0.00000000000E+00 0. -1.
          2   -1    0    0  501    0  0.00000000000E+00 -0.00000000000E+00 -0.11819645892E+04  0.11819645892E+04  0.00000000000E+00 0.  1.
         23    2    1    2    0    0 -0.37492404923E+03  0.21495616910E+03 -0.99853189731E+03  0.10917948638E+04  0.90420558176E+02 0.  0.
         11    1    3    3    0    0 -0.12727074435E+03  0.25708463796E+02 -0.29099252272E+03  0.31864622351E+03  0.00000000000E+00 0. -1.
        -11    1    3    3    0    0 -0.24765330488E+03  0.18924770531E+03 -0.70753937458E+03  0.77314864028E+03  0.00000000000E+00 0.  1.
         22    1    1    2    0    0  0.37492404923E+03 -0.21495616910E+03  0.20452289064E+03  0.47812530797E+03  0.00000000000E+00 0. -1.
<mgrwt>
<rscale>  0 0.13543260E+04</rscale>
<asrwt>0</asrwt>
<pdfrwt beam="1">  1        2 0.18184070E+00 0.13543260E+04</pdfrwt>
<pdfrwt beam="2">  1       -2 0.59685475E-01 0.13543260E+04</pdfrwt>
<totfact> 0.49659379E+01</totfact>
</mgrwt>
</event>
<event>
 6    1  0.5196787E-004  0.2441455E+04  0.7818608E-02  0.8424144E-01
         -2   -1    0    0    0  501 -0.00000000000E+00  0.00000000000E+00  0.12081605717E+04  0.12081605717E+04  0.00000000000E+00 0. -1.
          2   -1    0    0  501    0  0.00000000000E+00 -0.00000000000E+00 -0.12334254503E+04  0.12334254503E+04  0.00000000000E+00 0.  1.
         23    2    1    2    0    0 -0.15268334487E+03  0.76050549331E+03  0.92825952560E+03  0.12124035300E+04  0.81091082032E+02 0.  0.
         13    1    3    3    0    0 -0.10239314335E+03  0.33987641021E+03  0.45843060546E+03  0.57979216107E+03  0.00000000000E+00 0. -1.
        -13    1    3    3    0    0 -0.50290201519E+02  0.42062908311E+03  0.46982892014E+03  0.63261136895E+03  0.00000000000E+00 0.  1.
         22    1    1    2    0    0  0.15268334487E+03 -0.76050549331E+03 -0.95352440421E+03  0.12291824920E+04  0.00000000000E+00 0.  1.
<mgrwt>
<rscale>  0 0.24414553E+04</rscale>
<asrwt>0</asrwt>
<pdfrwt beam="1">  1        2 0.18975776E+00 0.24414553E+04</pdfrwt>
<pdfrwt beam="2">  1       -2 0.18587086E+00 0.24414553E+04</pdfrwt>
<totfact> 0.26798409E+00</totfact>
</mgrwt>
</event>
<event>
 6    1  0.5196787E-004  0.2085653E+04  0.7818608E-02  0.8567590E-01
          2   -1    0    0  501    0  0.00000000000E+00  0.00000000000E+00  0.11045906680E+04  0.11045906680E+04  0.00000000000E+00 0. -1.
         -2   -1    0    0    0  501 -0.00000000000E+00 -0.00000000000E+00 -0.98451620709E+03  0.98451620709E+03  0.00000000000E+00 0.  1.
         23    2    1    2    0    0  0.31802592319E+03  0.78874948897E+03  0.66126315120E+03  0.10810635017E+04  0.90349849572E+02 0.  0.
         13    1    3    3    0    0  0.56967678698E+02  0.81295213088E+02  0.10110434725E+03  0.14169092109E+03  0.00000000000E+00 0. -1.
        -13    1    3    3    0    0  0.26105824449E+03  0.70745427588E+03  0.56015880395E+03  0.93937258057E+03  0.00000000000E+00 0.  1.
         22    1    1    2    0    0 -0.31802592319E+03 -0.78874948897E+03 -0.54118869031E+03  0.10080433734E+04  0.00000000000E+00 0.  1.
<mgrwt>
<rscale>  0 0.20856533E+04</rscale>
<asrwt>0</asrwt>
<pdfrwt beam="1">  1        2 0.16993703E+00 0.20856533E+04</pdfrwt>
<pdfrwt beam="2">  1       -2 0.15146403E+00 0.20856533E+04</pdfrwt>
<totfact> 0.58308040E+00</totfact>
</mgrwt>
</event>
<event>
 6    1  0.5196787E-004  0.2187894E+04  0.7818608E-02  0.8523484E-01
          2   -1    0    0  501    0  0.00000000000E+00  0.00000000000E+00  0.10538934402E+04  0.10538934402E+04  0.00000000000E+00 0.  1.
         -2   -1    0    0    0  501 -0.00000000000E+00 -0.00000000000E+00 -0.11355223858E+04  0.11355223858E+04  0.00000000000E+00 0. -1.
         23    2    1    2    0    0  0.68743642139E+03 -0.29090190805E+03  0.75631284572E+03  0.10672129927E+04  0.98700038611E+02 0.  0.
         11    1    3    3    0    0  0.14359852643E+03 -0.23698203465E+02  0.12097320687E+03  0.18925289541E+03  0.00000000000E+00 0.  1.
        -11    1    3    3    0    0  0.54383789497E+03 -0.26720370458E+03  0.63533963885E+03  0.87796009729E+03  0.00000000000E+00 0. -1.
         22    1    1    2    0    0 -0.68743642139E+03  0.29090190805E+03 -0.83794179133E+03  0.11222028334E+04  0.00000000000E+00 0. -1.
<mgrwt>
<rscale>  0 0.21878936E+04</rscale>
<asrwt>0</asrwt>
<pdfrwt beam="1">  1        2 0.16213745E+00 0.21878936E+04</pdfrwt>
<pdfrwt beam="2">  1       -2 0.17469575E+00 0.21878936E+04</pdfrwt>
<totfact> 0.42045216E+00</totfact>
</mgrwt>
</event>
<event>
 6    1  0.5196787E-004  0.1107830E+04  0.7818608E-02  0.9197593E-01
         -2   -1    0    0    0  501 -0.00000000000E+00  0.00000000000E+00  0.58316731081E+03  0.58316731081E+03  0.00000000000E+00 0. -1.
          2   -1    0    0  501    0  0.00000000000E+00 -0.00000000000E+00 -0.52613027318E+03  0.52613027318E+03  0.00000000000E+00 0.  1.
         23    2    1    2    0    0  0.43117984027E+03  0.23352136994E+03 -0.22118230528E+03  0.54551190872E+03  0.90627509703E+02 0.  0.
         13    1    3    3    0    0  0.27660727637E+03  0.11086948113E+03 -0.16362720422E+03  0.33996689419E+03  0.00000000000E+00 0.  1.
        -13    1    3    3    0    0  0.15457256390E+03  0.12265188881E+03 -0.57555101054E+02  0.20554501453E+03  0.00000000000E+00 0. -1.
         22    1    1    2    0    0 -0.43117984027E+03 -0.23352136994E+03  0.27821934291E+03  0.56378567527E+03  0.00000000000E+00 0. -1.
<mgrwt>
<rscale>  0 0.11078303E+04</rscale>
<asrwt>0</asrwt>
<pdfrwt beam="1">  1        2 0.80943119E-01 0.11078303E+04</pdfrwt>
<pdfrwt beam="2">  1       -2 0.89718048E-01 0.11078303E+04</pdfrwt>
<totfact> 0.61317598E+01</totfact>
</mgrwt>
</event>
<event>
 6    1  0.5196787E-004  0.7234594E+03  0.7818608E-02  0.9677934E-01
         -2   -1    0    0    0  501 -0.00000000000E+00  0.00000000000E+00  0.35282396727E+03  0.35282396727E+03  0.00000000000E+00 0. -1.
          2   -1    0    0  501    0  0.00000000000E+00 -0.00000000000E+00 -0.37086025671E+03  0.37086025671E+03  0.00000000000E+00 0.  1.
         23    2    1    2    0    0 -0.10875048975E+03  0.13331264040E+03 -0.32081832550E+03  0.37543734249E+03  0.91814329212E+02 0.  0.
         13    1    3    3    0    0 -0.55311692367E+02  0.60323972315E+02 -0.24197106371E+03  0.25543758655E+03  0.00000000000E+00 0. -1.
        -13    1    3    3    0    0 -0.53438797383E+02  0.72988668086E+02 -0.78847261789E+02  0.11999975594E+03  0.00000000000E+00 0.  1.
         22    1    1    2    0    0  0.10875048975E+03 -0.13331264040E+03  0.30278203605E+03  0.34824688149E+03  0.00000000000E+00 0. -1.
<mgrwt>
<rscale>  0 0.72345943E+03</rscale>
<asrwt>0</asrwt>
<pdfrwt beam="1">  1        2 0.57055425E-01 0.72345943E+03</pdfrwt>
<pdfrwt beam="2">  1       -2 0.54280610E-01 0.72345943E+03</pdfrwt>
<totfact> 0.27922874E+02</totfact>
</mgrwt>
</event>
<event>
 6    1  0.5196787E-004  0.2956214E+04  0.7818608E-02  0.8256346E-01
          1   -1    0    0  501    0  0.00000000000E+00  0.00000000000E+00  0.18481934460E+04  0.18481934460E+04  0.00000000000E+00 0.  1.
         -1   -1    0    0    0  501 -0.00000000000E+00 -0.00000000000E+00 -0.11821275585E+04  0.11821275585E+04  0.00000000000E+00 0. -1.
         23    2    1    2    0    0  0.89407790959E+03 -0.11249618764E+04  0.68217018640E+03  0.15932497189E+04  0.90410020362E+02 0.  0.
         13    1    3    3    0    0  0.50772252625E+03 -0.66917197991E+03  0.35376863389E+03  0.91144146750E+03  0.00000000000E+00 0.  1.
        -13    1    3    3    0    0  0.38635538334E+03 -0.45578989647E+03  0.32840155250E+03  0.68180825138E+03  0.00000000000E+00 0. -1.
         22    1    1    2    0    0 -0.89407790959E+03  0.11249618764E+04 -0.16104298906E+02  0.14370712857E+04  0.00000000000E+00 0.  1.
<mgrwt>
<rscale>  0 0.29562141E+04</rscale>
<asrwt>0</asrwt>
<pdfrwt beam="1">  1        1 0.28433745E+00 0.29562141E+04</pdfrwt>
<pdfrwt beam="2">  1       -1 0.18186578E+00 0.29562141E+04</pdfrwt>
<totfact> 0.65128841E-01</totfact>
</mgrwt>
</event>
<event>
 6    1  0.5196787E-004  0.2983929E+04  0.7818608E-02  0.8248335E-01
         -2   -1    0    0    0  501 -0.00000000000E+00  0.00000000000E+00  0.22300095053E+04  0.22300095053E+04  0.00000000000E+00 0. -1.
          2   -1    0    0  501    0  0.00000000000E+00 -0.00000000000E+00 -0.99818333033E+03  0.99818333033E+03  0.00000000000E+00 0.  1.
         23    2    1    2    0    0  0.44165420433E+03  0.14002682358E+04  0.33624339263E+03  0.15083445608E+04  0.78956484331E+02 0.  0.
         13    1    3    3    0    0  0.15918396172E+03  0.46544033712E+03  0.14904224139E+03  0.51399205325E+03  0.00000000000E+00 0.  1.
        -13    1    3    3    0    0  0.28247024261E+03  0.93482789873E+03  0.18720115124E+03  0.99435250752E+03  0.00000000000E+00 0. -1.
         22    1    1    2    0    0 -0.44165420433E+03 -0.14002682358E+04  0.89558278234E+03  0.17198482749E+04  0.00000000000E+00 0.  1.
<mgrwt>
<rscale>  0 0.29839292E+04</rscale>
<asrwt>0</asrwt>
<pdfrwt beam="1">  1        2 0.15356667E+00 0.29839292E+04</pdfrwt>
<pdfrwt beam="2">  1       -2 0.34307838E+00 0.29839292E+04</pdfrwt>
<totfact> 0.37225889E-01</totfact>
</mgrwt>
</event>
<event>
 6    1  0.5196787E-004  0.1182323E+04  0.7818608E-02  0.9128471E-01
          2   -1    0    0  501    0  0.00000000000E+00  0.00000000000E+00  0.80528355004E+03  0.80528355004E+03  0.00000000000E+00 0.  1.
         -2   -1    0    0    0  501 -0.00000000000E+00 -0.00000000000E+00 -0.43397372607E+03  0.43397372607E+03  0.00000000000E+00 0. -1.
         23    2    1    2    0    0  0.22729865106E+03 -0.17862672234E+03  0.72276272382E+03  0.78418439896E+03  0.94799967905E+02 0.  0.
         11    1    3    3    0    0  0.73598184921E+02 -0.88930664968E+02  0.39128492445E+03  0.40795740966E+03  0.00000000000E+00 0. -1.
        -11    1    3    3    0    0  0.15370046613E+03 -0.89696057376E+02  0.33147779937E+03  0.37622698929E+03  0.00000000000E+00 0.  1.
         22    1    1    2    0    0 -0.22729865106E+03  0.17862672234E+03 -0.35145289985E+03  0.45507287715E+03  0.00000000000E+00 0. -1.
<mgrwt>
<rscale>  0 0.11823230E+04</rscale>
<asrwt>0</asrwt>
<pdfrwt beam="1">  1        2 0.12388978E+00 0.11823230E+04</pdfrwt>
<pdfrwt beam="2">  1       -2 0.66765189E-01 0.11823230E+04</pdfrwt>
<totfact> 0.69529166E+01</totfact>
</mgrwt>
</event>
<event>
 6    1  0.5196787E-004  0.2455910E+04  0.7818608E-02  0.8418863E-01
         -2   -1    0    0    0  501 -0.00000000000E+00  0.00000000000E+00  0.67907758543E+03  0.67907758543E+03  0.00000000000E+00 0. -1.
          2   -1    0    0  501    0  0.00000000000E+00 -0.00000000000E+00 -0.22204735788E+04  0.22204735788E+04  0.00000000000E+00 0.  1.
         23    2    1    2    0    0 -0.33022684873E+03  0.81492328587E+03 -0.17809501362E+04  0.19882137290E+04  0.89781463049E+02 0.  0.
         11    1    3    3    0    0 -0.24789041117E+03  0.60777031643E+03 -0.12369879602E+04  0.14003476808E+04  0.00000000000E+00 0. -1.
        -11    1    3    3    0    0 -0.82336437564E+02  0.20715296943E+03 -0.54396217600E+03  0.58786604819E+03  0.00000000000E+00 0.  1.
         22    1    1    2    0    0  0.33022684873E+03 -0.81492328587E+03  0.23955414284E+03  0.91133743521E+03  0.00000000000E+00 0. -1.
<mgrwt>
<rscale>  0 0.24559103E+04</rscale>
<asrwt>0</asrwt>
<pdfrwt beam="1">  1        2 0.34161132E+00 0.24559103E+04</pdfrwt>
<pdfrwt beam="2">  1       -2 0.10447347E+00 0.24559103E+04</pdfrwt>
<totfact> 0.33484034E+00</totfact>
</mgrwt>
</event>
<event>
 6    1  0.5196787E-004  0.1620814E+04  0.7818608E-02  0.8807862E-01
         -2   -1    0    0    0  501 -0.00000000000E+00  0.00000000000E+00  0.67696786418E+03  0.67696786418E+03  0.00000000000E+00 0. -1.
          2   -1    0    0  501    0  0.00000000000E+00 -0.00000000000E+00 -0.97014874451E+03  0.97014874451E+03  0.00000000000E+00 0.  1.
         23    2    1    2    0    0 -0.66248342405E+02  0.45562303909E+03 -0.82156515982E+03  0.94628057691E+03  0.92176036888E+02 0.  0.
         11    1    3    3    0    0 -0.39640698305E+02  0.43245980585E+03 -0.76003109849E+03  0.87535143760E+03  0.00000000000E+00 0.  1.
        -11    1    3    3    0    0 -0.26607644100E+02  0.23163233242E+02 -0.61534061329E+02  0.70929139304E+02  0.00000000000E+00 0. -1.
         22    1    1    2    0    0  0.66248342405E+02 -0.45562303909E+03  0.52838427949E+03  0.70083603178E+03  0.00000000000E+00 0. -1.
<mgrwt>
<rscale>  0 0.16208140E+04</rscale>
<asrwt>0</asrwt>
<pdfrwt beam="1">  1        2 0.14925365E+00 0.16208140E+04</pdfrwt>
<pdfrwt beam="2">  1       -2 0.10414890E+00 0.16208140E+04</pdfrwt>
<totfact> 0.18903438E+01</totfact>
</mgrwt>
</event>
<event>
 6    1  0.5196787E-004  0.2114971E+04  0.7818608E-02  0.8554677E-01
         -2   -1    0    0    0  501 -0.00000000000E+00  0.00000000000E+00  0.33632986200E+03  0.33632986200E+03  0.00000000000E+00 0. -1.
          2   -1    0    0  501    0  0.00000000000E+00 -0.00000000000E+00 -0.33249374595E+04  0.33249374595E+04  0.00000000000E+00 0.  1.
         23    2    1    2    0    0 -0.59287454459E+03 -0.37155484503E+03 -0.28651200274E+04  0.29507728398E+04  0.92705730742E+02 0.  0.
         13    1    3    3    0    0 -0.12723889101E+03 -0.40939647446E+02 -0.60954652663E+03  0.62402945303E+03  0.00000000000E+00 0. -1.
        -13    1    3    3    0    0 -0.46563565358E+03 -0.33061519759E+03 -0.22555735007E+04  0.23267433868E+04  0.00000000000E+00 0.  1.
         22    1    1    2    0    0  0.59287454459E+03  0.37155484503E+03 -0.12348757010E+03  0.71049448165E+03  0.00000000000E+00 0. -1.
<mgrwt>
<rscale>  0 0.21149712E+04</rscale>
<asrwt>0</asrwt>
<pdfrwt beam="1">  1        2 0.51152883E+00 0.21149712E+04</pdfrwt>
<pdfrwt beam="2">  1       -2 0.51743057E-01 0.21149712E+04</pdfrwt>
<totfact> 0.34915414E+00</totfact>
</mgrwt>
</event>
<event>
 6    1  0.7140055E-004  0.2596813E+04  0.7818608E-02  0.8369285E-01
         -2   -1    0    0    0  501 -0.00000000000E+00  0.00000000000E+00  0.75778847472E+03  0.75778847472E+03  0.00000000000E+00 0. -1.
          2   -1    0    0  501    0  0.00000000000E+00 -0.00000000000E+00 -0.22247089646E+04  0.22247089646E+04  0.00000000000E+00 0.  1.
         23    2    1    2    0    0  0.38792322434E+03 -0.87268802858E+03 -0.17418138469E+04  0.19886990790E+04  0.94550125201E+02 0.  0.
         13    1    3    3    0    0  0.20778074099E+03 -0.53886294808E+03 -0.11248854334E+04  0.12644814555E+04  0.00000000000E+00 0.  1.
        -13    1    3    3    0    0  0.18014248335E+03 -0.33382508050E+03 -0.61692841356E+03  0.72421762347E+03  0.00000000000E+00 0. -1.
         22    1    1    2    0    0 -0.38792322434E+03  0.87268802858E+03  0.27489335707E+03  0.99379836032E+03  0.00000000000E+00 0. -1.
<mgrwt>
<rscale>  0 0.25968125E+04</rscale>
<asrwt>0</asrwt>
<pdfrwt beam="1">  1        2 0.34226292E+00 0.25968125E+04</pdfrwt>
<pdfrwt beam="2">  1       -2 0.11658284E+00 0.25968125E+04</pdfrwt>
<totfact> 0.25229383E+00</totfact>
</mgrwt>
</event>
<event>
 6    1  0.5196787E-004  0.1832904E+04  0.7818608E-02  0.8688995E-01
         -2   -1    0    0    0  501 -0.00000000000E+00  0.00000000000E+00  0.67522221733E+03  0.67522221733E+03  0.00000000000E+00 0. -1.
          2   -1    0    0  501    0  0.00000000000E+00 -0.00000000000E+00 -0.12438629229E+04  0.12438629229E+04  0.00000000000E+00 0.  1.
         23    2    1    2    0    0 -0.90668387687E+03  0.13438974753E+02 -0.40625631675E+03  0.99787672279E+03  0.91964669184E+02 0.  0.
         11    1    3    3    0    0 -0.77259474636E+03 -0.21078433823E+02 -0.33941156494E+03  0.84412508131E+03  0.00000000000E+00 0.  1.
        -11    1    3    3    0    0 -0.13408913050E+03  0.34517408577E+02 -0.66844751812E+02  0.15375164148E+03  0.00000000000E+00 0. -1.
         22    1    1    2    0    0  0.90668387687E+03 -0.13438974753E+02 -0.16238438881E+03  0.92120841743E+03  0.00000000000E+00 0. -1.
<mgrwt>
<rscale>  0 0.18329036E+04</rscale>
<asrwt>0</asrwt>
<pdfrwt beam="1">  1        2 0.19136352E+00 0.18329036E+04</pdfrwt>
<pdfrwt beam="2">  1       -2 0.10388034E+00 0.18329036E+04</pdfrwt>
<totfact> 0.12669186E+01</totfact>
</mgrwt>
</event>
<event>
 6    1  0.5196787E-004  0.3031932E+03  0.7818608E-02  0.1083655E+00
         -2   -1    0    0    0  501 -0.00000000000E+00  0.00000000000E+00  0.14064989290E+02  0.14064989290E+02  0.00000000000E+00 0. -1.
          2   -1    0    0  501    0  0.00000000000E+00 -0.00000000000E+00 -0.16339529937E+04  0.16339529937E+04  0.00000000000E+00 0.  1.
         23    2    1    2    0    0 -0.68040975291E+02 -0.12139469987E+03 -0.85411496941E+03  0.86970275854E+03  0.86627130686E+02 0.  0.
         11    1    3    3    0    0 -0.54944940530E+02 -0.55758332807E+02 -0.25198336660E+03  0.26386275828E+03  0.00000000000E+00 0. -1.
        -11    1    3    3    0    0 -0.13096034761E+02 -0.65636367060E+02 -0.60213160282E+03  0.60584000026E+03  0.00000000000E+00 0.  1.
         22    1    1    2    0    0  0.68040975291E+02  0.12139469987E+03 -0.76577303499E+03  0.77831522444E+03  0.00000000000E+00 0.  1.
<mgrwt>
<rscale>  0 0.30319321E+03</rscale>
<asrwt>0</asrwt>
<pdfrwt beam="1">  1        2 0.25137730E+00 0.30319321E+03</pdfrwt>
<pdfrwt beam="2">  1       -2 0.21638452E-02 0.30319321E+03</pdfrwt>
<totfact> 0.79804686E+03</totfact>
</mgrwt>
</event>
<event>
 6    1  0.5196787E-004  0.3415275E+04  0.7818608E-02  0.8134167E-01
         -2   -1    0    0    0  501 -0.00000000000E+00  0.00000000000E+00  0.12192777964E+04  0.12192777964E+04  0.00000000000E+00 0. -1.
          2   -1    0    0  501    0  0.00000000000E+00 -0.00000000000E+00 -0.23916015303E+04  0.23916015303E+04  0.00000000000E+00 0.  1.
         23    2    1    2    0    0  0.83106069359E+03 -0.14333767918E+04 -0.10180247157E+04  0.19468363313E+04  0.92555255399E+02 0.  0.
         11    1    3    3    0    0  0.28528932957E+03 -0.54898233578E+03 -0.33968701904E+03  0.70580371030E+03  0.00000000000E+00 0. -1.
        -11    1    3    3    0    0  0.54577136402E+03 -0.88439445601E+03 -0.67833769669E+03  0.12410326210E+04  0.00000000000E+00 0.  1.
         22    1    1    2    0    0 -0.83106069359E+03  0.14333767918E+04 -0.15429901821E+03  0.16640429955E+04  0.00000000000E+00 0. -1.
<mgrwt>
<rscale>  0 0.34152755E+04</rscale>
<asrwt>0</asrwt>
<pdfrwt beam="1">  1        2 0.36793869E+00 0.34152755E+04</pdfrwt>
<pdfrwt beam="2">  1       -2 0.18758120E+00 0.34152755E+04</pdfrwt>
<totfact> 0.53521647E-01</totfact>
</mgrwt>
</event>
<event>
 6    1  0.5196787E-004  0.4149241E+04  0.7818608E-02  0.7975098E-01
         -2   -1    0    0    0  501 -0.00000000000E+00  0.00000000000E+00  0.28898582914E+04  0.28898582914E+04  0.00000000000E+00 0. -1.
          2   -1    0    0  501    0  0.00000000000E+00 -0.00000000000E+00 -0.14893638197E+04  0.14893638197E+04  0.00000000000E+00 0.  1.
         23    2    1    2    0    0  0.13115331385E+04 -0.15474441456E+04  0.24643788028E+03  0.20454378080E+04  0.91551300382E+02 0.  0.
         13    1    3    3    0    0  0.74961856619E+03 -0.82946133670E+03  0.10707195866E+03  0.11231199883E+04  0.00000000000E+00 0. -1.
        -13    1    3    3    0    0  0.56191457231E+03 -0.71798280890E+03  0.13936592162E+03  0.92231781971E+03  0.00000000000E+00 0.  1.
         22    1    1    2    0    0 -0.13115331385E+04  0.15474441456E+04  0.11540565914E+04  0.23337843031E+04  0.00000000000E+00 0.  1.
<mgrwt>
<rscale>  0 0.41492411E+04</rscale>
<asrwt>0</asrwt>
<pdfrwt beam="1">  1        2 0.22913290E+00 0.41492411E+04</pdfrwt>
<pdfrwt beam="2">  1       -2 0.44459358E+00 0.41492411E+04</pdfrwt>
<totfact> 0.37818362E-02</totfact>
</mgrwt>
</event>
<event>
 6    1  0.8292491E-004  0.3265170E+04  0.7818608E-02  0.8171815E-01
          2   -1    0    0  501    0  0.00000000000E+00  0.00000000000E+00  0.19050097836E+04  0.19050097836E+04  0.00000000000E+00 0.  1.
         -2   -1    0    0    0  501 -0.00000000000E+00 -0.00000000000E+00 -0.13991185475E+04  0.13991185475E+04  0.00000000000E+00 0. -1.
         23    2    1    2    0    0  0.70060904047E+02  0.16145734686E+04  0.28016222558E+02  0.16188626119E+04  0.90416988213E+02 0.  0.
         11    1    3    3    0    0  0.25918614516E+02  0.73829907132E+03 -0.31822185676E+02  0.73943893919E+03  0.00000000000E+00 0. -1.
        -11    1    3    3    0    0  0.44142289531E+02  0.87627439724E+03  0.59838408234E+02  0.87942367269E+03  0.00000000000E+00 0.  1.
         22    1    1    2    0    0 -0.70060904047E+02 -0.16145734686E+04  0.47787501351E+03  0.16852657192E+04  0.00000000000E+00 0. -1.
<mgrwt>
<rscale>  0 0.32651705E+04</rscale>
<asrwt>0</asrwt>
<pdfrwt beam="1">  1        2 0.29307843E+00 0.32651705E+04</pdfrwt>
<pdfrwt beam="2">  1       -2 0.21524901E+00 0.32651705E+04</pdfrwt>
<totfact> 0.66968091E-01</totfact>
</mgrwt>
</event>
<event>
 6    1  0.8622681E-004  0.3350538E+04  0.7818608E-02  0.8150154E-01
         -2   -1    0    0    0  501 -0.00000000000E+00  0.00000000000E+00  0.11913806169E+04  0.11913806169E+04  0.00000000000E+00 0. -1.
          2   -1    0    0  501    0  0.00000000000E+00 -0.00000000000E+00 -0.23556924200E+04  0.23556924200E+04  0.00000000000E+00 0.  1.
         23    2    1    2    0    0 -0.13778805901E+04 -0.94784590926E+03 -0.64956111348E+03  0.17972344555E+04  0.10561846188E+03 0.  0.
         13    1    3    3    0    0 -0.79198519460E+03 -0.50206408839E+03 -0.40544530012E+03  0.10216138158E+04  0.00000000000E+00 0.  1.
        -13    1    3    3    0    0 -0.58589539554E+03 -0.44578182088E+03 -0.24411581335E+03  0.77562063966E+03  0.00000000000E+00 0. -1.
         22    1    1    2    0    0  0.13778805901E+04  0.94784590926E+03 -0.51475068967E+03  0.17498385814E+04  0.00000000000E+00 0.  1.
<mgrwt>
<rscale>  0 0.33505380E+04</rscale>
<asrwt>0</asrwt>
<pdfrwt beam="1">  1        2 0.36241421E+00 0.33505380E+04</pdfrwt>
<pdfrwt beam="2">  1       -2 0.18328933E+00 0.33505380E+04</pdfrwt>
<totfact> 0.60333145E-01</totfact>
</mgrwt>
</event>
<event>
 6    1  0.5196787E-004  0.1581275E+04  0.7818608E-02  0.8832135E-01
          1   -1    0    0  501    0  0.00000000000E+00  0.00000000000E+00  0.87623763440E+03  0.87623763440E+03  0.00000000000E+00 0.  1.
         -1   -1    0    0    0  501 -0.00000000000E+00 -0.00000000000E+00 -0.71340006780E+03  0.71340006780E+03  0.00000000000E+00 0. -1.
         23    2    1    2    0    0  0.63840767309E+03 -0.42180582024E+03 -0.10754096620E+03  0.77810270108E+03  0.91620123121E+02 0.  0.
         13    1    3    3    0    0  0.23712974949E+03 -0.14675421038E+03  0.43689921356E+01  0.27890214135E+03  0.00000000000E+00 0.  1.
        -13    1    3    3    0    0  0.40127792360E+03 -0.27505160986E+03 -0.11190995833E+03  0.49920055972E+03  0.00000000000E+00 0. -1.
         22    1    1    2    0    0 -0.63840767309E+03  0.42180582024E+03  0.27037853279E+03  0.81153500112E+03  0.00000000000E+00 0.  1.
<mgrwt>
<rscale>  0 0.15812754E+04</rscale>
<asrwt>0</asrwt>
<pdfrwt beam="1">  1        1 0.13480579E+00 0.15812754E+04</pdfrwt>
<pdfrwt beam="2">  1       -1 0.10975386E+00 0.15812754E+04</pdfrwt>
<totfact> 0.14041514E+01</totfact>
</mgrwt>
</event>
<event>
 6    1  0.5196787E-004  0.1410734E+04  0.7818608E-02  0.8946085E-01
         -2   -1    0    0    0  501 -0.00000000000E+00  0.00000000000E+00  0.96516940866E+03  0.96516940866E+03  0.00000000000E+00 0. -1.
          2   -1    0    0  501    0  0.00000000000E+00 -0.00000000000E+00 -0.51549741340E+03  0.51549741340E+03  0.00000000000E+00 0.  1.
         23    2    1    2    0    0 -0.30656127486E+03  0.21357494565E+03 -0.39857094218E+03  0.55378486973E+03  0.90690756649E+02 0.  0.
         11    1    3    3    0    0 -0.13478566910E+03  0.12819054539E+03 -0.14510931391E+03  0.23591673427E+03  0.00000000000E+00 0.  1.
        -11    1    3    3    0    0 -0.17177560575E+03  0.85384400264E+02 -0.25346162827E+03  0.31786813547E+03  0.00000000000E+00 0. -1.
         22    1    1    2    0    0  0.30656127486E+03 -0.21357494565E+03  0.84824293743E+03  0.92688195233E+03  0.00000000000E+00 0. -1.
<mgrwt>
<rscale>  0 0.14107336E+04</rscale>
<asrwt>0</asrwt>
<pdfrwt beam="1">  1        2 0.79307294E-01 0.14107336E+04</pdfrwt>
<pdfrwt beam="2">  1       -2 0.14848760E+00 0.14107336E+04</pdfrwt>
<totfact> 0.17771624E+01</totfact>
</mgrwt>
</event>
<event>
 6    1  0.5196787E-004  0.2620226E+04  0.7818608E-02  0.8361363E-01
         -2   -1    0    0    0  501 -0.00000000000E+00  0.00000000000E+00  0.13809438355E+04  0.13809438355E+04  0.00000000000E+00 0. -1.
          2   -1    0    0  501    0  0.00000000000E+00 -0.00000000000E+00 -0.12429148973E+04  0.12429148973E+04  0.00000000000E+00 0.  1.
         23    2    1    2    0    0 -0.32763682263E+03  0.10073161949E+04  0.83842629410E+03  0.13539814709E+04  0.90969053644E+02 0.  0.
         11    1    3    3    0    0 -0.70298492108E+02  0.33279463858E+03  0.24038184571E+03  0.41650639996E+03  0.00000000000E+00 0.  1.
        -11    1    3    3    0    0 -0.25733833052E+03  0.67452155636E+03  0.59804444839E+03  0.93747507092E+03  0.00000000000E+00 0. -1.
         22    1    1    2    0    0  0.32763682263E+03 -0.10073161949E+04 -0.70039735592E+03  0.12698772619E+04  0.00000000000E+00 0.  1.
<mgrwt>
<rscale>  0 0.26202257E+04</rscale>
<asrwt>0</asrwt>
<pdfrwt beam="1">  1        2 0.19121768E+00 0.26202257E+04</pdfrwt>
<pdfrwt beam="2">  1       -2 0.21245290E+00 0.26202257E+04</pdfrwt>
<totfact> 0.17414901E+00</totfact>
</mgrwt>
</event>
<event>
 6    1  0.5196787E-004  0.4802037E+04  0.7818608E-02  0.7859792E-01
          2   -1    0    0  501    0  0.00000000000E+00  0.00000000000E+00  0.25173782182E+04  0.25173782182E+04  0.00000000000E+00 0.  1.
         -2   -1    0    0    0  501 -0.00000000000E+00 -0.00000000000E+00 -0.22900376084E+04  0.22900376084E+04  0.00000000000E+00 0. -1.
         23    2    1    2    0    0  0.12035738394E+04 -0.20616848886E+03  0.21823844972E+04  0.25023579024E+04  0.88868135629E+02 0.  0.
         11    1    3    3    0    0  0.75120471191E+03 -0.86497521691E+02  0.13242130923E+04  0.15249034902E+04  0.00000000000E+00 0. -1.
        -11    1    3    3    0    0  0.45236912745E+03 -0.11967096717E+03  0.85817140483E+03  0.97745441220E+03  0.00000000000E+00 0.  1.
         22    1    1    2    0    0 -0.12035738394E+04  0.20616848886E+03 -0.19550438874E+04  0.23050579243E+04  0.00000000000E+00 0. -1.
<mgrwt>
<rscale>  0 0.48020374E+04</rscale>
<asrwt>0</asrwt>
<pdfrwt beam="1">  1        2 0.38728895E+00 0.48020374E+04</pdfrwt>
<pdfrwt beam="2">  1       -2 0.35231348E+00 0.48020374E+04</pdfrwt>
<totfact> 0.37841869E-02</totfact>
</mgrwt>
</event>
<event>
 6    1  0.5196787E-004  0.3023028E+04  0.7818608E-02  0.8237185E-01
         -2   -1    0    0    0  501 -0.00000000000E+00  0.00000000000E+00  0.96088024790E+03  0.96088024790E+03  0.00000000000E+00 0. -1.
          2   -1    0    0  501    0  0.00000000000E+00 -0.00000000000E+00 -0.23776895697E+04  0.23776895697E+04  0.00000000000E+00 0.  1.
         23    2    1    2    0    0  0.14063653776E+03  0.14893302173E+04 -0.93668615365E+03  0.17674551214E+04  0.92916755933E+02 0.  0.
         13    1    3    3    0    0  0.70955494675E+02  0.11611160426E+04 -0.73140541502E+03  0.13741102677E+04  0.00000000000E+00 0. -1.
        -13    1    3    3    0    0  0.69681043081E+02  0.32821417474E+03 -0.20528073863E+03  0.39334485368E+03  0.00000000000E+00 0.  1.
         22    1    1    2    0    0 -0.14063653776E+03 -0.14893302173E+04 -0.48012316811E+03  0.15711146962E+04  0.00000000000E+00 0.  1.
<mgrwt>
<rscale>  0 0.30230282E+04</rscale>
<asrwt>0</asrwt>
<pdfrwt beam="1">  1        2 0.36579839E+00 0.30230282E+04</pdfrwt>
<pdfrwt beam="2">  1       -2 0.14782773E+00 0.30230282E+04</pdfrwt>
<totfact> 0.10892355E+00</totfact>
</mgrwt>
</event>
<event>
 6    1  0.5196787E-004  0.1820971E+04  0.7818608E-02  0.8695226E-01
          2   -1    0    0  501    0  0.00000000000E+00  0.00000000000E+00  0.12990718813E+04  0.12990718813E+04  0.00000000000E+00 0.  1.
         -2   -1    0    0    0  501 -0.00000000000E+00 -0.00000000000E+00 -0.63813542399E+03  0.63813542399E+03  0.00000000000E+00 0. -1.
         23    2    1    2    0    0  0.31046813933E+03  0.68643029396E+03 -0.20834797987E+03  0.78688889429E+03  0.90599322490E+02 0.  0.
         11    1    3    3    0    0  0.15684250223E+03  0.37959078668E+03 -0.68752086094E+02  0.41643196945E+03  0.00000000000E+00 0.  1.
        -11    1    3    3    0    0  0.15362563710E+03  0.30683950728E+03 -0.13959589378E+03  0.37045692484E+03  0.00000000000E+00 0. -1.
         22    1    1    2    0    0 -0.31046813933E+03 -0.68643029396E+03  0.86928443723E+03  0.11503184111E+04  0.00000000000E+00 0.  1.
<mgrwt>
<rscale>  0 0.18209709E+04</rscale>
<asrwt>0</asrwt>
<pdfrwt beam="1">  1        2 0.19985721E+00 0.18209709E+04</pdfrwt>
<pdfrwt beam="2">  1       -2 0.98174680E-01 0.18209709E+04</pdfrwt>
<totfact> 0.13461383E+01</totfact>
</mgrwt>
</event>
<event>
 6    1  0.5853708E-004  0.4133855E+04  0.7818608E-02  0.7978075E-01
          2   -1    0    0  501    0  0.00000000000E+00  0.00000000000E+00  0.34030484589E+04  0.34030484589E+04  0.00000000000E+00 0. -1.
         -2   -1    0    0    0  501 -0.00000000000E+00 -0.00000000000E+00 -0.12554004871E+04  0.12554004871E+04  0.00000000000E+00 0.  1.
         23    2    1    2    0    0 -0.63364119382E+03 -0.18849132061E+04  0.17053579895E+04  0.26212893093E+04  0.92264911603E+02 0.  0.
         11    1    3    3    0    0 -0.36926090935E+03 -0.10573610336E+04  0.90244030918E+03  0.14383200222E+04  0.00000000000E+00 0. -1.
        -11    1    3    3    0    0 -0.26438028447E+03 -0.82755217244E+03  0.80291768031E+03  0.11829692871E+04  0.00000000000E+00 0.  1.
         22    1    1    2    0    0  0.63364119382E+03  0.18849132061E+04  0.44228998230E+03  0.20371596367E+04  0.00000000000E+00 0.  1.
<mgrwt>
<rscale>  0 0.41338547E+04</rscale>
<asrwt>0</asrwt>
<pdfrwt beam="1">  1        2 0.52354591E+00 0.41338547E+04</pdfrwt>
<pdfrwt beam="2">  1       -2 0.19313854E+00 0.41338547E+04</pdfrwt>
<totfact> 0.10918527E-01</totfact>
</mgrwt>
</event>
<event>
 6    1  0.5196787E-004  0.1180912E+04  0.7818608E-02  0.9129730E-01
          1   -1    0    0  501    0  0.00000000000E+00  0.00000000000E+00  0.33003188086E+03  0.33003188086E+03  0.00000000000E+00 0.  1.
         -1   -1    0    0    0  501 -0.00000000000E+00 -0.00000000000E+00 -0.10563770679E+04  0.10563770679E+04  0.00000000000E+00 0. -1.
         23    2    1    2    0    0  0.46279141821E+03  0.30904022335E+03 -0.58454497573E+03  0.81213631636E+03  0.90503100974E+02 0.  0.
         11    1    3    3    0    0  0.27276420105E+02 -0.25362013528E+01 -0.19283953686E+02  0.33500840002E+02  0.00000000000E+00 0. -1.
        -11    1    3    3    0    0  0.43551499810E+03  0.31157642470E+03 -0.56526102204E+03  0.77863547636E+03  0.00000000000E+00 0.  1.
         22    1    1    2    0    0 -0.46279141821E+03 -0.30904022335E+03 -0.14180021134E+03  0.57427263242E+03  0.00000000000E+00 0.  1.
<mgrwt>
<rscale>  0 0.11809117E+04</rscale>
<asrwt>0</asrwt>
<pdfrwt beam="1">  1        1 0.50774136E-01 0.11809117E+04</pdfrwt>
<pdfrwt beam="2">  1       -1 0.16251955E+00 0.11809117E+04</pdfrwt>
<totfact> 0.21449102E+01</totfact>
</mgrwt>
</event>
<event>
 6    1  0.5196787E-004  0.1868933E+04  0.7818608E-02  0.8670477E-01
         -2   -1    0    0    0  501 -0.00000000000E+00  0.00000000000E+00  0.43744950915E+03  0.43744950915E+03  0.00000000000E+00 0. -1.
          2   -1    0    0  501    0  0.00000000000E+00 -0.00000000000E+00 -0.19961796426E+04  0.19961796426E+04  0.00000000000E+00 0.  1.
         23    2    1    2    0    0 -0.10154385924E+03 -0.69355206529E+03  0.20447130172E+02  0.70587730252E+03  0.80740686569E+02 0.  0.
         13    1    3    3    0    0 -0.89015910599E+02 -0.42061070979E+03  0.40994861091E+02  0.43187704288E+03  0.00000000000E+00 0. -1.
        -13    1    3    3    0    0 -0.12527948642E+02 -0.27294135550E+03 -0.20547730919E+02  0.27400025964E+03  0.00000000000E+00 0.  1.
         22    1    1    2    0    0  0.10154385924E+03  0.69355206529E+03 -0.15791772636E+04  0.17277518492E+04  0.00000000000E+00 0.  1.
<mgrwt>
<rscale>  0 0.18689332E+04</rscale>
<asrwt>0</asrwt>
<pdfrwt beam="1">  1        2 0.30710455E+00 0.18689332E+04</pdfrwt>
<pdfrwt beam="2">  1       -2 0.67299926E-01 0.18689332E+04</pdfrwt>
<totfact> 0.12765344E+01</totfact>
</mgrwt>
</event>
<event>
 6    1  0.5196787E-004  0.1890487E+04  0.7818608E-02  0.8659606E-01
         -2   -1    0    0    0  501 -0.00000000000E+00  0.00000000000E+00  0.82207572167E+03  0.82207572167E+03  0.00000000000E+00 0. -1.
          2   -1    0    0  501    0  0.00000000000E+00 -0.00000000000E+00 -0.10868649097E+04  0.10868649097E+04  0.00000000000E+00 0.  1.
         23    2    1    2    0    0  0.65488757023E+03 -0.44313162031E+03  0.38618819563E+03  0.88472633906E+03  0.91411213953E+02 0.  0.
         11    1    3    3    0    0  0.36409483272E+03 -0.23855091713E+03  0.16228076431E+03  0.46454992599E+03  0.00000000000E+00 0. -1.
        -11    1    3    3    0    0  0.29079273751E+03 -0.20458070318E+03  0.22390743132E+03  0.42017641308E+03  0.00000000000E+00 0.  1.
         22    1    1    2    0    0 -0.65488757023E+03  0.44313162031E+03 -0.65097738370E+03  0.10242142923E+04  0.00000000000E+00 0.  1.
<mgrwt>
<rscale>  0 0.18904870E+04</rscale>
<asrwt>0</asrwt>
<pdfrwt beam="1">  1        2 0.16720999E+00 0.18904870E+04</pdfrwt>
<pdfrwt beam="2">  1       -2 0.12647319E+00 0.18904870E+04</pdfrwt>
<totfact> 0.96871552E+00</totfact>
</mgrwt>
</event>
<event>
 6    1  0.5196787E-004  0.2417298E+04  0.7818608E-02  0.8433056E-01
          1   -1    0    0  501    0  0.00000000000E+00  0.00000000000E+00  0.19348583066E+04  0.19348583066E+04  0.00000000000E+00 0. -1.
         -1   -1    0    0    0  501 -0.00000000000E+00 -0.00000000000E+00 -0.75500768297E+03  0.75500768297E+03  0.00000000000E+00 0.  1.
         23    2    1    2    0    0 -0.63082245926E+03  0.10277561381E+04  0.53510059635E+03  0.13224149841E+04  0.90714317582E+02 0.  0.
         13    1    3    3    0    0 -0.55357989841E+03  0.86165709188E+03  0.48045918569E+03  0.11312580064E+04  0.00000000000E+00 0.  1.
        -13    1    3    3    0    0 -0.77242560858E+02  0.16609904626E+03  0.54641410666E+02  0.19115697773E+03  0.00000000000E+00 0. -1.
         22    1    1    2    0    0  0.63082245926E+03 -0.10277561381E+04  0.64475002728E+03  0.13674510054E+04  0.00000000000E+00 0. -1.
<mgrwt>
<rscale>  0 0.24172984E+04</rscale>
<asrwt>0</asrwt>
<pdfrwt beam="1">  1        1 0.29767051E+00 0.24172984E+04</pdfrwt>
<pdfrwt beam="2">  1       -1 0.11615503E+00 0.24172984E+04</pdfrwt>
<totfact> 0.19779406E+00</totfact>
</mgrwt>
</event>
<event>
 6    1  0.5196787E-004  0.3166573E+04  0.7818608E-02  0.8197701E-01
          1   -1    0    0  501    0  0.00000000000E+00  0.00000000000E+00  0.13514686376E+04  0.13514686376E+04  0.00000000000E+00 0.  1.
         -1   -1    0    0    0  501 -0.00000000000E+00 -0.00000000000E+00 -0.18548685087E+04  0.18548685087E+04  0.00000000000E+00 0. -1.
         23    2    1    2    0    0 -0.13241516764E+04  0.45224478508E+03  0.49513118126E+03  0.14873353224E+04  0.95438288487E+02 0.  0.
         11    1    3    3    0    0 -0.59460901192E+03  0.24957301562E+03  0.20858049262E+03  0.67775540506E+03  0.00000000000E+00 0. -1.
        -11    1    3    3    0    0 -0.72954266450E+03  0.20267176946E+03  0.28655068865E+03  0.80957991738E+03  0.00000000000E+00 0.  1.
         22    1    1    2    0    0  0.13241516764E+04 -0.45224478508E+03 -0.99853105241E+03  0.17190018239E+04  0.00000000000E+00 0. -1.
<mgrwt>
<rscale>  0 0.31665733E+04</rscale>
<asrwt>0</asrwt>
<pdfrwt beam="1">  1        1 0.20791825E+00 0.31665733E+04</pdfrwt>
<pdfrwt beam="2">  1       -1 0.28536439E+00 0.31665733E+04</pdfrwt>
<totfact> 0.28656161E-01</totfact>
</mgrwt>
</event>
<event>
 6    1  0.5196787E-004  0.8228294E+03  0.7818608E-02  0.9527548E-01
          4   -1    0    0  501    0  0.00000000000E+00  0.00000000000E+00  0.16237149932E+03  0.16237149932E+03  0.00000000000E+00 0.  1.
         -4   -1    0    0    0  501 -0.00000000000E+00 -0.00000000000E+00 -0.10424368789E+04  0.10424368789E+04  0.00000000000E+00 0. -1.
         23    2    1    2    0    0  0.19283655796E+03 -0.21835597988E+03 -0.27974074373E+02  0.30429471122E+03  0.83351367137E+02 0.  0.
         11    1    3    3    0    0  0.14594497763E+03 -0.19319553874E+03 -0.49075723608E+02  0.24704833400E+03  0.00000000000E+00 0.  1.
        -11    1    3    3    0    0  0.46891580336E+02 -0.25160441142E+02  0.21101649235E+02  0.57246377225E+02  0.00000000000E+00 0. -1.
         22    1    1    2    0    0 -0.19283655796E+03  0.21835597988E+03 -0.85209130523E+03  0.90051366701E+03  0.00000000000E+00 0. -1.
<mgrwt>
<rscale>  0 0.82282936E+03</rscale>
<asrwt>0</asrwt>
<pdfrwt beam="1">  1        4 0.24980230E-01 0.82282936E+03</pdfrwt>
<pdfrwt beam="2">  1       -4 0.16037491E+00 0.82282936E+03</pdfrwt>
<totfact> 0.75767425E+00</totfact>
</mgrwt>
</event>
<event>
 6    1  0.5196787E-004  0.1081031E+04  0.7818608E-02  0.9223880E-01
         -2   -1    0    0    0  501 -0.00000000000E+00  0.00000000000E+00  0.19351751924E+03  0.19351751924E+03  0.00000000000E+00 0. -1.
          2   -1    0    0  501    0  0.00000000000E+00 -0.00000000000E+00 -0.15097184581E+04  0.15097184581E+04  0.00000000000E+00 0.  1.
         23    2    1    2    0    0 -0.19121514676E+03  0.43945270676E+03 -0.10433947729E+04  0.11517787097E+04  0.90772408446E+02 0.  0.
         11    1    3    3    0    0 -0.49654557083E+02  0.42037317587E+02 -0.11771546445E+03  0.13449773856E+03  0.00000000000E+00 0.  1.
        -11    1    3    3    0    0 -0.14156058967E+03  0.39741538918E+03 -0.92567930849E+03  0.10172809712E+04  0.00000000000E+00 0. -1.
         22    1    1    2    0    0  0.19121514676E+03 -0.43945270676E+03 -0.27280616588E+03  0.55145726758E+03  0.00000000000E+00 0. -1.
<mgrwt>
<rscale>  0 0.10810309E+04</rscale>
<asrwt>0</asrwt>
<pdfrwt beam="1">  1        2 0.23226438E+00 0.10810309E+04</pdfrwt>
<pdfrwt beam="2">  1       -2 0.29771926E-01 0.10810309E+04</pdfrwt>
<totfact> 0.12949039E+02</totfact>
</mgrwt>
</event>
<event>
 6    1  0.5196787E-004  0.1574949E+04  0.7818608E-02  0.8836087E-01
          1   -1    0    0  501    0  0.00000000000E+00  0.00000000000E+00  0.10900273754E+04  0.10900273754E+04  0.00000000000E+00 0.  1.
         -1   -1    0    0    0  501 -0.00000000000E+00 -0.00000000000E+00 -0.56889989834E+03  0.56889989834E+03  0.00000000000E+00 0. -1.
         23    2    1    2    0    0  0.53507358964E+03  0.41077371237E+03 -0.16088877242E+03  0.69966456017E+03  0.92771280876E+02 0.  0.
         11    1    3    3    0    0  0.39859914428E+03  0.26836925183E+03 -0.83196353186E+02  0.48767301170E+03  0.00000000000E+00 0.  1.
        -11    1    3    3    0    0  0.13647444536E+03  0.14240446054E+03 -0.77692419230E+02  0.21199154847E+03  0.00000000000E+00 0. -1.
         22    1    1    2    0    0 -0.53507358964E+03 -0.41077371237E+03  0.68201624951E+03  0.95926271360E+03  0.00000000000E+00 0.  1.
<mgrwt>
<rscale>  0 0.15749495E+04</rscale>
<asrwt>0</asrwt>
<pdfrwt beam="1">  1        1 0.16769652E+00 0.15749495E+04</pdfrwt>
<pdfrwt beam="2">  1       -1 0.87523062E-01 0.15749495E+04</pdfrwt>
<totfact> 0.15935053E+01</totfact>
</mgrwt>
</event>
<event>
 6    1  0.5196787E-004  0.3109840E+04  0.7818608E-02  0.8213043E-01
         -2   -1    0    0    0  501 -0.00000000000E+00  0.00000000000E+00  0.16901701623E+04  0.16901701623E+04  0.00000000000E+00 0. -1.
          2   -1    0    0  501    0  0.00000000000E+00 -0.00000000000E+00 -0.14304926664E+04  0.14304926664E+04  0.00000000000E+00 0.  1.
         23    2    1    2    0    0 -0.33091354598E+03 -0.20156535293E+03  0.16396902025E+04  0.16872865917E+04  0.90662649200E+02 0.  0.
         13    1    3    3    0    0 -0.18864244369E+03 -0.72279172067E+02  0.95423244152E+03  0.97538187533E+03  0.00000000000E+00 0. -1.
        -13    1    3    3    0    0 -0.14227110229E+03 -0.12928618086E+03  0.68545776103E+03  0.71190471642E+03  0.00000000000E+00 0.  1.
         22    1    1    2    0    0  0.33091354598E+03  0.20156535293E+03 -0.13800127066E+04  0.14333762370E+04  0.00000000000E+00 0.  1.
<mgrwt>
<rscale>  0 0.31098399E+04</rscale>
<asrwt>0</asrwt>
<pdfrwt beam="1">  1        2 0.22007580E+00 0.31098399E+04</pdfrwt>
<pdfrwt beam="2">  1       -2 0.26002618E+00 0.31098399E+04</pdfrwt>
<totfact> 0.65771689E-01</totfact>
</mgrwt>
</event>
<event>
 6    1  0.5196787E-004  0.2291596E+04  0.7818608E-02  0.8481242E-01
          2   -1    0    0  501    0  0.00000000000E+00  0.00000000000E+00  0.22225122471E+04  0.22225122471E+04  0.00000000000E+00 0.  1.
         -2   -1    0    0    0  501 -0.00000000000E+00 -0.00000000000E+00 -0.59070700885E+03  0.59070700885E+03  0.00000000000E+00 0. -1.
         23    2    1    2    0    0  0.16378931017E+03  0.87316133774E+03  0.17018863269E+04  0.19220688653E+04  0.93241585133E+02 0.  0.
         13    1    3    3    0    0  0.11951334055E+03  0.64151439003E+03  0.11570280219E+04  0.13283591362E+04  0.00000000000E+00 0.  1.
        -13    1    3    3    0    0  0.44275969622E+02  0.23164694771E+03  0.54485830499E+03  0.59370972906E+03  0.00000000000E+00 0. -1.
         22    1    1    2    0    0 -0.16378931017E+03 -0.87316133774E+03 -0.70081088667E+02  0.89115039070E+03  0.00000000000E+00 0. -1.
<mgrwt>
<rscale>  0 0.22915964E+04</rscale>
<asrwt>0</asrwt>
<pdfrwt beam="1">  1        2 0.34192496E+00 0.22915964E+04</pdfrwt>
<pdfrwt beam="2">  1       -2 0.90878003E-01 0.22915964E+04</pdfrwt>
<totfact> 0.47010696E+00</totfact>
</mgrwt>
</event>
<event>
 6    1  0.5196787E-004  0.9664363E+03  0.7818608E-02  0.9346143E-01
         -2   -1    0    0    0  501 -0.00000000000E+00  0.00000000000E+00  0.21413119240E+03  0.21413119240E+03  0.00000000000E+00 0. -1.
          2   -1    0    0  501    0  0.00000000000E+00 -0.00000000000E+00 -0.10904520088E+04  0.10904520088E+04  0.00000000000E+00 0.  1.
         23    2    1    2    0    0  0.58318676036E+00 -0.46758650568E+03 -0.58221220459E+03  0.75219080812E+03  0.90457063019E+02 0.  0.
         11    1    3    3    0    0  0.26557142271E+02 -0.29598501924E+03 -0.31062093737E+03  0.42988112328E+03  0.00000000000E+00 0. -1.
        -11    1    3    3    0    0 -0.25973955510E+02 -0.17160148644E+03 -0.27159126722E+03  0.32230968484E+03  0.00000000000E+00 0.  1.
         22    1    1    2    0    0 -0.58318676036E+00  0.46758650568E+03 -0.29410861185E+03  0.55239239311E+03  0.00000000000E+00 0. -1.
<mgrwt>
<rscale>  0 0.96643632E+03</rscale>
<asrwt>0</asrwt>
<pdfrwt beam="1">  1        2 0.16776184E+00 0.96643632E+03</pdfrwt>
<pdfrwt beam="2">  1       -2 0.32943261E-01 0.96643632E+03</pdfrwt>
<totfact> 0.18961521E+02</totfact>
</mgrwt>
</event>
<event>
 6    1  0.5196787E-004  0.1950177E+04  0.7818608E-02  0.8630275E-01
          2   -1    0    0  501    0  0.00000000000E+00  0.00000000000E+00  0.15504018537E+04  0.15504018537E+04  0.00000000000E+00 0.  1.
         -2   -1    0    0    0  501 -0.00000000000E+00 -0.00000000000E+00 -0.61325896354E+03  0.61325896354E+03  0.00000000000E+00 0. -1.
         23    2    1    2    0    0  0.95172390245E+03  0.17623989012E+03  0.57917822395E+03  0.11316833041E+04  0.91764918799E+02 0.  0.
         13    1    3    3    0    0  0.43258984640E+03  0.41818251933E+02  0.28936387790E+03  0.52212469319E+03  0.00000000000E+00 0.  1.
        -13    1    3    3    0    0  0.51913405605E+03  0.13442163819E+03  0.28981434605E+03  0.60955861092E+03  0.00000000000E+00 0. -1.
         22    1    1    2    0    0 -0.95172390245E+03 -0.17623989012E+03  0.35796466621E+03  0.10319775131E+04  0.00000000000E+00 0. -1.
<mgrwt>
<rscale>  0 0.19501773E+04</rscale>
<asrwt>0</asrwt>
<pdfrwt beam="1">  1        2 0.23852336E+00 0.19501773E+04</pdfrwt>
<pdfrwt beam="2">  1       -2 0.94347533E-01 0.19501773E+04</pdfrwt>
<totfact> 0.10505343E+01</totfact>
</mgrwt>
</event>
<event>
 6    1  0.5196787E-004  0.2361989E+04  0.7818608E-02  0.8453873E-01
          2   -1    0    0  501    0  0.00000000000E+00  0.00000000000E+00  0.25546263347E+04  0.25546263347E+04  0.00000000000E+00 0.  1.
         -2   -1    0    0    0  501 -0.00000000000E+00 -0.00000000000E+00 -0.54596952982E+03  0.54596952982E+03  0.00000000000E+00 0. -1.
         23    2    1    2    0    0 -0.73926268671E+03  0.26418069324E+03 -0.14938508215E+03  0.80419747905E+03  0.90093972589E+02 0.  0.
         11    1    3    3    0    0 -0.41873275549E+03  0.10983987233E+03 -0.10700793865E+03  0.44592893717E+03  0.00000000000E+00 0. -1.
        -11    1    3    3    0    0 -0.32052993122E+03  0.15434082091E+03 -0.42377143500E+02  0.35826854188E+03  0.00000000000E+00 0.  1.
         22    1    1    2    0    0  0.73926268671E+03 -0.26418069324E+03  0.21580418871E+04  0.22963983855E+04  0.00000000000E+00 0.  1.
<mgrwt>
<rscale>  0 0.23619891E+04</rscale>
<asrwt>0</asrwt>
<pdfrwt beam="1">  1        2 0.39301943E+00 0.23619891E+04</pdfrwt>
<pdfrwt beam="2">  1       -2 0.83995313E-01 0.23619891E+04</pdfrwt>
<totfact> 0.36127003E+00</totfact>
</mgrwt>
</event>
<event>
 6    1  0.5196787E-004  0.2115354E+04  0.7818608E-02  0.8554510E-01
          2   -1    0    0  501    0  0.00000000000E+00  0.00000000000E+00  0.12252245100E+04  0.12252245100E+04  0.00000000000E+00 0.  1.
         -2   -1    0    0    0  501 -0.00000000000E+00 -0.00000000000E+00 -0.91304115474E+03  0.91304115474E+03  0.00000000000E+00 0. -1.
         23    2    1    2    0    0  0.78832801815E+03  0.67748392099E+03 -0.30370225189E+02  0.10438304301E+04  0.90631610551E+02 0.  0.
         13    1    3    3    0    0  0.25846005898E+03  0.27581146072E+03 -0.26477352966E+02  0.37891240963E+03  0.00000000000E+00 0.  1.
        -13    1    3    3    0    0  0.52986795917E+03  0.40167246027E+03 -0.38928722235E+01  0.66491802047E+03  0.00000000000E+00 0. -1.
         22    1    1    2    0    0 -0.78832801815E+03 -0.67748392099E+03  0.34255358048E+03  0.10944352347E+04  0.00000000000E+00 0.  1.
<mgrwt>
<rscale>  0 0.21153538E+04</rscale>
<asrwt>0</asrwt>
<pdfrwt beam="1">  1        2 0.18849608E+00 0.21153538E+04</pdfrwt>
<pdfrwt beam="2">  1       -2 0.14046787E+00 0.21153538E+04</pdfrwt>
<totfact> 0.59965133E+00</totfact>
</mgrwt>
</event>
<event>
 6    1  0.5196787E-004  0.1632622E+04  0.7818608E-02  0.8800754E-01
          2   -1    0    0  501    0  0.00000000000E+00  0.00000000000E+00  0.31261146916E+04  0.31261146916E+04  0.00000000000E+00 0.  1.
         -2   -1    0    0    0  501 -0.00000000000E+00 -0.00000000000E+00 -0.21316035715E+03  0.21316035715E+03  0.00000000000E+00 0. -1.
         23    2    1    2    0    0 -0.61778069717E+03  0.47835701678E+03  0.19241487337E+04  0.20790310480E+04  0.97689937501E+02 0.  0.
         13    1    3    3    0    0 -0.38357457595E+03  0.32002856373E+03  0.13395544401E+04  0.14296691347E+04  0.00000000000E+00 0. -1.
        -13    1    3    3    0    0 -0.23420612121E+03  0.15832845305E+03  0.58459429369E+03  0.64936191332E+03  0.00000000000E+00 0.  1.
         22    1    1    2    0    0  0.61778069717E+03 -0.47835701678E+03  0.98880560070E+03  0.12602440007E+04  0.00000000000E+00 0. -1.
<mgrwt>
<rscale>  0 0.16326221E+04</rscale>
<asrwt>0</asrwt>
<pdfrwt beam="1">  1        2 0.48094069E+00 0.16326221E+04</pdfrwt>
<pdfrwt beam="2">  1       -2 0.32793903E-01 0.16326221E+04</pdfrwt>
<totfact> 0.12093495E+01</totfact>
</mgrwt>
</event>
<event>
 6    1  0.5196787E-004  0.1466509E+04  0.7818608E-02  0.8907034E-01
          2   -1    0    0  501    0  0.00000000000E+00  0.00000000000E+00  0.14927384039E+04  0.14927384039E+04  0.00000000000E+00 0.  1.
         -2   -1    0    0    0  501 -0.00000000000E+00 -0.00000000000E+00 -0.36018532274E+03  0.36018532274E+03  0.00000000000E+00 0. -1.
         23    2    1    2    0    0 -0.60572038966E+03  0.10565353024E+03  0.71002789269E+02  0.62616014667E+03  0.94737924273E+02 0.  0.
         11    1    3    3    0    0 -0.64992821443E+02  0.38593636898E+02  0.23814188036E+02  0.79250559619E+02  0.00000000000E+00 0. -1.
        -11    1    3    3    0    0 -0.54072756822E+03  0.67059893340E+02  0.47188601233E+02  0.54690958706E+03  0.00000000000E+00 0.  1.
         22    1    1    2    0    0  0.60572038966E+03 -0.10565353024E+03  0.10615502919E+04  0.12267635800E+04  0.00000000000E+00 0.  1.
<mgrwt>
<rscale>  0 0.14665094E+04</rscale>
<asrwt>0</asrwt>
<pdfrwt beam="1">  1        2 0.22965206E+00 0.14665094E+04</pdfrwt>
<pdfrwt beam="2">  1       -2 0.55413128E-01 0.14665094E+04</pdfrwt>
<totfact> 0.37985486E+01</totfact>
</mgrwt>
</event>
<event>
 6    1  0.5196787E-004  0.7324309E+04  0.7818608E-02  0.7544884E-01
          1   -1    0    0  501    0  0.00000000000E+00  0.00000000000E+00  0.27679758536E+04  0.27679758536E+04  0.00000000000E+00 0.  1.
         -1   -1    0    0    0  501 -0.00000000000E+00 -0.00000000000E+00 -0.48451925395E+04  0.48451925395E+04  0.00000000000E+00 0. -1.
         23    2    1    2    0    0  0.33010416551E+04  0.24189132096E+03  0.58783979524E+03  0.33637080195E+04  0.11657013124E+03 0.  0.
         11    1    3    3    0    0  0.84654720374E+03  0.79082256314E+02  0.10238337415E+03  0.85637522543E+03  0.00000000000E+00 0.  1.
        -11    1    3    3    0    0  0.24544944514E+04  0.16280906464E+03  0.48545642109E+03  0.25073327941E+04  0.00000000000E+00 0. -1.
         22    1    1    2    0    0 -0.33010416551E+04 -0.24189132096E+03 -0.26650564811E+04  0.42494603737E+04  0.00000000000E+00 0. -1.
<mgrwt>
<rscale>  0 0.73243091E+04</rscale>
<asrwt>0</asrwt>
<pdfrwt beam="1">  1        1 0.42584244E+00 0.73243091E+04</pdfrwt>
<pdfrwt beam="2">  1       -1 0.74541423E+00 0.73243091E+04</pdfrwt>
<totfact> 0.72425876E-05</totfact>
</mgrwt>
</event>
<event>
 6    1  0.5196787E-004  0.1852978E+04  0.7818608E-02  0.8678623E-01
          2   -1    0    0  501    0  0.00000000000E+00  0.00000000000E+00  0.11305417167E+04  0.11305417167E+04  0.00000000000E+00 0.  1.
         -2   -1    0    0    0  501 -0.00000000000E+00 -0.00000000000E+00 -0.75926594117E+03  0.75926594117E+03  0.00000000000E+00 0. -1.
         23    2    1    2    0    0  0.74436404823E+03  0.52618723074E+03  0.30983212869E+02  0.91679693525E+03  0.92767574663E+02 0.  0.
         13    1    3    3    0    0  0.53291122408E+03  0.41120709571E+03  0.52405519209E+02  0.67515330611E+03  0.00000000000E+00 0.  1.
        -13    1    3    3    0    0  0.21145282415E+03  0.11498013503E+03 -0.21422306340E+02  0.24164362914E+03  0.00000000000E+00 0. -1.
         22    1    1    2    0    0 -0.74436404823E+03 -0.52618723074E+03  0.34029256263E+03  0.97301072259E+03  0.00000000000E+00 0.  1.
<mgrwt>
<rscale>  0 0.18529779E+04</rscale>
<asrwt>0</asrwt>
<pdfrwt beam="1">  1        2 0.17392949E+00 0.18529779E+04</pdfrwt>
<pdfrwt beam="2">  1       -2 0.11681015E+00 0.18529779E+04</pdfrwt>
<totfact> 0.11133431E+01</totfact>
</mgrwt>
</event>
<event>
 6    1  0.5196787E-004  0.1411209E+04  0.7818608E-02  0.8945744E-01
          2   -1    0    0  501    0  0.00000000000E+00  0.00000000000E+00  0.76438691332E+03  0.76438691332E+03  0.00000000000E+00 0.  1.
         -2   -1    0    0    0  501 -0.00000000000E+00 -0.00000000000E+00 -0.65134289991E+03  0.65134289991E+03  0.00000000000E+00 0. -1.
         23    2    1    2    0    0  0.13263804588E+03 -0.68531483031E+03 -0.23473834106E+02  0.70447290426E+03  0.92096601905E+02 0.  0.
         13    1    3    3    0    0  0.41547748211E+02 -0.16220250874E+03 -0.43892335022E+02  0.17309652307E+03  0.00000000000E+00 0.  1.
        -13    1    3    3    0    0  0.91090297673E+02 -0.52311232157E+03  0.20418500915E+02  0.53137638119E+03  0.00000000000E+00 0. -1.
         22    1    1    2    0    0 -0.13263804588E+03  0.68531483031E+03  0.13651784752E+03  0.71125690897E+03  0.00000000000E+00 0. -1.
<mgrwt>
<rscale>  0 0.14112094E+04</rscale>
<asrwt>0</asrwt>
<pdfrwt beam="1">  1        2 0.11759799E+00 0.14112094E+04</pdfrwt>
<pdfrwt beam="2">  1       -2 0.10020660E+00 0.14112094E+04</pdfrwt>
<totfact> 0.29249716E+01</totfact>
</mgrwt>
</event>
<event>
 6    1  0.6948481E-004  0.2927353E+04  0.7818608E-02  0.8264785E-01
          2   -1    0    0  501    0  0.00000000000E+00  0.00000000000E+00  0.19572424555E+04  0.19572424555E+04  0.00000000000E+00 0.  1.
         -2   -1    0    0    0  501 -0.00000000000E+00 -0.00000000000E+00 -0.10945751065E+04  0.10945751065E+04  0.00000000000E+00 0. -1.
         23    2    1    2    0    0  0.10904314575E+04 -0.96701922752E+03  0.55336929894E+03  0.15619074192E+04  0.95761449224E+02 0.  0.
         11    1    3    3    0    0  0.48326106819E+03 -0.48839364862E+03  0.27831255859E+03  0.74130121834E+03  0.00000000000E+00 0. -1.
        -11    1    3    3    0    0  0.60717038936E+03 -0.47862557890E+03  0.27505674035E+03  0.82060620087E+03  0.00000000000E+00 0.  1.
         22    1    1    2    0    0 -0.10904314575E+04  0.96701922752E+03  0.30929805009E+03  0.14899101429E+04  0.00000000000E+00 0. -1.
<mgrwt>
<rscale>  0 0.29273530E+04</rscale>
<asrwt>0</asrwt>
<pdfrwt beam="1">  1        2 0.30111422E+00 0.29273530E+04</pdfrwt>
<pdfrwt beam="2">  1       -2 0.16839617E+00 0.29273530E+04</pdfrwt>
<totfact> 0.13300113E+00</totfact>
</mgrwt>
</event>
<event>
 6    1  0.5196787E-004  0.1029552E+04  0.7818608E-02  0.9276714E-01
          2   -1    0    0  501    0  0.00000000000E+00  0.00000000000E+00  0.27348739424E+03  0.27348739424E+03  0.00000000000E+00 0.  1.
         -2   -1    0    0    0  501 -0.00000000000E+00 -0.00000000000E+00 -0.96894512047E+03  0.96894512047E+03  0.00000000000E+00 0. -1.
         23    2    1    2    0    0 -0.29049694150E+03 -0.41017509666E+03 -0.24651138235E+03  0.56850009775E+03  0.98956639897E+02 0.  0.
         13    1    3    3    0    0 -0.12625356981E+03 -0.16570281605E+03 -0.49375251237E+02  0.21409180874E+03  0.00000000000E+00 0. -1.
        -13    1    3    3    0    0 -0.16424337170E+03 -0.24447228061E+03 -0.19713613111E+03  0.35440828901E+03  0.00000000000E+00 0.  1.
         22    1    1    2    0    0  0.29049694150E+03  0.41017509666E+03 -0.44894634389E+03  0.67393241696E+03  0.00000000000E+00 0.  1.
<mgrwt>
<rscale>  0 0.10295519E+04</rscale>
<asrwt>0</asrwt>
<pdfrwt beam="1">  1        2 0.42074984E-01 0.10295519E+04</pdfrwt>
<pdfrwt beam="2">  1       -2 0.14906848E+00 0.10295519E+04</pdfrwt>
<totfact> 0.36927404E+01</totfact>
</mgrwt>
</event>
<event>
 6    1  0.5196787E-004  0.1883641E+04  0.7818608E-02  0.8663042E-01
          2   -1    0    0  501    0  0.00000000000E+00  0.00000000000E+00  0.21833939262E+03  0.21833939262E+03  0.00000000000E+00 0.  1.
         -2   -1    0    0    0  501 -0.00000000000E+00 -0.00000000000E+00 -0.40626031846E+04  0.40626031846E+04  0.00000000000E+00 0. -1.
         23    2    1    2    0    0  0.25050198649E+03  0.77599988804E+03 -0.29875621409E+04  0.30982064315E+04  0.91806726304E+02 0.  0.
         13    1    3    3    0    0  0.42399081417E+02  0.51848128423E+02 -0.26029214647E+03  0.26877111460E+03  0.00000000000E+00 0.  1.
        -13    1    3    3    0    0  0.20810290508E+03  0.72415175961E+03 -0.27272699944E+04  0.28294353169E+04  0.00000000000E+00 0. -1.
         22    1    1    2    0    0 -0.25050198649E+03 -0.77599988804E+03 -0.85670165113E+03  0.11827361458E+04  0.00000000000E+00 0.  1.
<mgrwt>
<rscale>  0 0.18836415E+04</rscale>
<asrwt>0</asrwt>
<pdfrwt beam="1">  1        2 0.33590678E-01 0.18836415E+04</pdfrwt>
<pdfrwt beam="2">  1       -2 0.62501584E+00 0.18836415E+04</pdfrwt>
<totfact> 0.58887240E-02</totfact>
</mgrwt>
</event>
<event>
 6    1  0.5196787E-004  0.1377427E+04  0.7818608E-02  0.8970322E-01
          2   -1    0    0  501    0  0.00000000000E+00  0.00000000000E+00  0.13056000818E+04  0.13056000818E+04  0.00000000000E+00 0.  1.
         -2   -1    0    0    0  501 -0.00000000000E+00 -0.00000000000E+00 -0.36330161326E+03  0.36330161326E+03  0.00000000000E+00 0. -1.
         23    2    1    2    0    0  0.28930589900E+03 -0.60610885512E+03  0.30128760405E+03  0.74048326791E+03  0.80469884114E+02 0.  0.
         13    1    3    3    0    0  0.18170221832E+03 -0.32517779457E+03  0.13141383985E+03  0.39500112852E+03  0.00000000000E+00 0.  1.
        -13    1    3    3    0    0  0.10760368068E+03 -0.28093106055E+03  0.16987376420E+03  0.34548213939E+03  0.00000000000E+00 0. -1.
         22    1    1    2    0    0 -0.28930589900E+03  0.60610885512E+03  0.64101086448E+03  0.92841842713E+03  0.00000000000E+00 0. -1.
<mgrwt>
<rscale>  0 0.13774275E+04</rscale>
<asrwt>0</asrwt>
<pdfrwt beam="1">  1        2 0.20086155E+00 0.13774275E+04</pdfrwt>
<pdfrwt beam="2">  1       -2 0.55892557E-01 0.13774275E+04</pdfrwt>
<totfact> 0.48081522E+01</totfact>
</mgrwt>
</event>
<event>
 6    1  0.5196787E-004  0.1490657E+04  0.7818608E-02  0.8890690E-01
          2   -1    0    0  501    0  0.00000000000E+00  0.00000000000E+00  0.20473664182E+03  0.20473664182E+03  0.00000000000E+00 0.  1.
         -2   -1    0    0    0  501 -0.00000000000E+00 -0.00000000000E+00 -0.27133143505E+04  0.27133143505E+04  0.00000000000E+00 0. -1.
         23    2    1    2    0    0 -0.46171903381E+03 -0.34975518307E+03 -0.34952860038E+03  0.68265254767E+03  0.91274882049E+02 0.  0.
         13    1    3    3    0    0 -0.30005874856E+03 -0.17499715064E+03 -0.18812404139E+03  0.39503153072E+03  0.00000000000E+00 0.  1.
        -13    1    3    3    0    0 -0.16166028526E+03 -0.17475803244E+03 -0.16140455899E+03  0.28762101695E+03  0.00000000000E+00 0. -1.
         22    1    1    2    0    0  0.46171903381E+03  0.34975518307E+03 -0.21590491083E+04  0.22353984447E+04  0.00000000000E+00 0. -1.
<mgrwt>
<rscale>  0 0.14906574E+04</rscale>
<asrwt>0</asrwt>
<pdfrwt beam="1">  1        2 0.31497946E-01 0.14906574E+04</pdfrwt>
<pdfrwt beam="2">  1       -2 0.41743296E+00 0.14906574E+04</pdfrwt>
<totfact> 0.93816975E-01</totfact>
</mgrwt>
</event>
<event>
 6    1  0.5196787E-004  0.9034237E+03  0.7818608E-02  0.9421312E-01
          2   -1    0    0  501    0  0.00000000000E+00  0.00000000000E+00  0.63526410141E+03  0.63526410141E+03  0.00000000000E+00 0.  1.
         -2   -1    0    0    0  501 -0.00000000000E+00 -0.00000000000E+00 -0.32119494303E+03  0.32119494303E+03  0.00000000000E+00 0. -1.
         23    2    1    2    0    0  0.36212456443E+03 -0.91292057819E+01  0.43557640102E+03  0.57438372127E+03  0.94722307701E+02 0.  0.
         13    1    3    3    0    0  0.26177087059E+03  0.35378432901E+02  0.32081697103E+03  0.41557087374E+03  0.00000000000E+00 0.  1.
        -13    1    3    3    0    0  0.10035369384E+03 -0.44507638683E+02  0.11475942999E+03  0.15881284753E+03  0.00000000000E+00 0. -1.
         22    1    1    2    0    0 -0.36212456443E+03  0.91292057819E+01 -0.12150724263E+03  0.38207532317E+03  0.00000000000E+00 0. -1.
<mgrwt>
<rscale>  0 0.90342375E+03</rscale>
<asrwt>0</asrwt>
<pdfrwt beam="1">  1        2 0.97732938E-01 0.90342375E+03</pdfrwt>
<pdfrwt beam="2">  1       -2 0.49414607E-01 0.90342375E+03</pdfrwt>
<totfact> 0.17985550E+02</totfact>
</mgrwt>
</event>
<event>
 6    1  0.5196787E-004  0.3216498E+04  0.7818608E-02  0.8184474E-01
         -2   -1    0    0    0  501 -0.00000000000E+00  0.00000000000E+00  0.11940370551E+04  0.11940370551E+04  0.00000000000E+00 0. -1.
          2   -1    0    0  501    0  0.00000000000E+00 -0.00000000000E+00 -0.21661516543E+04  0.21661516543E+04  0.00000000000E+00 0.  1.
         23    2    1    2    0    0  0.69547088022E+03 -0.14223099750E+04 -0.19938120621E+03  0.15984389238E+04  0.92783174189E+02 0.  0.
         13    1    3    3    0    0  0.59486648894E+03 -0.12143423158E+04 -0.20310105963E+03  0.13673856223E+04  0.00000000000E+00 0. -1.
        -13    1    3    3    0    0  0.10060439128E+03 -0.20796765919E+03  0.37198534185E+01  0.23105330147E+03  0.00000000000E+00 0.  1.
         22    1    1    2    0    0 -0.69547088022E+03  0.14223099750E+04 -0.77273339297E+03  0.17617497855E+04  0.00000000000E+00 0.  1.
<mgrwt>
<rscale>  0 0.32164983E+04</rscale>
<asrwt>0</asrwt>
<pdfrwt beam="1">  1        2 0.33325410E+00 0.32164983E+04</pdfrwt>
<pdfrwt beam="2">  1       -2 0.18369801E+00 0.32164983E+04</pdfrwt>
<totfact> 0.77589043E-01</totfact>
</mgrwt>
</event>
<event>
 6    1  0.5196787E-004  0.3941896E+04  0.7818608E-02  0.8016372E-01
          2   -1    0    0  501    0  0.00000000000E+00  0.00000000000E+00  0.34651376425E+04  0.34651376425E+04  0.00000000000E+00 0.  1.
         -2   -1    0    0    0  501 -0.00000000000E+00 -0.00000000000E+00 -0.11210625595E+04  0.11210625595E+04  0.00000000000E+00 0. -1.
         23    2    1    2    0    0 -0.18709683524E+04  0.83095948662E+02  0.46204301800E+03  0.19311159838E+04  0.91091600393E+02 0.  0.
         13    1    3    3    0    0 -0.10492616614E+04  0.91223200255E+02  0.26721512156E+03  0.10865889874E+04  0.00000000000E+00 0.  1.
        -13    1    3    3    0    0 -0.82170669101E+03 -0.81272515933E+01  0.19482789644E+03  0.84452699631E+03  0.00000000000E+00 0. -1.
         22    1    1    2    0    0  0.18709683524E+04 -0.83095948662E+02  0.18820320650E+04  0.26550842183E+04  0.00000000000E+00 0.  1.
<mgrwt>
<rscale>  0 0.39418960E+04</rscale>
<asrwt>0</asrwt>
<pdfrwt beam="1">  1        2 0.53309809E+00 0.39418960E+04</pdfrwt>
<pdfrwt beam="2">  1       -2 0.17247116E+00 0.39418960E+04</pdfrwt>
<totfact> 0.13926159E-01</totfact>
</mgrwt>
</event>
<event>
 6    1  0.5196787E-004  0.2489112E+04  0.7818608E-02  0.8406875E-01
         -1   -1    0    0    0  501 -0.00000000000E+00  0.00000000000E+00  0.89761416262E+03  0.89761416262E+03  0.00000000000E+00 0.  1.
          1   -1    0    0  501    0  0.00000000000E+00 -0.00000000000E+00 -0.17255968961E+04  0.17255968961E+04  0.00000000000E+00 0. -1.
         23    2    1    2    0    0  0.17683148901E+03  0.94448570048E+03 -0.12454689260E+04  0.15755387173E+04  0.88356042977E+02 0.  0.
         13    1    3    3    0    0  0.13851105105E+03  0.50361524212E+03 -0.66279693548E+03  0.84386811828E+03  0.00000000000E+00 0. -1.
        -13    1    3    3    0    0  0.38320437962E+02  0.44087045836E+03 -0.58267199048E+03  0.73167059905E+03  0.00000000000E+00 0.  1.
         22    1    1    2    0    0 -0.17683148901E+03 -0.94448570048E+03  0.41748619252E+03  0.10476723414E+04  0.00000000000E+00 0.  1.
<mgrwt>
<rscale>  0 0.24891125E+04</rscale>
<asrwt>0</asrwt>
<pdfrwt beam="1">  1        1 0.26547644E+00 0.24891125E+04</pdfrwt>
<pdfrwt beam="2">  1       -1 0.13809449E+00 0.24891125E+04</pdfrwt>
<totfact> 0.17685354E+00</totfact>
</mgrwt>
</event>
<event>
 6    1  0.5196787E-004  0.4571441E+04  0.7818608E-02  0.7898248E-01
         -2   -1    0    0    0  501 -0.00000000000E+00  0.00000000000E+00  0.35423885085E+04  0.35423885085E+04  0.00000000000E+00 0. -1.
          2   -1    0    0  501    0  0.00000000000E+00 -0.00000000000E+00 -0.14748575066E+04  0.14748575066E+04  0.00000000000E+00 0.  1.
         23    2    1    2    0    0 -0.21535071160E+04  0.75495001673E+03  0.90771566074E+03  0.24574190577E+04  0.86129427327E+02 0.  0.
         13    1    3    3    0    0 -0.58453007992E+03  0.24195595076E+03  0.23406633188E+03  0.67454069125E+03  0.00000000000E+00 0. -1.
        -13    1    3    3    0    0 -0.15689770360E+04  0.51299406598E+03  0.67364932887E+03  0.17828783665E+04  0.00000000000E+00 0.  1.
         22    1    1    2    0    0  0.21535071160E+04 -0.75495001673E+03  0.11598153411E+04  0.25598269574E+04  0.00000000000E+00 0.  1.
<mgrwt>
<rscale>  0 0.45714410E+04</rscale>
<asrwt>0</asrwt>
<pdfrwt beam="1">  1        2 0.22690116E+00 0.45714410E+04</pdfrwt>
<pdfrwt beam="2">  1       -2 0.54498284E+00 0.45714410E+04</pdfrwt>
<totfact> 0.90142600E-03</totfact>
</mgrwt>
</event>
<event>
 6    1  0.5196787E-004  0.9805377E+03  0.7818608E-02  0.9330152E-01
         -2   -1    0    0    0  501 -0.00000000000E+00  0.00000000000E+00  0.30185762639E+03  0.30185762639E+03  0.00000000000E+00 0. -1.
          2   -1    0    0  501    0  0.00000000000E+00 -0.00000000000E+00 -0.79628111572E+03  0.79628111572E+03  0.00000000000E+00 0.  1.
         23    2    1    2    0    0  0.12563479287E+03  0.36910483035E+02  0.27451985412E+03  0.31812569712E+03  0.93254082609E+02 0.  0.
         11    1    3    3    0    0  0.45368105066E+02 -0.29267123692E+02  0.67481723664E+02  0.86421134655E+02  0.00000000000E+00 0. -1.
        -11    1    3    3    0    0  0.80266687803E+02  0.66177606727E+02  0.20703813046E+03  0.23170456246E+03  0.00000000000E+00 0.  1.
         22    1    1    2    0    0 -0.12563479287E+03 -0.36910483035E+02 -0.76894334345E+03  0.78001304500E+03  0.00000000000E+00 0.  1.
<mgrwt>
<rscale>  0 0.98053766E+03</rscale>
<asrwt>0</asrwt>
<pdfrwt beam="1">  1        2 0.12250479E+00 0.98053766E+03</pdfrwt>
<pdfrwt beam="2">  1       -2 0.46439635E-01 0.98053766E+03</pdfrwt>
<totfact> 0.15224088E+02</totfact>
</mgrwt>
</event>
<event>
 6    1  0.5196787E-004  0.2008257E+04  0.7818608E-02  0.8602770E-01
         -2   -1    0    0    0  501 -0.00000000000E+00  0.00000000000E+00  0.41053007082E+03  0.41053007082E+03  0.00000000000E+00 0. -1.
          2   -1    0    0  501    0  0.00000000000E+00 -0.00000000000E+00 -0.24560284767E+04  0.24560284767E+04  0.00000000000E+00 0.  1.
         23    2    1    2    0    0  0.11736419220E+03 -0.98882189822E+03 -0.11865067287E+04  0.15514882827E+04  0.88173544950E+02 0.  0.
         13    1    3    3    0    0  0.36220954510E+02 -0.35450951107E+03 -0.36087512597E+03  0.50716842126E+03  0.00000000000E+00 0. -1.
        -13    1    3    3    0    0  0.81143237692E+02 -0.63431238715E+03 -0.82563160277E+03  0.10443198614E+04  0.00000000000E+00 0.  1.
         22    1    1    2    0    0 -0.11736419220E+03  0.98882189822E+03 -0.85899167716E+03  0.13150702648E+04  0.00000000000E+00 0. -1.
<mgrwt>
<rscale>  0 0.20082565E+04</rscale>
<asrwt>0</asrwt>
<pdfrwt beam="1">  1        2 0.37785053E+00 0.20082565E+04</pdfrwt>
<pdfrwt beam="2">  1       -2 0.63158474E-01 0.20082565E+04</pdfrwt>
<totfact> 0.79610432E+00</totfact>
</mgrwt>
</event>
<event>
 6    1  0.5196787E-004  0.1783136E+04  0.7818608E-02  0.8715319E-01
          2   -1    0    0  501    0  0.00000000000E+00  0.00000000000E+00  0.23126920809E+04  0.23126920809E+04  0.00000000000E+00 0.  1.
         -2   -1    0    0    0  501 -0.00000000000E+00 -0.00000000000E+00 -0.34370936566E+03  0.34370936566E+03  0.00000000000E+00 0. -1.
         23    2    1    2    0    0 -0.36628343499E+03 -0.24238791164E+03 -0.16505576228E+03  0.47763214302E+03  0.89295044271E+02 0.  0.
         13    1    3    3    0    0 -0.17779209736E+03 -0.12828147904E+03 -0.12896116548E+03  0.25435634442E+03  0.00000000000E+00 0. -1.
        -13    1    3    3    0    0 -0.18849133763E+03 -0.11410643260E+03 -0.36094596809E+02  0.22327579860E+03  0.00000000000E+00 0.  1.
         22    1    1    2    0    0  0.36628343499E+03  0.24238791164E+03  0.21340384776E+04  0.21787693036E+04  0.00000000000E+00 0.  1.
<mgrwt>
<rscale>  0 0.17831365E+04</rscale>
<asrwt>0</asrwt>
<pdfrwt beam="1">  1        2 0.35579877E+00 0.17831365E+04</pdfrwt>
<pdfrwt beam="2">  1       -2 0.52878365E-01 0.17831365E+04</pdfrwt>
<totfact> 0.14227514E+01</totfact>
</mgrwt>
</event>
<event>
 6    1  0.5196787E-004  0.1132760E+04  0.7818608E-02  0.9173837E-01
          2   -1    0    0  501    0  0.00000000000E+00  0.00000000000E+00  0.19516041554E+03  0.19516041554E+03  0.00000000000E+00 0.  1.
         -2   -1    0    0    0  501 -0.00000000000E+00 -0.00000000000E+00 -0.16437060898E+04  0.16437060898E+04  0.00000000000E+00 0. -1.
         23    2    1    2    0    0  0.25764935112E+03  0.16483203742E+03  0.37718556748E+02  0.32145616102E+03  0.91425298683E+02 0.  0.
         13    1    3    3    0    0  0.88864305776E+02  0.96684987598E+01  0.19302475087E+02  0.91449058244E+02  0.00000000000E+00 0. -1.
        -13    1    3    3    0    0  0.16878504534E+03  0.15516353866E+03  0.18416081662E+02  0.23000710277E+03  0.00000000000E+00 0.  1.
         22    1    1    2    0    0 -0.25764935112E+03 -0.16483203742E+03 -0.14862642310E+04  0.15174103444E+04  0.00000000000E+00 0. -1.
<mgrwt>
<rscale>  0 0.11327601E+04</rscale>
<asrwt>0</asrwt>
<pdfrwt beam="1">  1        2 0.30024680E-01 0.11327601E+04</pdfrwt>
<pdfrwt beam="2">  1       -2 0.25287786E+00 0.11327601E+04</pdfrwt>
<totfact> 0.10922293E+01</totfact>
</mgrwt>
</event>
<event>
 6    1  0.5196787E-004  0.3403119E+04  0.7818608E-02  0.8137141E-01
         -2   -1    0    0    0  501 -0.00000000000E+00  0.00000000000E+00  0.13845635044E+04  0.13845635044E+04  0.00000000000E+00 0. -1.
          2   -1    0    0  501    0  0.00000000000E+00 -0.00000000000E+00 -0.20911316259E+04  0.20911316259E+04  0.00000000000E+00 0.  1.
         23    2    1    2    0    0  0.16427088865E+04  0.43873930791E+03 -0.35883934987E+03  0.17402124987E+04  0.92677913034E+02 0.  0.
         13    1    3    3    0    0  0.99599633622E+03  0.28200276009E+03 -0.17487694163E+03  0.10498172237E+04  0.00000000000E+00 0.  1.
        -13    1    3    3    0    0  0.64671255026E+03  0.15673654782E+03 -0.18396240825E+03  0.69039527499E+03  0.00000000000E+00 0. -1.
         22    1    1    2    0    0 -0.16427088865E+04 -0.43873930791E+03 -0.34772877164E+03  0.17354826316E+04  0.00000000000E+00 0.  1.
<mgrwt>
<rscale>  0 0.34031189E+04</rscale>
<asrwt>0</asrwt>
<pdfrwt beam="1">  1        2 0.32171256E+00 0.34031189E+04</pdfrwt>
<pdfrwt beam="2">  1       -2 0.21300977E+00 0.34031189E+04</pdfrwt>
<totfact> 0.53912369E-01</totfact>
</mgrwt>
</event>
<event>
 6    1  0.6399384E-004  0.4216332E+04  0.7818608E-02  0.7962273E-01
          2   -1    0    0  501    0  0.00000000000E+00  0.00000000000E+00  0.25987409448E+04  0.25987409448E+04  0.00000000000E+00 0.  1.
         -2   -1    0    0    0  501 -0.00000000000E+00 -0.00000000000E+00 -0.17101984993E+04  0.17101984993E+04  0.00000000000E+00 0. -1.
         23    2    1    2    0    0  0.18185002007E+03  0.14913910527E+04  0.19544367187E+04  0.24668082589E+04  0.89461705371E+02 0.  0.
         13    1    3    3    0    0  0.13806229457E+03  0.98321922022E+03  0.12274154858E+04  0.15787115022E+04  0.00000000000E+00 0.  1.
        -13    1    3    3    0    0  0.43787725494E+02  0.50817183252E+03  0.72702123288E+03  0.88809675674E+03  0.00000000000E+00 0. -1.
         22    1    1    2    0    0 -0.18185002007E+03 -0.14913910527E+04 -0.10658942732E+04  0.18421311853E+04  0.00000000000E+00 0. -1.
<mgrwt>
<rscale>  0 0.42163315E+04</rscale>
<asrwt>0</asrwt>
<pdfrwt beam="1">  1        2 0.39980630E+00 0.42163315E+04</pdfrwt>
<pdfrwt beam="2">  1       -2 0.26310746E+00 0.42163315E+04</pdfrwt>
<totfact> 0.12620150E-01</totfact>
</mgrwt>
</event>
<event>
 6    1  0.5196787E-004  0.2437667E+04  0.7818608E-02  0.8425535E-01
          2   -1    0    0  501    0  0.00000000000E+00  0.00000000000E+00  0.14530691669E+04  0.14530691669E+04  0.00000000000E+00 0.  1.
         -2   -1    0    0    0  501 -0.00000000000E+00 -0.00000000000E+00 -0.10223568942E+04  0.10223568942E+04  0.00000000000E+00 0. -1.
         23    2    1    2    0    0  0.67409892077E+03 -0.41811331561E+03  0.11528770787E+04  0.14026958497E+04  0.95926995688E+02 0.  0.
         11    1    3    3    0    0  0.32423870031E+03 -0.25738260126E+03  0.59159910981E+03  0.72205681559E+03  0.00000000000E+00 0. -1.
        -11    1    3    3    0    0  0.34986022046E+03 -0.16073071435E+03  0.56127796886E+03  0.68063903409E+03  0.00000000000E+00 0.  1.
         22    1    1    2    0    0 -0.67409892077E+03  0.41811331561E+03 -0.72216480594E+03  0.10727302115E+04  0.00000000000E+00 0. -1.
<mgrwt>
<rscale>  0 0.24376671E+04</rscale>
<asrwt>0</asrwt>
<pdfrwt beam="1">  1        2 0.22354910E+00 0.24376671E+04</pdfrwt>
<pdfrwt beam="2">  1       -2 0.15728568E+00 0.24376671E+04</pdfrwt>
<totfact> 0.31930247E+00</totfact>
</mgrwt>
</event>
<event>
 6    1  0.5196787E-004  0.3287542E+04  0.7818608E-02  0.8166073E-01
         -2   -1    0    0    0  501 -0.00000000000E+00  0.00000000000E+00  0.13463310485E+04  0.13463310485E+04  0.00000000000E+00 0. -1.
          2   -1    0    0  501    0  0.00000000000E+00 -0.00000000000E+00 -0.20069232846E+04  0.20069232846E+04  0.00000000000E+00 0.  1.
         23    2    1    2    0    0  0.87566795402E+03 -0.37234756488E+03  0.10349469665E+04  0.14089574776E+04  0.92784026861E+02 0.  0.
         13    1    3    3    0    0  0.23612292399E+03 -0.14497035943E+03  0.31383409049E+03  0.41864337652E+03  0.00000000000E+00 0. -1.
        -13    1    3    3    0    0  0.63954503002E+03 -0.22737720545E+03  0.72111287598E+03  0.99031410112E+03  0.00000000000E+00 0.  1.
         22    1    1    2    0    0 -0.87566795402E+03  0.37234756488E+03 -0.16955392026E+04  0.19442968555E+04  0.00000000000E+00 0.  1.
<mgrwt>
<rscale>  0 0.32875420E+04</rscale>
<asrwt>0</asrwt>
<pdfrwt beam="1">  1        2 0.30875743E+00 0.32875420E+04</pdfrwt>
<pdfrwt beam="2">  1       -2 0.20712785E+00 0.32875420E+04</pdfrwt>
<totfact> 0.66167127E-01</totfact>
</mgrwt>
</event>
<event>
 6    1  0.5196787E-004  0.2734849E+04  0.7818608E-02  0.8323786E-01
          2   -1    0    0  501    0  0.00000000000E+00  0.00000000000E+00  0.98293919826E+03  0.98293919826E+03  0.00000000000E+00 0.  1.
         -2   -1    0    0    0  501 -0.00000000000E+00 -0.00000000000E+00 -0.19023042087E+04  0.19023042087E+04  0.00000000000E+00 0. -1.
         23    2    1    2    0    0  0.10917356296E+04  0.80619951442E+03 -0.29750993111E+03  0.13924111720E+04  0.91936776324E+02 0.  0.
         11    1    3    3    0    0  0.31202153106E+03  0.21583219567E+03 -0.42920453371E+02  0.38181558095E+03  0.00000000000E+00 0. -1.
        -11    1    3    3    0    0  0.77971409853E+03  0.59036731875E+03 -0.25458947774E+03  0.10105955911E+04  0.00000000000E+00 0.  1.
         22    1    1    2    0    0 -0.10917356296E+04 -0.80619951442E+03 -0.62185507931E+03  0.14928322349E+04  0.00000000000E+00 0.  1.
<mgrwt>
<rscale>  0 0.27348487E+04</rscale>
<asrwt>0</asrwt>
<pdfrwt beam="1">  1        2 0.15122142E+00 0.27348487E+04</pdfrwt>
<pdfrwt beam="2">  1       -2 0.29266218E+00 0.27348487E+04</pdfrwt>
<totfact> 0.79657287E-01</totfact>
</mgrwt>
</event>
<event>
 6    1  0.5196787E-004  0.1745563E+04  0.7818608E-02  0.8735796E-01
         -2   -1    0    0    0  501 -0.00000000000E+00  0.00000000000E+00  0.42264595217E+03  0.42264595217E+03  0.00000000000E+00 0. -1.
          2   -1    0    0  501    0  0.00000000000E+00 -0.00000000000E+00 -0.18023304881E+04  0.18023304881E+04  0.00000000000E+00 0.  1.
         23    2    1    2    0    0  0.38019625570E+03  0.11032021190E+03  0.29624134486E+03  0.50292902516E+03  0.91972430329E+02 0.  0.
         11    1    3    3    0    0  0.16051687603E+03  0.57491256479E+02  0.18327122094E+03  0.25031830234E+03  0.00000000000E+00 0. -1.
        -11    1    3    3    0    0  0.21967937967E+03  0.52828955422E+02  0.11297012392E+03  0.25261072282E+03  0.00000000000E+00 0.  1.
         22    1    1    2    0    0 -0.38019625570E+03 -0.11032021190E+03 -0.16759258808E+04  0.17220474152E+04  0.00000000000E+00 0.  1.
<mgrwt>
<rscale>  0 0.17455632E+04</rscale>
<asrwt>0</asrwt>
<pdfrwt beam="1">  1        2 0.27728161E+00 0.17455632E+04</pdfrwt>
<pdfrwt beam="2">  1       -2 0.65022456E-01 0.17455632E+04</pdfrwt>
<totfact> 0.17793145E+01</totfact>
</mgrwt>
</event>
<event>
 6    1  0.5196787E-004  0.3938028E+04  0.7818608E-02  0.8017166E-01
         -2   -1    0    0    0  501 -0.00000000000E+00  0.00000000000E+00  0.12329591709E+04  0.12329591709E+04  0.00000000000E+00 0. -1.
          2   -1    0    0  501    0  0.00000000000E+00 -0.00000000000E+00 -0.31444801418E+04  0.31444801418E+04  0.00000000000E+00 0.  1.
         23    2    1    2    0    0  0.11392247974E+04 -0.12392328763E+04 -0.20895726048E+04  0.26847392078E+04  0.89329068685E+02 0.  0.
         13    1    3    3    0    0  0.77476806315E+03 -0.78529810158E+03 -0.13947827507E+04  0.17783075048E+04  0.00000000000E+00 0. -1.
        -13    1    3    3    0    0  0.36445673423E+03 -0.45393477470E+03 -0.69478985408E+03  0.90643170297E+03  0.00000000000E+00 0.  1.
         22    1    1    2    0    0 -0.11392247974E+04  0.12392328763E+04  0.17805163385E+03  0.16927001049E+04  0.00000000000E+00 0. -1.
<mgrwt>
<rscale>  0 0.39380277E+04</rscale>
<asrwt>0</asrwt>
<pdfrwt beam="1">  1        2 0.48376616E+00 0.39380277E+04</pdfrwt>
<pdfrwt beam="2">  1       -2 0.18968603E+00 0.39380277E+04</pdfrwt>
<totfact> 0.17383809E-01</totfact>
</mgrwt>
</event>
<event>
 6    1  0.5196787E-004  0.1380465E+04  0.7818608E-02  0.8968081E-01
          2   -1    0    0  501    0  0.00000000000E+00  0.00000000000E+00  0.24774650990E+04  0.24774650990E+04  0.00000000000E+00 0.  1.
         -2   -1    0    0    0  501 -0.00000000000E+00 -0.00000000000E+00 -0.19230182155E+03  0.19230182155E+03  0.00000000000E+00 0. -1.
         23    2    1    2    0    0 -0.20531687105E+03  0.62845414870E+03  0.78538672553E+03  0.10307308196E+04  0.92000430723E+02 0.  0.
         13    1    3    3    0    0 -0.69023022992E+02  0.10801318443E+03  0.12634435441E+03  0.17998311478E+03  0.00000000000E+00 0. -1.
        -13    1    3    3    0    0 -0.13629384805E+03  0.52044096427E+03  0.65904237112E+03  0.85074770481E+03  0.00000000000E+00 0.  1.
         22    1    1    2    0    0  0.20531687105E+03 -0.62845414870E+03  0.14997765520E+04  0.16390361010E+04  0.00000000000E+00 0. -1.
<mgrwt>
<rscale>  0 0.13804652E+04</rscale>
<asrwt>0</asrwt>
<pdfrwt beam="1">  1        2 0.38114845E+00 0.13804652E+04</pdfrwt>
<pdfrwt beam="2">  1       -2 0.29584897E-01 0.13804652E+04</pdfrwt>
<totfact> 0.36934522E+01</totfact>
</mgrwt>
</event>
<event>
 6    1  0.5196787E-004  0.4126284E+04  0.7818608E-02  0.7979545E-01
         -2   -1    0    0    0  501 -0.00000000000E+00  0.00000000000E+00  0.32869840806E+04  0.32869840806E+04  0.00000000000E+00 0. -1.
          2   -1    0    0  501    0  0.00000000000E+00 -0.00000000000E+00 -0.12949727616E+04  0.12949727616E+04  0.00000000000E+00 0.  1.
         23    2    1    2    0    0  0.44288033599E+02  0.20448258568E+04  0.12882619291E+04  0.24189641426E+04  0.92165668447E+02 0.  0.
         11    1    3    3    0    0 -0.28169727897E+02  0.44771146602E+03  0.28741678584E+03  0.53277340320E+03  0.00000000000E+00 0. -1.
        -11    1    3    3    0    0  0.72457761496E+02  0.15971143908E+04  0.10008451432E+04  0.18861907394E+04  0.00000000000E+00 0.  1.
         22    1    1    2    0    0 -0.44288033599E+02 -0.20448258568E+04  0.70374938995E+03  0.21629926996E+04  0.00000000000E+00 0.  1.
<mgrwt>
<rscale>  0 0.41262840E+04</rscale>
<asrwt>0</asrwt>
<pdfrwt beam="1">  1        2 0.19922658E+00 0.41262840E+04</pdfrwt>
<pdfrwt beam="2">  1       -2 0.50568986E+00 0.41262840E+04</pdfrwt>
<totfact> 0.19817556E-02</totfact>
</mgrwt>
</event>
<event>
 6    1  0.5196787E-004  0.3955762E+04  0.7818608E-02  0.8013531E-01
          2   -1    0    0  501    0  0.00000000000E+00  0.00000000000E+00  0.26977734629E+04  0.26977734629E+04  0.00000000000E+00 0.  1.
         -2   -1    0    0    0  501 -0.00000000000E+00 -0.00000000000E+00 -0.14500897884E+04  0.14500897884E+04  0.00000000000E+00 0. -1.
         23    2    1    2    0    0 -0.16797733183E+04 -0.34463651856E+03  0.16553102131E+04  0.23853161950E+04  0.96274178981E+02 0.  0.
         13    1    3    3    0    0 -0.11440631005E+04 -0.23067886368E+03  0.11877900637E+04  0.16652142060E+04  0.00000000000E+00 0.  1.
        -13    1    3    3    0    0 -0.53571021778E+03 -0.11395765488E+03  0.46752014933E+03  0.72010198900E+03  0.00000000000E+00 0. -1.
         22    1    1    2    0    0  0.16797733183E+04  0.34463651856E+03 -0.40762653851E+03  0.17625470563E+04  0.00000000000E+00 0. -1.
<mgrwt>
<rscale>  0 0.39557623E+04</rscale>
<asrwt>0</asrwt>
<pdfrwt beam="1">  1        2 0.41504207E+00 0.39557623E+04</pdfrwt>
<pdfrwt beam="2">  1       -2 0.22309074E+00 0.39557623E+04</pdfrwt>
<totfact> 0.19921733E-01</totfact>
</mgrwt>
</event>
<event>
 6    1  0.5196787E-004  0.2494026E+04  0.7818608E-02  0.8405117E-01
          2   -1    0    0  501    0  0.00000000000E+00  0.00000000000E+00  0.16489606423E+04  0.16489606423E+04  0.00000000000E+00 0.  1.
         -2   -1    0    0    0  501 -0.00000000000E+00 -0.00000000000E+00 -0.94304316816E+03  0.94304316816E+03  0.00000000000E+00 0. -1.
         23    2    1    2    0    0 -0.72216901472E+03 -0.33593754329E+03  0.13483963360E+04  0.15686948606E+04  0.90822728188E+02 0.  0.
         13    1    3    3    0    0 -0.47210641424E+03 -0.17304394567E+03  0.86945475371E+03  0.10043805266E+04  0.00000000000E+00 0. -1.
        -13    1    3    3    0    0 -0.25006260048E+03 -0.16289359762E+03  0.47894158233E+03  0.56431433403E+03  0.00000000000E+00 0.  1.
         22    1    1    2    0    0  0.72216901472E+03  0.33593754329E+03 -0.64247886189E+03  0.10233089498E+04  0.00000000000E+00 0. -1.
<mgrwt>
<rscale>  0 0.24940257E+04</rscale>
<asrwt>0</asrwt>
<pdfrwt beam="1">  1        2 0.25368625E+00 0.24940257E+04</pdfrwt>
<pdfrwt beam="2">  1       -2 0.14508356E+00 0.24940257E+04</pdfrwt>
<totfact> 0.30574492E+00</totfact>
</mgrwt>
</event>
<event>
 6    1  0.5196787E-004  0.2195096E+04  0.7818608E-02  0.8520472E-01
          2   -1    0    0  501    0  0.00000000000E+00  0.00000000000E+00  0.20051617220E+04  0.20051617220E+04  0.00000000000E+00 0.  1.
         -2   -1    0    0    0  501 -0.00000000000E+00 -0.00000000000E+00 -0.60075511826E+03  0.60075511826E+03  0.00000000000E+00 0. -1.
         23    2    1    2    0    0  0.93661435606E+02  0.40575226620E+03 -0.50007297551E+03  0.65644259477E+03  0.86235336971E+02 0.  0.
         11    1    3    3    0    0  0.96063360683E+02  0.25368479271E+03 -0.28998966662E+03  0.39708708121E+03  0.00000000000E+00 0. -1.
        -11    1    3    3    0    0 -0.24019250773E+01  0.15206747349E+03 -0.21008330889E+03  0.25935551356E+03  0.00000000000E+00 0.  1.
         22    1    1    2    0    0 -0.93661435606E+02 -0.40575226620E+03  0.19044795793E+04  0.19494742455E+04  0.00000000000E+00 0.  1.
<mgrwt>
<rscale>  0 0.21950956E+04</rscale>
<asrwt>0</asrwt>
<pdfrwt beam="1">  1        2 0.30848641E+00 0.21950956E+04</pdfrwt>
<pdfrwt beam="2">  1       -2 0.92423866E-01 0.21950956E+04</pdfrwt>
<totfact> 0.60303368E+00</totfact>
</mgrwt>
</event>
<event>
 6    1  0.5196787E-004  0.1085926E+04  0.7818608E-02  0.9219018E-01
          4   -1    0    0  501    0  0.00000000000E+00  0.00000000000E+00  0.35093974596E+03  0.35093974596E+03  0.00000000000E+00 0.  1.
         -4   -1    0    0    0  501 -0.00000000000E+00 -0.00000000000E+00 -0.84005603428E+03  0.84005603428E+03  0.00000000000E+00 0. -1.
         23    2    1    2    0    0 -0.11552442040E+02 -0.49526782767E+03 -0.47950085559E+03  0.69549993102E+03  0.91517230533E+02 0.  0.
         11    1    3    3    0    0 -0.32647881949E+02 -0.21871146419E+03 -0.26322355916E+03  0.34378369778E+03  0.00000000000E+00 0. -1.
        -11    1    3    3    0    0  0.21095439909E+02 -0.27655636348E+03 -0.21627729643E+03  0.35171623323E+03  0.00000000000E+00 0.  1.
         22    1    1    2    0    0  0.11552442040E+02  0.49526782767E+03 -0.96154327279E+01  0.49549584922E+03  0.00000000000E+00 0.  1.
<mgrwt>
<rscale>  0 0.10859264E+04</rscale>
<asrwt>0</asrwt>
<pdfrwt beam="1">  1        4 0.53990730E-01 0.10859264E+04</pdfrwt>
<pdfrwt beam="2">  1       -4 0.12923939E+00 0.10859264E+04</pdfrwt>
<totfact> 0.28523399E+00</totfact>
</mgrwt>
</event>
<event>
 6    1  0.5196787E-004  0.2152518E+04  0.7818608E-02  0.8538455E-01
          1   -1    0    0  501    0  0.00000000000E+00  0.00000000000E+00  0.24163535424E+04  0.24163535424E+04  0.00000000000E+00 0.  1.
         -1   -1    0    0    0  501 -0.00000000000E+00 -0.00000000000E+00 -0.47937268159E+03  0.47937268159E+03  0.00000000000E+00 0. -1.
         23    2    1    2    0    0 -0.69655197454E+03 -0.78130224594E+03  0.64534510623E+03  0.12332158405E+04  0.93451326206E+02 0.  0.
         13    1    3    3    0    0 -0.62007228485E+03 -0.73439358808E+03  0.58926321517E+03  0.11274106250E+04  0.00000000000E+00 0. -1.
        -13    1    3    3    0    0 -0.76479689687E+02 -0.46908657854E+02  0.56081891061E+02  0.10580521547E+03  0.00000000000E+00 0.  1.
         22    1    1    2    0    0  0.69655197454E+03  0.78130224594E+03  0.12916357546E+04  0.16625103835E+04  0.00000000000E+00 0.  1.
<mgrwt>
<rscale>  0 0.21525184E+04</rscale>
<asrwt>0</asrwt>
<pdfrwt beam="1">  1        1 0.37174669E+00 0.21525184E+04</pdfrwt>
<pdfrwt beam="2">  1       -1 0.73749644E-01 0.21525184E+04</pdfrwt>
<totfact> 0.26244561E+00</totfact>
</mgrwt>
</event>
<event>
 6    1  0.5196787E-004  0.2612888E+04  0.7818608E-02  0.8363837E-01
         -2   -1    0    0    0  501 -0.00000000000E+00  0.00000000000E+00  0.11942475284E+04  0.11942475284E+04  0.00000000000E+00 0. -1.
          2   -1    0    0  501    0  0.00000000000E+00 -0.00000000000E+00 -0.14291807027E+04  0.14291807027E+04  0.00000000000E+00 0.  1.
         23    2    1    2    0    0  0.37749948918E+03  0.64019226215E+02 -0.13700645230E+04  0.14254601579E+04  0.90859996647E+02 0.  0.
         11    1    3    3    0    0  0.13146166345E+03 -0.19035381211E+02 -0.51313929088E+03  0.53005324877E+03  0.00000000000E+00 0. -1.
        -11    1    3    3    0    0  0.24603782573E+03  0.83054607425E+02 -0.85692523215E+03  0.89540690917E+03  0.00000000000E+00 0.  1.
         22    1    1    2    0    0 -0.37749948918E+03 -0.64019226215E+02  0.11351313487E+04  0.11979680732E+04  0.00000000000E+00 0. -1.
<mgrwt>
<rscale>  0 0.26128877E+04</rscale>
<asrwt>0</asrwt>
<pdfrwt beam="1">  1        2 0.21987395E+00 0.26128877E+04</pdfrwt>
<pdfrwt beam="2">  1       -2 0.18373039E+00 0.26128877E+04</pdfrwt>
<totfact> 0.21034566E+00</totfact>
</mgrwt>
</event>
<event>
 6    1  0.5196787E-004  0.1993117E+04  0.7818608E-02  0.8609845E-01
         -1   -1    0    0    0  501 -0.00000000000E+00  0.00000000000E+00  0.89154589501E+03  0.89154589501E+03  0.00000000000E+00 0.  1.
          1   -1    0    0  501    0  0.00000000000E+00 -0.00000000000E+00 -0.11139401388E+04  0.11139401388E+04  0.00000000000E+00 0. -1.
         23    2    1    2    0    0 -0.33183896339E+03 -0.14394061963E+03  0.82086968398E+03  0.90129600371E+03  0.87586806242E+02 0.  0.
         13    1    3    3    0    0 -0.17498874442E+03 -0.42381907478E+02  0.32755003158E+03  0.37377307279E+03  0.00000000000E+00 0.  1.
        -13    1    3    3    0    0 -0.15685021897E+03 -0.10155871215E+03  0.49331965240E+03  0.52752293092E+03  0.00000000000E+00 0. -1.
         22    1    1    2    0    0  0.33183896339E+03  0.14394061963E+03 -0.10432639278E+04  0.11041900301E+04  0.00000000000E+00 0. -1.
<mgrwt>
<rscale>  0 0.19931169E+04</rscale>
<asrwt>0</asrwt>
<pdfrwt beam="1">  1        1 0.17137541E+00 0.19931169E+04</pdfrwt>
<pdfrwt beam="2">  1       -1 0.13716091E+00 0.19931169E+04</pdfrwt>
<totfact> 0.50798893E+00</totfact>
</mgrwt>
</event>
<event>
 6    1  0.5196787E-004  0.1267313E+04  0.7818608E-02  0.9055896E-01
          2   -1    0    0  501    0  0.00000000000E+00  0.00000000000E+00  0.11762675909E+04  0.11762675909E+04  0.00000000000E+00 0.  1.
         -2   -1    0    0    0  501 -0.00000000000E+00 -0.00000000000E+00 -0.34135135510E+03  0.34135135510E+03  0.00000000000E+00 0. -1.
         23    2    1    2    0    0 -0.70917251350E+02  0.54981858624E+03  0.77846721242E+03  0.96037911747E+03  0.94800391052E+02 0.  0.
         11    1    3    3    0    0  0.60124800155E+01  0.29587586871E+03  0.37979947589E+03  0.48148345920E+03  0.00000000000E+00 0. -1.
        -11    1    3    3    0    0 -0.76929731366E+02  0.25394271752E+03  0.39866773653E+03  0.47889565826E+03  0.00000000000E+00 0.  1.
         22    1    1    2    0    0  0.70917251350E+02 -0.54981858624E+03  0.56449023428E+02  0.55723982858E+03  0.00000000000E+00 0.  1.
<mgrwt>
<rscale>  0 0.12673130E+04</rscale>
<asrwt>0</asrwt>
<pdfrwt beam="1">  1        2 0.18096424E+00 0.12673130E+04</pdfrwt>
<pdfrwt beam="2">  1       -2 0.52515594E-01 0.12673130E+04</pdfrwt>
<totfact> 0.65775012E+01</totfact>
</mgrwt>
</event>
<event>
 6    1  0.5196787E-004  0.1501975E+04  0.7818608E-02  0.8883141E-01
          2   -1    0    0  501    0  0.00000000000E+00  0.00000000000E+00  0.65631408837E+03  0.65631408837E+03  0.00000000000E+00 0.  1.
         -2   -1    0    0    0  501 -0.00000000000E+00 -0.00000000000E+00 -0.85931770081E+03  0.85931770081E+03  0.00000000000E+00 0. -1.
         23    2    1    2    0    0  0.46981505525E+03 -0.95509538044E+02  0.47782702596E+03  0.68293819837E+03  0.90761545014E+02 0.  0.
         13    1    3    3    0    0  0.10886762716E+03 -0.38707630958E+02  0.68808487059E+02  0.13448066341E+03  0.00000000000E+00 0. -1.
        -13    1    3    3    0    0  0.36094742809E+03 -0.56801907086E+02  0.40901853890E+03  0.54845753496E+03  0.00000000000E+00 0.  1.
         22    1    1    2    0    0 -0.46981505525E+03  0.95509538044E+02 -0.68083063840E+03  0.83269359081E+03  0.00000000000E+00 0. -1.
<mgrwt>
<rscale>  0 0.15019751E+04</rscale>
<asrwt>0</asrwt>
<pdfrwt beam="1">  1        2 0.10097140E+00 0.15019751E+04</pdfrwt>
<pdfrwt beam="2">  1       -2 0.13220272E+00 0.15019751E+04</pdfrwt>
<totfact> 0.17853916E+01</totfact>
</mgrwt>
</event>
<event>
 6    1  0.5196787E-004  0.2748297E+04  0.7818608E-02  0.8319502E-01
          2   -1    0    0  501    0  0.00000000000E+00  0.00000000000E+00  0.14875437345E+04  0.14875437345E+04  0.00000000000E+00 0.  1.
         -2   -1    0    0    0  501 -0.00000000000E+00 -0.00000000000E+00 -0.12693977519E+04  0.12693977519E+04  0.00000000000E+00 0. -1.
         23    2    1    2    0    0  0.12348568013E+03 -0.59180700715E+03 -0.11270269775E+04  0.12821619980E+04  0.90913883626E+02 0.  0.
         11    1    3    3    0    0  0.13674129843E+03 -0.49357836150E+03 -0.93747801219E+03  0.10682615808E+04  0.00000000000E+00 0. -1.
        -11    1    3    3    0    0 -0.13255618298E+02 -0.98228645652E+02 -0.18954896530E+03  0.21390041722E+03  0.00000000000E+00 0.  1.
         22    1    1    2    0    0 -0.12348568013E+03  0.59180700715E+03  0.13451729600E+04  0.14747794884E+04  0.00000000000E+00 0.  1.
<mgrwt>
<rscale>  0 0.27482974E+04</rscale>
<asrwt>0</asrwt>
<pdfrwt beam="1">  1        2 0.22885288E+00 0.27482974E+04</pdfrwt>
<pdfrwt beam="2">  1       -2 0.19529196E+00 0.27482974E+04</pdfrwt>
<totfact> 0.16109663E+00</totfact>
</mgrwt>
</event>
<event>
 6    1  0.5196787E-004  0.2334521E+04  0.7818608E-02  0.8464433E-01
          2   -1    0    0  501    0  0.00000000000E+00  0.00000000000E+00  0.57036301728E+03  0.57036301728E+03  0.00000000000E+00 0.  1.
         -2   -1    0    0    0  501 -0.00000000000E+00 -0.00000000000E+00 -0.23888249723E+04  0.23888249723E+04  0.00000000000E+00 0. -1.
         23    2    1    2    0    0 -0.89204002217E+03  0.60379665567E+03 -0.34667345098E+03  0.11353274677E+04  0.92087864481E+02 0.  0.
         13    1    3    3    0    0 -0.53682699664E+03  0.40171575078E+03 -0.24822325073E+03  0.71496402074E+03  0.00000000000E+00 0. -1.
        -13    1    3    3    0    0 -0.35521302553E+03  0.20208090490E+03 -0.98450200256E+02  0.42036344698E+03  0.00000000000E+00 0.  1.
         22    1    1    2    0    0  0.89204002217E+03 -0.60379665567E+03 -0.14717885040E+04  0.18238605218E+04  0.00000000000E+00 0. -1.
<mgrwt>
<rscale>  0 0.23345213E+04</rscale>
<asrwt>0</asrwt>
<pdfrwt beam="1">  1        2 0.87748155E-01 0.23345213E+04</pdfrwt>
<pdfrwt beam="2">  1       -2 0.36751154E+00 0.23345213E+04</pdfrwt>
<totfact> 0.57458864E-01</totfact>
</mgrwt>
</event>
<event>
 6    1  0.5196787E-004  0.1260777E+04  0.7818608E-02  0.9061261E-01
          2   -1    0    0  501    0  0.00000000000E+00  0.00000000000E+00  0.24660843110E+04  0.24660843110E+04  0.00000000000E+00 0.  1.
         -2   -1    0    0    0  501 -0.00000000000E+00 -0.00000000000E+00 -0.16114195714E+03  0.16114195714E+03  0.00000000000E+00 0. -1.
         23    2    1    2    0    0 -0.62053737509E+03  0.54845744978E+02  0.10087646623E+04  0.11891194231E+04  0.91236883462E+02 0.  0.
         11    1    3    3    0    0 -0.18525766708E+03  0.10517544242E+02  0.22642857419E+03  0.29274719668E+03  0.00000000000E+00 0.  1.
        -11    1    3    3    0    0 -0.43527970801E+03  0.44328200736E+02  0.78233608810E+03  0.89637222643E+03  0.00000000000E+00 0. -1.
         22    1    1    2    0    0  0.62053737509E+03 -0.54845744978E+02  0.12961776916E+04  0.14381068451E+04  0.00000000000E+00 0.  1.
<mgrwt>
<rscale>  0 0.12607770E+04</rscale>
<asrwt>0</asrwt>
<pdfrwt beam="1">  1        2 0.37939756E+00 0.12607770E+04</pdfrwt>
<pdfrwt beam="2">  1       -2 0.24791072E-01 0.12607770E+04</pdfrwt>
<totfact> 0.52396923E+01</totfact>
</mgrwt>
</event>
<event>
 6    1  0.5196787E-004  0.9461260E+03  0.7818608E-02  0.9369690E-01
          2   -1    0    0  501    0  0.00000000000E+00  0.00000000000E+00  0.96192347550E+03  0.96192347550E+03  0.00000000000E+00 0.  1.
         -2   -1    0    0    0  501 -0.00000000000E+00 -0.00000000000E+00 -0.23264698081E+03  0.23264698081E+03  0.00000000000E+00 0. -1.
         23    2    1    2    0    0  0.12899449435E+03  0.44552775141E+03  0.45269822901E+03  0.65454259231E+03  0.91409855916E+02 0.  0.
         13    1    3    3    0    0 -0.24218201289E+01  0.27250803626E+02  0.48035863374E+01  0.27776716017E+02  0.00000000000E+00 0. -1.
        -13    1    3    3    0    0  0.13141631448E+03  0.41827694778E+03  0.44789464267E+03  0.62676587630E+03  0.00000000000E+00 0.  1.
         22    1    1    2    0    0 -0.12899449435E+03 -0.44552775141E+03  0.27657826569E+03  0.54002786400E+03  0.00000000000E+00 0. -1.
<mgrwt>
<rscale>  0 0.94612598E+03</rscale>
<asrwt>0</asrwt>
<pdfrwt beam="1">  1        2 0.14798822E+00 0.94612598E+03</pdfrwt>
<pdfrwt beam="2">  1       -2 0.35791844E-01 0.94612598E+03</pdfrwt>
<totfact> 0.19563088E+02</totfact>
</mgrwt>
</event>
<event>
 6    1  0.5196787E-004  0.6439740E+03  0.7818608E-02  0.9818153E-01
         -2   -1    0    0    0  501 -0.00000000000E+00  0.00000000000E+00  0.75938846154E+02  0.75938846154E+02  0.00000000000E+00 0. -1.
          2   -1    0    0  501    0  0.00000000000E+00 -0.00000000000E+00 -0.13652517483E+04  0.13652517483E+04  0.00000000000E+00 0.  1.
         23    2    1    2    0    0 -0.19398010756E+03 -0.18287384950E+03 -0.28015487406E+03  0.39741329415E+03  0.91539313686E+02 0.  0.
         11    1    3    3    0    0 -0.17944062862E+03 -0.11655471962E+03 -0.21354721100E+03  0.30230175850E+03  0.00000000000E+00 0. -1.
        -11    1    3    3    0    0 -0.14539478941E+02 -0.66319129889E+02 -0.66607663055E+02  0.95111535656E+02  0.00000000000E+00 0.  1.
         22    1    1    2    0    0  0.19398010756E+03  0.18287384950E+03 -0.10091580281E+04  0.10437773003E+04  0.00000000000E+00 0.  1.
<mgrwt>
<rscale>  0 0.64397404E+03</rscale>
<asrwt>0</asrwt>
<pdfrwt beam="1">  1        2 0.21003872E+00 0.64397404E+03</pdfrwt>
<pdfrwt beam="2">  1       -2 0.11682900E-01 0.64397404E+03</pdfrwt>
<totfact> 0.81750426E+02</totfact>
</mgrwt>
</event>
<event>
 6    1  0.5196787E-004  0.2675342E+04  0.7818608E-02  0.8343050E-01
          2   -1    0    0  501    0  0.00000000000E+00  0.00000000000E+00  0.16632392968E+04  0.16632392968E+04  0.00000000000E+00 0.  1.
         -2   -1    0    0    0  501 -0.00000000000E+00 -0.00000000000E+00 -0.10758308826E+04  0.10758308826E+04  0.00000000000E+00 0. -1.
         23    2    1    2    0    0 -0.30111713906E+03  0.97274061295E+03  0.11796162822E+04  0.15611032908E+04  0.93021932932E+02 0.  0.
         11    1    3    3    0    0 -0.25492367906E+03  0.68199424647E+03  0.83320865019E+03  0.11064984813E+04  0.00000000000E+00 0. -1.
        -11    1    3    3    0    0 -0.46193459996E+02  0.29074636648E+03  0.34640763198E+03  0.45460480955E+03  0.00000000000E+00 0.  1.
         22    1    1    2    0    0  0.30111713906E+03 -0.97274061295E+03 -0.59220786804E+03  0.11779668885E+04  0.00000000000E+00 0. -1.
<mgrwt>
<rscale>  0 0.26753424E+04</rscale>
<asrwt>0</asrwt>
<pdfrwt beam="1">  1        2 0.25588297E+00 0.26753424E+04</pdfrwt>
<pdfrwt beam="2">  1       -2 0.16551244E+00 0.26753424E+04</pdfrwt>
<totfact> 0.20748285E+00</totfact>
</mgrwt>
</event>
<event>
 6    1  0.5196787E-004  0.1707303E+04  0.7818608E-02  0.8757210E-01
          2   -1    0    0  501    0  0.00000000000E+00  0.00000000000E+00  0.28629502805E+04  0.28629502805E+04  0.00000000000E+00 0.  1.
         -2   -1    0    0    0  501 -0.00000000000E+00 -0.00000000000E+00 -0.25453506038E+03  0.25453506038E+03  0.00000000000E+00 0. -1.
         23    2    1    2    0    0 -0.19109754868E+03  0.56815818595E+03  0.24115728815E+04  0.24865583216E+04  0.89255401059E+02 0.  0.
         11    1    3    3    0    0 -0.97907741168E+02  0.16399369906E+03  0.72581878953E+03  0.75052833015E+03  0.00000000000E+00 0. -1.
        -11    1    3    3    0    0 -0.93189807509E+02  0.40416448689E+03  0.16857540920E+04  0.17360299915E+04  0.00000000000E+00 0.  1.
         22    1    1    2    0    0  0.19109754868E+03 -0.56815818595E+03  0.19684233864E+03  0.63092701928E+03  0.00000000000E+00 0. -1.
<mgrwt>
<rscale>  0 0.17073034E+04</rscale>
<asrwt>0</asrwt>
<pdfrwt beam="1">  1        2 0.44045387E+00 0.17073034E+04</pdfrwt>
<pdfrwt beam="2">  1       -2 0.39159242E-01 0.17073034E+04</pdfrwt>
<totfact> 0.12459441E+01</totfact>
</mgrwt>
</event>
<event>
 6    1  0.5196787E-004  0.3071019E+04  0.7818608E-02  0.8223737E-01
         -2   -1    0    0    0  501 -0.00000000000E+00  0.00000000000E+00  0.14350987038E+04  0.14350987038E+04  0.00000000000E+00 0.  1.
          2   -1    0    0  501    0  0.00000000000E+00 -0.00000000000E+00 -0.16429462304E+04  0.16429462304E+04  0.00000000000E+00 0. -1.
         23    2    1    2    0    0 -0.90397292419E+03 -0.11354637817E+04  0.39424206591E+03  0.15067534512E+04  0.91837404820E+02 0.  0.
         11    1    3    3    0    0 -0.19421334714E+03 -0.18887680057E+03  0.83816337132E+02  0.28358146690E+03  0.00000000000E+00 0. -1.
        -11    1    3    3    0    0 -0.70975957705E+03 -0.94658698115E+03  0.31042572878E+03  0.12231719843E+04  0.00000000000E+00 0.  1.
         22    1    1    2    0    0  0.90397292419E+03  0.11354637817E+04 -0.60208959252E+03  0.15712914830E+04  0.00000000000E+00 0.  1.
<mgrwt>
<rscale>  0 0.30710194E+04</rscale>
<asrwt>0</asrwt>
<pdfrwt beam="1">  1        2 0.25276096E+00 0.30710194E+04</pdfrwt>
<pdfrwt beam="2">  1       -2 0.22078442E+00 0.30710194E+04</pdfrwt>
<totfact> 0.87753777E-01</totfact>
</mgrwt>
</event>
<event>
 6    1  0.5196787E-004  0.2408614E+04  0.7818608E-02  0.8436286E-01
          2   -1    0    0  501    0  0.00000000000E+00  0.00000000000E+00  0.13318279147E+04  0.13318279147E+04  0.00000000000E+00 0.  1.
         -2   -1    0    0    0  501 -0.00000000000E+00 -0.00000000000E+00 -0.10889959997E+04  0.10889959997E+04  0.00000000000E+00 0. -1.
         23    2    1    2    0    0  0.88719852626E+03  0.64129365849E+03  0.62243575434E+03  0.12621704476E+04  0.85259539171E+02 0.  0.
         13    1    3    3    0    0  0.77859013402E+03  0.52636409936E+03  0.52770257736E+03  0.10778366166E+04  0.00000000000E+00 0.  1.
        -13    1    3    3    0    0  0.10860839224E+03  0.11492955913E+03  0.94733176980E+02  0.18433383099E+03  0.00000000000E+00 0. -1.
         22    1    1    2    0    0 -0.88719852626E+03 -0.64129365849E+03 -0.37960383925E+03  0.11586534668E+04  0.00000000000E+00 0. -1.
<mgrwt>
<rscale>  0 0.24086139E+04</rscale>
<asrwt>0</asrwt>
<pdfrwt beam="1">  1        2 0.20489660E+00 0.24086139E+04</pdfrwt>
<pdfrwt beam="2">  1       -2 0.16753785E+00 0.24086139E+04</pdfrwt>
<totfact> 0.31598004E+00</totfact>
</mgrwt>
</event>
<event>
 6    1  0.5196787E-004  0.2667150E+04  0.7818608E-02  0.8345743E-01
          2   -1    0    0  501    0  0.00000000000E+00  0.00000000000E+00  0.89950095288E+03  0.89950095288E+03  0.00000000000E+00 0.  1.
         -2   -1    0    0    0  501 -0.00000000000E+00 -0.00000000000E+00 -0.19771216632E+04  0.19771216632E+04  0.00000000000E+00 0. -1.
         23    2    1    2    0    0 -0.40684637238E+03 -0.51464540547E+03 -0.17895582619E+04  0.19085115990E+04  0.97539154732E+02 0.  0.
         11    1    3    3    0    0 -0.37675434692E+03 -0.45614527746E+03 -0.15208916302E+04  0.16319079946E+04  0.00000000000E+00 0.  1.
        -11    1    3    3    0    0 -0.30092025466E+02 -0.58500128011E+02 -0.26866663166E+03  0.27660360435E+03  0.00000000000E+00 0. -1.
         22    1    1    2    0    0  0.40684637238E+03  0.51464540547E+03  0.71193755156E+03  0.96811101709E+03  0.00000000000E+00 0.  1.
<mgrwt>
<rscale>  0 0.26671504E+04</rscale>
<asrwt>0</asrwt>
<pdfrwt beam="1">  1        2 0.13838476E+00 0.26671504E+04</pdfrwt>
<pdfrwt beam="2">  1       -2 0.30417256E+00 0.26671504E+04</pdfrwt>
<totfact> 0.77357034E-01</totfact>
</mgrwt>
</event>
<event>
 6    1  0.5196787E-004  0.2861715E+04  0.7818608E-02  0.8284360E-01
          2   -1    0    0  501    0  0.00000000000E+00  0.00000000000E+00  0.30725696069E+04  0.30725696069E+04  0.00000000000E+00 0.  1.
         -2   -1    0    0    0  501 -0.00000000000E+00 -0.00000000000E+00 -0.66633260212E+03  0.66633260212E+03  0.00000000000E+00 0. -1.
         23    2    1    2    0    0 -0.93435177268E+03 -0.66305859764E+03  0.23211151960E+04  0.25900307360E+04  0.89574110771E+02 0.  0.
         13    1    3    3    0    0 -0.63585579784E+03 -0.49290946367E+03  0.16773322431E+04  0.18602999190E+04  0.00000000000E+00 0. -1.
        -13    1    3    3    0    0 -0.29849597485E+03 -0.17014913397E+03  0.64378295296E+03  0.72973081702E+03  0.00000000000E+00 0.  1.
         22    1    1    2    0    0  0.93435177268E+03  0.66305859764E+03  0.85121808714E+02  0.11488714729E+04  0.00000000000E+00 0. -1.
<mgrwt>
<rscale>  0 0.28617151E+04</rscale>
<asrwt>0</asrwt>
<pdfrwt beam="1">  1        2 0.47270301E+00 0.28617151E+04</pdfrwt>
<pdfrwt beam="2">  1       -2 0.10251271E+00 0.28617151E+04</pdfrwt>
<totfact> 0.10555382E+00</totfact>
</mgrwt>
</event>
<event>
 6    1  0.5196787E-004  0.2373084E+04  0.7818608E-02  0.8449650E-01
          2   -1    0    0  501    0  0.00000000000E+00  0.00000000000E+00  0.15225484202E+04  0.15225484202E+04  0.00000000000E+00 0.  1.
         -2   -1    0    0    0  501 -0.00000000000E+00 -0.00000000000E+00 -0.92468779158E+03  0.92468779158E+03  0.00000000000E+00 0. -1.
         23    2    1    2    0    0 -0.66016501779E+03  0.98361496452E+03  0.29483098120E+03  0.12244757216E+04  0.95389916171E+02 0.  0.
         13    1    3    3    0    0 -0.33295184105E+03  0.46804618001E+03  0.18933714792E+03  0.60479146047E+03  0.00000000000E+00 0.  1.
        -13    1    3    3    0    0 -0.32721317674E+03  0.51556878451E+03  0.10549383328E+03  0.61968426110E+03  0.00000000000E+00 0. -1.
         22    1    1    2    0    0  0.66016501779E+03 -0.98361496452E+03  0.30302964737E+03  0.12227604902E+04  0.00000000000E+00 0. -1.
<mgrwt>
<rscale>  0 0.23730840E+04</rscale>
<asrwt>0</asrwt>
<pdfrwt beam="1">  1        2 0.23423822E+00 0.23730840E+04</pdfrwt>
<pdfrwt beam="2">  1       -2 0.14225966E+00 0.23730840E+04</pdfrwt>
<totfact> 0.38275938E+00</totfact>
</mgrwt>
</event>
<event>
 6    1  0.5196787E-004  0.7194391E+03  0.7818608E-02  0.9684554E-01
         -2   -1    0    0    0  501 -0.00000000000E+00  0.00000000000E+00  0.28471410751E+02  0.28471410751E+02  0.00000000000E+00 0. -1.
          2   -1    0    0  501    0  0.00000000000E+00 -0.00000000000E+00 -0.45448446203E+04  0.45448446203E+04  0.00000000000E+00 0.  1.
         23    2    1    2    0    0  0.13587300827E+03 -0.23908572048E+03 -0.37101592175E+04  0.37214918373E+04  0.92717957375E+02 0.  0.
         13    1    3    3    0    0  0.71485466869E+02 -0.12379933729E+03 -0.25150879727E+04  0.25191474665E+04  0.00000000000E+00 0.  1.
        -13    1    3    3    0    0  0.64387541401E+02 -0.11528638320E+03 -0.11950712449E+04  0.12023443708E+04  0.00000000000E+00 0. -1.
         22    1    1    2    0    0 -0.13587300827E+03  0.23908572048E+03 -0.80621399199E+03  0.85182419371E+03  0.00000000000E+00 0. -1.
<mgrwt>
<rscale>  0 0.71943905E+03</rscale>
<asrwt>0</asrwt>
<pdfrwt beam="1">  1        2 0.69920596E+00 0.71943905E+03</pdfrwt>
<pdfrwt beam="2">  1       -2 0.43802227E-02 0.71943905E+03</pdfrwt>
<totfact> 0.32180110E+01</totfact>
</mgrwt>
</event>
<event>
 6    1  0.5196787E-004  0.2458963E+04  0.7818608E-02  0.8417753E-01
         -2   -1    0    0    0  501 -0.00000000000E+00  0.00000000000E+00  0.65294940641E+03  0.65294940641E+03  0.00000000000E+00 0. -1.
          2   -1    0    0  501    0  0.00000000000E+00 -0.00000000000E+00 -0.23150711747E+04  0.23150711747E+04  0.00000000000E+00 0.  1.
         23    2    1    2    0    0 -0.27629612505E+03  0.11804427995E+04 -0.10672688595E+04  0.16176003744E+04  0.88223586049E+02 0.  0.
         13    1    3    3    0    0 -0.17719370764E+03  0.69572288029E+03 -0.57675804641E+03  0.92091138568E+03  0.00000000000E+00 0. -1.
        -13    1    3    3    0    0 -0.99102417414E+02  0.48471991921E+03 -0.49051081307E+03  0.69668898868E+03  0.00000000000E+00 0.  1.
         22    1    1    2    0    0  0.27629612505E+03 -0.11804427995E+04 -0.59485290876E+03  0.13504202067E+04  0.00000000000E+00 0. -1.
<mgrwt>
<rscale>  0 0.24589627E+04</rscale>
<asrwt>0</asrwt>
<pdfrwt beam="1">  1        2 0.35616480E+00 0.24589627E+04</pdfrwt>
<pdfrwt beam="2">  1       -2 0.10045375E+00 0.24589627E+04</pdfrwt>
<totfact> 0.32501047E+00</totfact>
</mgrwt>
</event>
<event>
 6    1  0.5196787E-004  0.3701760E+04  0.7818608E-02  0.8067572E-01
          2   -1    0    0  501    0  0.00000000000E+00  0.00000000000E+00  0.21379517514E+04  0.21379517514E+04  0.00000000000E+00 0.  1.
         -2   -1    0    0    0  501 -0.00000000000E+00 -0.00000000000E+00 -0.16023550001E+04  0.16023550001E+04  0.00000000000E+00 0. -1.
         23    2    1    2    0    0 -0.28398596009E+03  0.87413700737E+03  0.18899559529E+04  0.21035256482E+04  0.90128329456E+02 0.  0.
         11    1    3    3    0    0 -0.62680576824E+02  0.97216959406E+02  0.23195752056E+03  0.25919931183E+03  0.00000000000E+00 0. -1.
        -11    1    3    3    0    0 -0.22130538327E+03  0.77692004796E+03  0.16579984323E+04  0.18443263364E+04  0.00000000000E+00 0.  1.
         22    1    1    2    0    0  0.28398596009E+03 -0.87413700737E+03 -0.13543592015E+04  0.16367811032E+04  0.00000000000E+00 0. -1.
<mgrwt>
<rscale>  0 0.37017605E+04</rscale>
<asrwt>0</asrwt>
<pdfrwt beam="1">  1        2 0.32891566E+00 0.37017605E+04</pdfrwt>
<pdfrwt beam="2">  1       -2 0.24651615E+00 0.37017605E+04</pdfrwt>
<totfact> 0.30537699E-01</totfact>
</mgrwt>
</event>
<event>
 6    1  0.6879729E-004  0.2908740E+04  0.7818608E-02  0.8270282E-01
          2   -1    0    0  501    0  0.00000000000E+00  0.00000000000E+00  0.22132165193E+04  0.22132165193E+04  0.00000000000E+00 0.  1.
         -2   -1    0    0    0  501 -0.00000000000E+00 -0.00000000000E+00 -0.95570976650E+03  0.95570976650E+03  0.00000000000E+00 0. -1.
         23    2    1    2    0    0 -0.16953453912E+03  0.87680368957E+03  0.18769008641E+04  0.20821071954E+04  0.12201167683E+03 0.  0.
         11    1    3    3    0    0 -0.47316382766E+02  0.47105212513E+03  0.89018642455E+03  0.10082464060E+04  0.00000000000E+00 0. -1.
        -11    1    3    3    0    0 -0.12221815636E+03  0.40575156444E+03  0.98671443959E+03  0.10738607894E+04  0.00000000000E+00 0.  1.
         22    1    1    2    0    0  0.16953453912E+03 -0.87680368957E+03 -0.61939411138E+03  0.10868190904E+04  0.00000000000E+00 0. -1.
<mgrwt>
<rscale>  0 0.29087404E+04</rscale>
<asrwt>0</asrwt>
<pdfrwt beam="1">  1        2 0.34049485E+00 0.29087404E+04</pdfrwt>
<pdfrwt beam="2">  1       -2 0.14703227E+00 0.29087404E+04</pdfrwt>
<totfact> 0.13828420E+00</totfact>
</mgrwt>
</event>
<event>
 6    1  0.5196787E-004  0.2345579E+04  0.7818608E-02  0.8460164E-01
          2   -1    0    0  501    0  0.00000000000E+00  0.00000000000E+00  0.10585591369E+04  0.10585591369E+04  0.00000000000E+00 0.  1.
         -2   -1    0    0    0  501 -0.00000000000E+00 -0.00000000000E+00 -0.12993468345E+04  0.12993468345E+04  0.00000000000E+00 0. -1.
         23    2    1    2    0    0 -0.15872186718E+03  0.11334932414E+04  0.12876446057E+03  0.11551722698E+04  0.88561432521E+02 0.  0.
         13    1    3    3    0    0 -0.14536259592E+03  0.10333664717E+04  0.14251362704E+03  0.10532267956E+04  0.00000000000E+00 0. -1.
        -13    1    3    3    0    0 -0.13359271257E+02  0.10012676970E+03 -0.13749166468E+02  0.10194547424E+03  0.00000000000E+00 0.  1.
         22    1    1    2    0    0  0.15872186718E+03 -0.11334932414E+04 -0.36955215814E+03  0.12027337016E+04  0.00000000000E+00 0. -1.
<mgrwt>
<rscale>  0 0.23455792E+04</rscale>
<asrwt>0</asrwt>
<pdfrwt beam="1">  1        2 0.16285525E+00 0.23455792E+04</pdfrwt>
<pdfrwt beam="2">  1       -2 0.19989951E+00 0.23455792E+04</pdfrwt>
<totfact> 0.27812264E+00</totfact>
</mgrwt>
</event>
<event>
 6    1  0.5196787E-004  0.1162239E+04  0.7818608E-02  0.9146567E-01
         -2   -1    0    0    0  501 -0.00000000000E+00  0.00000000000E+00  0.23596694067E+03  0.23596694067E+03  0.00000000000E+00 0. -1.
          2   -1    0    0  501    0  0.00000000000E+00 -0.00000000000E+00 -0.14311313767E+04  0.14311313767E+04  0.00000000000E+00 0.  1.
         23    2    1    2    0    0  0.16066220690E+03  0.54589383707E+03 -0.74683188252E+03  0.94265749533E+03  0.83862188598E+02 0.  0.
         11    1    3    3    0    0  0.12113902562E+01  0.95706843383E+02 -0.15483546314E+03  0.18203100830E+03  0.00000000000E+00 0.  1.
        -11    1    3    3    0    0  0.15945081665E+03  0.45018699369E+03 -0.59199641938E+03  0.76062648703E+03  0.00000000000E+00 0. -1.
         22    1    1    2    0    0 -0.16066220690E+03 -0.54589383707E+03 -0.44833255348E+03  0.72444082201E+03  0.00000000000E+00 0. -1.
<mgrwt>
<rscale>  0 0.11622387E+04</rscale>
<asrwt>0</asrwt>
<pdfrwt beam="1">  1        2 0.22017406E+00 0.11622387E+04</pdfrwt>
<pdfrwt beam="2">  1       -2 0.36302606E-01 0.11622387E+04</pdfrwt>
<totfact> 0.98041006E+01</totfact>
</mgrwt>
</event>
<event>
 6    1  0.5196787E-004  0.4766756E+04  0.7818608E-02  0.7865530E-01
         -2   -1    0    0    0  501 -0.00000000000E+00  0.00000000000E+00  0.22354364624E+04  0.22354364624E+04  0.00000000000E+00 0. -1.
          2   -1    0    0  501    0  0.00000000000E+00 -0.00000000000E+00 -0.25411098817E+04  0.25411098817E+04  0.00000000000E+00 0.  1.
         23    2    1    2    0    0 -0.12336403202E+04  0.68799674114E+03  0.17696433569E+04  0.22661384734E+04  0.92401376392E+02 0.  0.
         11    1    3    3    0    0 -0.35930012079E+03  0.17774038613E+03  0.56193815370E+03  0.69026278347E+03  0.00000000000E+00 0.  1.
        -11    1    3    3    0    0 -0.87434019945E+03  0.51025635500E+03  0.12077052032E+04  0.15758756899E+04  0.00000000000E+00 0. -1.
         22    1    1    2    0    0  0.12336403202E+04 -0.68799674114E+03 -0.20753167763E+04  0.25104078707E+04  0.00000000000E+00 0.  1.
<mgrwt>
<rscale>  0 0.47667556E+04</rscale>
<asrwt>0</asrwt>
<pdfrwt beam="1">  1        2 0.39093998E+00 0.47667556E+04</pdfrwt>
<pdfrwt beam="2">  1       -2 0.34391330E+00 0.47667556E+04</pdfrwt>
<totfact> 0.41521012E-02</totfact>
</mgrwt>
</event>
<event>
 6    1  0.5196787E-004  0.8226673E+03  0.7818608E-02  0.9527775E-01
          2   -1    0    0  501    0  0.00000000000E+00  0.00000000000E+00  0.25847829064E+03  0.25847829064E+03  0.00000000000E+00 0.  1.
         -2   -1    0    0    0  501 -0.00000000000E+00 -0.00000000000E+00 -0.65458252508E+03  0.65458252508E+03  0.00000000000E+00 0. -1.
         23    2    1    2    0    0 -0.20007674050E+03  0.31205211811E+03 -0.38505551357E+03  0.54221138437E+03  0.91204223037E+02 0.  0.
         13    1    3    3    0    0 -0.40415522524E+02  0.23425019943E+02 -0.81532447531E+02  0.93966409001E+02  0.00000000000E+00 0.  1.
        -13    1    3    3    0    0 -0.15966121797E+03  0.28862709817E+03 -0.30352306604E+03  0.44824497537E+03  0.00000000000E+00 0. -1.
         22    1    1    2    0    0  0.20007674050E+03 -0.31205211811E+03 -0.11048720873E+02  0.37084943136E+03  0.00000000000E+00 0.  1.
<mgrwt>
<rscale>  0 0.82266730E+03</rscale>
<asrwt>0</asrwt>
<pdfrwt beam="1">  1        2 0.39765892E-01 0.82266730E+03</pdfrwt>
<pdfrwt beam="2">  1       -2 0.10070500E+00 0.82266730E+03</pdfrwt>
<totfact> 0.10599101E+02</totfact>
</mgrwt>
</event>
<event>
 6    1  0.5196787E-004  0.1780069E+04  0.7818608E-02  0.8716971E-01
          2   -1    0    0  501    0  0.00000000000E+00  0.00000000000E+00  0.11180588431E+04  0.11180588431E+04  0.00000000000E+00 0.  1.
         -2   -1    0    0    0  501 -0.00000000000E+00 -0.00000000000E+00 -0.70851477122E+03  0.70851477122E+03  0.00000000000E+00 0. -1.
         23    2    1    2    0    0  0.80397312144E+03 -0.13150391017E+03 -0.15666838611E+03  0.83447351557E+03  0.90194271414E+02 0.  0.
         13    1    3    3    0    0  0.39568636848E+03 -0.10052388036E+03 -0.49688178408E+02  0.41126836469E+03  0.00000000000E+00 0. -1.
        -13    1    3    3    0    0  0.40828675296E+03 -0.30980029804E+02 -0.10698020770E+03  0.42320515088E+03  0.00000000000E+00 0.  1.
         22    1    1    2    0    0 -0.80397312144E+03  0.13150391017E+03  0.56621245803E+03  0.99210009879E+03  0.00000000000E+00 0. -1.
<mgrwt>
<rscale>  0 0.17800688E+04</rscale>
<asrwt>0</asrwt>
<pdfrwt beam="1">  1        2 0.17200905E+00 0.17800688E+04</pdfrwt>
<pdfrwt beam="2">  1       -2 0.10900227E+00 0.17800688E+04</pdfrwt>
<totfact> 0.13489045E+01</totfact>
</mgrwt>
</event>
<event>
 6    1  0.5196787E-004  0.1650665E+04  0.7818608E-02  0.8790013E-01
          2   -1    0    0  501    0  0.00000000000E+00  0.00000000000E+00  0.94924584930E+03  0.94924584930E+03  0.00000000000E+00 0.  1.
         -2   -1    0    0    0  501 -0.00000000000E+00 -0.00000000000E+00 -0.71759467276E+03  0.71759467276E+03  0.00000000000E+00 0. -1.
         23    2    1    2    0    0  0.33991981235E+03  0.69266922557E+03 -0.17344943878E+03  0.79538045792E+03  0.84907185498E+02 0.  0.
         11    1    3    3    0    0  0.25587477646E+03  0.42925077123E+03 -0.11347999519E+03  0.51245081241E+03  0.00000000000E+00 0.  1.
        -11    1    3    3    0    0  0.84045035883E+02  0.26341845433E+03 -0.59969443591E+02  0.28292964550E+03  0.00000000000E+00 0. -1.
         22    1    1    2    0    0 -0.33991981235E+03 -0.69266922557E+03  0.40510061532E+03  0.87146006415E+03  0.00000000000E+00 0.  1.
<mgrwt>
<rscale>  0 0.16506650E+04</rscale>
<asrwt>0</asrwt>
<pdfrwt beam="1">  1        2 0.14603782E+00 0.16506650E+04</pdfrwt>
<pdfrwt beam="2">  1       -2 0.11039918E+00 0.16506650E+04</pdfrwt>
<totfact> 0.16911345E+01</totfact>
</mgrwt>
</event>
<event>
 6    1  0.5196787E-004  0.2444836E+04  0.7818608E-02  0.8422906E-01
         -2   -1    0    0    0  501 -0.00000000000E+00  0.00000000000E+00  0.92110033117E+03  0.92110033117E+03  0.00000000000E+00 0. -1.
          2   -1    0    0  501    0  0.00000000000E+00 -0.00000000000E+00 -0.16223044785E+04  0.16223044785E+04  0.00000000000E+00 0.  1.
         23    2    1    2    0    0 -0.58177327336E+03 -0.78399188115E+03  0.41161959458E+03  0.10630399588E+04  0.86717079971E+02 0.  0.
         11    1    3    3    0    0 -0.33241918924E+03 -0.51273006275E+03  0.23875303525E+03  0.65604698495E+03  0.00000000000E+00 0.  1.
        -11    1    3    3    0    0 -0.24935408412E+03 -0.27126181840E+03  0.17286655933E+03  0.40699297380E+03  0.00000000000E+00 0. -1.
         22    1    1    2    0    0  0.58177327336E+03  0.78399188115E+03 -0.11128237419E+04  0.14803648509E+04  0.00000000000E+00 0.  1.
<mgrwt>
<rscale>  0 0.24448355E+04</rscale>
<asrwt>0</asrwt>
<pdfrwt beam="1">  1        2 0.24958530E+00 0.24448355E+04</pdfrwt>
<pdfrwt beam="2">  1       -2 0.14170774E+00 0.24448355E+04</pdfrwt>
<totfact> 0.33789705E+00</totfact>
</mgrwt>
</event>
<event>
 6    1  0.5196787E-004  0.7458030E+03  0.7818608E-02  0.9641958E-01
         -2   -1    0    0    0  501 -0.00000000000E+00  0.00000000000E+00  0.10591791787E+03  0.10591791787E+03  0.00000000000E+00 0. -1.
          2   -1    0    0  501    0  0.00000000000E+00 -0.00000000000E+00 -0.13128613741E+04  0.13128613741E+04  0.00000000000E+00 0.  1.
         23    2    1    2    0    0 -0.33731447434E+03  0.13853161804E+03 -0.69044363903E+03  0.78652607929E+03  0.94545179280E+02 0.  0.
         11    1    3    3    0    0 -0.11794918856E+03  0.17132130515E+02 -0.29660123588E+03  0.31965264602E+03  0.00000000000E+00 0.  1.
        -11    1    3    3    0    0 -0.21936528578E+03  0.12139948752E+03 -0.39384240314E+03  0.46687343327E+03  0.00000000000E+00 0. -1.
         22    1    1    2    0    0  0.33731447434E+03 -0.13853161804E+03 -0.51649981724E+03  0.63225321273E+03  0.00000000000E+00 0.  1.
<mgrwt>
<rscale>  0 0.74580304E+03</rscale>
<asrwt>0</asrwt>
<pdfrwt beam="1">  1        2 0.20197866E+00 0.74580304E+03</pdfrwt>
<pdfrwt beam="2">  1       -2 0.16295065E-01 0.74580304E+03</pdfrwt>
<totfact> 0.49913764E+02</totfact>
</mgrwt>
</event>
<event>
 6    1  0.5196787E-004  0.3233418E+04  0.7818608E-02  0.8180047E-01
         -2   -1    0    0    0  501 -0.00000000000E+00  0.00000000000E+00  0.11438712506E+04  0.11438712506E+04  0.00000000000E+00 0. -1.
          2   -1    0    0  501    0  0.00000000000E+00 -0.00000000000E+00 -0.22850014770E+04  0.22850014770E+04  0.00000000000E+00 0.  1.
         23    2    1    2    0    0  0.13246983556E+04 -0.89081896808E+03 -0.83318214817E+03  0.18030756350E+04  0.92223025273E+02 0.  0.
         13    1    3    3    0    0  0.11467240238E+04 -0.73771080667E+03 -0.72988907400E+03  0.15465869783E+04  0.00000000000E+00 0. -1.
        -13    1    3    3    0    0  0.17797433180E+03 -0.15310816142E+03 -0.10329307417E+03  0.25648865675E+03  0.00000000000E+00 0.  1.
         22    1    1    2    0    0 -0.13246983556E+04  0.89081896808E+03 -0.30794807824E+03  0.16257970926E+04  0.00000000000E+00 0. -1.
<mgrwt>
<rscale>  0 0.32334177E+04</rscale>
<asrwt>0</asrwt>
<pdfrwt beam="1">  1        2 0.35153868E+00 0.32334177E+04</pdfrwt>
<pdfrwt beam="2">  1       -2 0.17598019E+00 0.32334177E+04</pdfrwt>
<totfact> 0.75080083E-01</totfact>
</mgrwt>
</event>
<event>
 6    1  0.5196787E-004  0.4802843E+04  0.7818608E-02  0.7859662E-01
          2   -1    0    0  501    0  0.00000000000E+00  0.00000000000E+00  0.23737184276E+04  0.23737184276E+04  0.00000000000E+00 0.  1.
         -2   -1    0    0    0  501 -0.00000000000E+00 -0.00000000000E+00 -0.24294481785E+04  0.24294481785E+04  0.00000000000E+00 0. -1.
         23    2    1    2    0    0 -0.23512021872E+04 -0.41498287498E+03  0.22182414240E+03  0.23995446152E+04  0.90806930112E+02 0.  0.
         13    1    3    3    0    0 -0.19612706915E+04 -0.37354677377E+03  0.16519143951E+03  0.20033492280E+04  0.00000000000E+00 0. -1.
        -13    1    3    3    0    0 -0.38993149572E+03 -0.41436101207E+02  0.56632702888E+02  0.39619538725E+03  0.00000000000E+00 0.  1.
         22    1    1    2    0    0  0.23512021872E+04  0.41498287498E+03 -0.27755389332E+03  0.24036219909E+04  0.00000000000E+00 0. -1.
<mgrwt>
<rscale>  0 0.48028433E+04</rscale>
<asrwt>0</asrwt>
<pdfrwt beam="1">  1        2 0.36518745E+00 0.48028433E+04</pdfrwt>
<pdfrwt beam="2">  1       -2 0.37376126E+00 0.48028433E+04</pdfrwt>
<totfact> 0.33432458E-02</totfact>
</mgrwt>
</event>
<event>
 6    1  0.5196787E-004  0.2013737E+04  0.7818608E-02  0.8600225E-01
         -2   -1    0    0    0  501 -0.00000000000E+00  0.00000000000E+00  0.22611999000E+03  0.22611999000E+03  0.00000000000E+00 0. -1.
          2   -1    0    0  501    0  0.00000000000E+00 -0.00000000000E+00 -0.44833922733E+04  0.44833922733E+04  0.00000000000E+00 0.  1.
         23    2    1    2    0    0  0.76596426499E+03  0.42633292555E+01 -0.61268989564E+03  0.98530762181E+03  0.93395771601E+02 0.  0.
         11    1    3    3    0    0  0.18062566616E+03 -0.24255847186E+02 -0.18592922445E+03  0.26035294102E+03  0.00000000000E+00 0.  1.
        -11    1    3    3    0    0  0.58533859884E+03  0.28519176441E+02 -0.42676067119E+03  0.72495468078E+03  0.00000000000E+00 0. -1.
         22    1    1    2    0    0 -0.76596426499E+03 -0.42633292555E+01 -0.36445823877E+04  0.37242046415E+04  0.00000000000E+00 0.  1.
<mgrwt>
<rscale>  0 0.20137374E+04</rscale>
<asrwt>0</asrwt>
<pdfrwt beam="1">  1        2 0.68975261E+00 0.20137374E+04</pdfrwt>
<pdfrwt beam="2">  1       -2 0.34787693E-01 0.20137374E+04</pdfrwt>
<totfact> 0.93378349E-01</totfact>
</mgrwt>
</event>
<event>
 6    1  0.5196787E-004  0.8629904E+03  0.7818608E-02  0.9473066E-01
         -2   -1    0    0    0  501 -0.00000000000E+00  0.00000000000E+00  0.12543502571E+03  0.12543502571E+03  0.00000000000E+00 0. -1.
          2   -1    0    0  501    0  0.00000000000E+00 -0.00000000000E+00 -0.14843391423E+04  0.14843391423E+04  0.00000000000E+00 0.  1.
         23    2    1    2    0    0  0.32685279973E+03 -0.24429252134E+03 -0.91978224076E+03  0.10103247452E+04  0.90802707395E+02 0.  0.
         13    1    3    3    0    0  0.22404707430E+03 -0.12682425767E+03 -0.64179124993E+03  0.69150379053E+03  0.00000000000E+00 0. -1.
        -13    1    3    3    0    0  0.10280572543E+03 -0.11746826367E+03 -0.27799099083E+03  0.31882095467E+03  0.00000000000E+00 0.  1.
         22    1    1    2    0    0 -0.32685279973E+03  0.24429252134E+03 -0.43912187580E+03  0.59944942278E+03  0.00000000000E+00 0. -1.
<mgrwt>
<rscale>  0 0.86299043E+03</rscale>
<asrwt>0</asrwt>
<pdfrwt beam="1">  1        2 0.22835988E+00 0.86299043E+03</pdfrwt>
<pdfrwt beam="2">  1       -2 0.19297695E-01 0.86299043E+03</pdfrwt>
<totfact> 0.29611236E+02</totfact>
</mgrwt>
</event>
<event>
 6    1  0.5196787E-004  0.2009453E+04  0.7818608E-02  0.8602214E-01
          1   -1    0    0  501    0  0.00000000000E+00  0.00000000000E+00  0.37934046060E+04  0.37934046060E+04  0.00000000000E+00 0.  1.
         -1   -1    0    0    0  501 -0.00000000000E+00 -0.00000000000E+00 -0.26611339717E+03  0.26611339717E+03  0.00000000000E+00 0. -1.
         23    2    1    2    0    0 -0.84370867460E+03  0.43082716408E+03  0.24308571956E+04  0.26105100949E+04  0.90773769518E+02 0.  0.
         11    1    3    3    0    0 -0.25790785025E+03  0.17907016460E+03  0.81939515750E+03  0.87749131460E+03  0.00000000000E+00 0.  1.
        -11    1    3    3    0    0 -0.58580082436E+03  0.25175699948E+03  0.16114620381E+04  0.17330187803E+04  0.00000000000E+00 0. -1.
         22    1    1    2    0    0  0.84370867460E+03 -0.43082716408E+03  0.10964340133E+04  0.14490079083E+04  0.00000000000E+00 0.  1.
<mgrwt>
<rscale>  0 0.20094534E+04</rscale>
<asrwt>0</asrwt>
<pdfrwt beam="1">  1        1 0.58360067E+00 0.20094534E+04</pdfrwt>
<pdfrwt beam="2">  1       -1 0.40940525E-01 0.20094534E+04</pdfrwt>
<totfact> 0.78590423E-01</totfact>
</mgrwt>
</event>
<event>
 6    1  0.5196787E-004  0.3736467E+04  0.7818608E-02  0.8059928E-01
          2   -1    0    0  501    0  0.00000000000E+00  0.00000000000E+00  0.38033719437E+04  0.38033719437E+04  0.00000000000E+00 0.  1.
         -2   -1    0    0    0  501 -0.00000000000E+00 -0.00000000000E+00 -0.91768452713E+03  0.91768452713E+03  0.00000000000E+00 0. -1.
         23    2    1    2    0    0  0.21753758655E+02  0.14101461680E+04  0.29890948908E+04  0.33069565638E+04  0.11085128800E+03 0.  0.
         13    1    3    3    0    0  0.47632928096E+02  0.10408763972E+04  0.21161474088E+04  0.23587650213E+04  0.00000000000E+00 0. -1.
        -13    1    3    3    0    0 -0.25879169441E+02  0.36926977083E+03  0.87294748194E+03  0.94819154251E+03  0.00000000000E+00 0.  1.
         22    1    1    2    0    0 -0.21753758655E+02 -0.14101461680E+04 -0.10340747421E+03  0.14140999070E+04  0.00000000000E+00 0.  1.
<mgrwt>
<rscale>  0 0.37364666E+04</rscale>
<asrwt>0</asrwt>
<pdfrwt beam="1">  1        2 0.58513414E+00 0.37364666E+04</pdfrwt>
<pdfrwt beam="2">  1       -2 0.14118224E+00 0.37364666E+04</pdfrwt>
<totfact> 0.13791326E-01</totfact>
</mgrwt>
</event>
<event>
 6    1  0.5196787E-004  0.3330079E+04  0.7818608E-02  0.8155284E-01
         -2   -1    0    0    0  501 -0.00000000000E+00  0.00000000000E+00  0.92744212966E+03  0.92744212966E+03  0.00000000000E+00 0. -1.
          2   -1    0    0  501    0  0.00000000000E+00 -0.00000000000E+00 -0.29892505800E+04  0.29892505800E+04  0.00000000000E+00 0.  1.
         23    2    1    2    0    0  0.14353677011E+03 -0.16172442195E+04 -0.14593828771E+04  0.21849311091E+04  0.89687791031E+02 0.  0.
         11    1    3    3    0    0  0.12843625451E+03 -0.13589826704E+04 -0.11825417203E+04  0.18060273226E+04  0.00000000000E+00 0. -1.
        -11    1    3    3    0    0  0.15100515608E+02 -0.25826154906E+03 -0.27684115686E+03  0.37890378650E+03  0.00000000000E+00 0.  1.
         22    1    1    2    0    0 -0.14353677011E+03  0.16172442195E+04 -0.60242557320E+03  0.17317616005E+04  0.00000000000E+00 0. -1.
<mgrwt>
<rscale>  0 0.33300792E+04</rscale>
<asrwt>0</asrwt>
<pdfrwt beam="1">  1        2 0.45988470E+00 0.33300792E+04</pdfrwt>
<pdfrwt beam="2">  1       -2 0.14268340E+00 0.33300792E+04</pdfrwt>
<totfact> 0.50324299E-01</totfact>
</mgrwt>
</event>
<event>
 6    1  0.5196787E-004  0.3050583E+04  0.7818608E-02  0.8229432E-01
         -2   -1    0    0    0  501 -0.00000000000E+00  0.00000000000E+00  0.86165806292E+03  0.86165806292E+03  0.00000000000E+00 0. -1.
          2   -1    0    0  501    0  0.00000000000E+00 -0.00000000000E+00 -0.27000430029E+04  0.27000430029E+04  0.00000000000E+00 0.  1.
         23    2    1    2    0    0  0.88613312358E+03 -0.11056531738E+04 -0.26447268089E+03  0.14439426630E+04  0.85578977716E+02 0.  0.
         13    1    3    3    0    0  0.19757080793E+03 -0.28643188118E+03 -0.92565911329E+02  0.36006373692E+03  0.00000000000E+00 0.  1.
        -13    1    3    3    0    0  0.68856231566E+03 -0.81922129266E+03 -0.17190676956E+03  0.10838789260E+04  0.00000000000E+00 0. -1.
         22    1    1    2    0    0 -0.88613312358E+03  0.11056531738E+04 -0.15739122591E+04  0.21177584028E+04  0.00000000000E+00 0.  1.
<mgrwt>
<rscale>  0 0.30505828E+04</rscale>
<asrwt>0</asrwt>
<pdfrwt beam="1">  1        2 0.41539123E+00 0.30505828E+04</pdfrwt>
<pdfrwt beam="2">  1       -2 0.13256278E+00 0.30505828E+04</pdfrwt>
<totfact> 0.93517457E-01</totfact>
</mgrwt>
</event>
<event>
 6    1  0.5196787E-004  0.3021742E+04  0.7818608E-02  0.8237549E-01
         -2   -1    0    0    0  501 -0.00000000000E+00  0.00000000000E+00  0.88273833648E+03  0.88273833648E+03  0.00000000000E+00 0. -1.
          2   -1    0    0  501    0  0.00000000000E+00 -0.00000000000E+00 -0.25859664427E+04  0.25859664427E+04  0.00000000000E+00 0.  1.
         23    2    1    2    0    0  0.84986418660E+03  0.10241553348E+04 -0.34856135431E+02  0.13345472596E+04  0.92941660892E+02 0.  0.
         11    1    3    3    0    0  0.36929501285E+03  0.43892733986E+03 -0.60913637956E+02  0.57684182189E+03  0.00000000000E+00 0. -1.
        -11    1    3    3    0    0  0.48056917375E+03  0.58522799499E+03  0.26057502526E+02  0.75770543769E+03  0.00000000000E+00 0.  1.
         22    1    1    2    0    0 -0.84986418660E+03 -0.10241553348E+04 -0.16683719708E+04  0.21341575196E+04  0.00000000000E+00 0.  1.
<mgrwt>
<rscale>  0 0.30217424E+04</rscale>
<asrwt>0</asrwt>
<pdfrwt beam="1">  1        2 0.39784099E+00 0.30217424E+04</pdfrwt>
<pdfrwt beam="2">  1       -2 0.13580590E+00 0.30217424E+04</pdfrwt>
<totfact> 0.10294579E+00</totfact>
</mgrwt>
</event>
<event>
 6    1  0.5196787E-004  0.2774135E+04  0.7818608E-02  0.8311344E-01
         -2   -1    0    0    0  501 -0.00000000000E+00  0.00000000000E+00  0.17812123656E+04  0.17812123656E+04  0.00000000000E+00 0. -1.
          2   -1    0    0  501    0  0.00000000000E+00 -0.00000000000E+00 -0.10801383657E+04  0.10801383657E+04  0.00000000000E+00 0.  1.
         23    2    1    2    0    0  0.32720254104E+03 -0.11993308476E+04  0.98181699960E+03  0.15868811881E+04  0.93655216065E+02 0.  0.
         11    1    3    3    0    0  0.11457957136E+03 -0.31354192880E+03  0.30296135209E+03  0.45080217407E+03  0.00000000000E+00 0.  1.
        -11    1    3    3    0    0  0.21262296969E+03 -0.88578891877E+03  0.67885564752E+03  0.11360790140E+04  0.00000000000E+00 0. -1.
         22    1    1    2    0    0 -0.32720254104E+03  0.11993308476E+04 -0.28074299965E+03  0.12744695432E+04  0.00000000000E+00 0.  1.
<mgrwt>
<rscale>  0 0.27741347E+04</rscale>
<asrwt>0</asrwt>
<pdfrwt beam="1">  1        2 0.16617513E+00 0.27741347E+04</pdfrwt>
<pdfrwt beam="2">  1       -2 0.27403267E+00 0.27741347E+04</pdfrwt>
<totfact> 0.89500073E-01</totfact>
</mgrwt>
</event>
<event>
 6    1  0.5196787E-004  0.1147686E+04  0.7818608E-02  0.9159921E-01
          2   -1    0    0  501    0  0.00000000000E+00  0.00000000000E+00  0.94007419499E+03  0.94007419499E+03  0.00000000000E+00 0.  1.
         -2   -1    0    0    0  501 -0.00000000000E+00 -0.00000000000E+00 -0.35028683064E+03  0.35028683064E+03  0.00000000000E+00 0. -1.
         23    2    1    2    0    0  0.42416645535E+03 -0.25948180476E+03 -0.17726970098E+02  0.50529946409E+03  0.88121019577E+02 0.  0.
         11    1    3    3    0    0  0.21328847702E+03 -0.94113876609E+02 -0.39415231493E+02  0.23643806097E+03  0.00000000000E+00 0. -1.
        -11    1    3    3    0    0  0.21087797833E+03 -0.16536792815E+03  0.21688261395E+02  0.26886140312E+03  0.00000000000E+00 0.  1.
         22    1    1    2    0    0 -0.42416645535E+03  0.25948180476E+03  0.60751433445E+03  0.78506156154E+03  0.00000000000E+00 0. -1.
<mgrwt>
<rscale>  0 0.11476857E+04</rscale>
<asrwt>0</asrwt>
<pdfrwt beam="1">  1        2 0.14462680E+00 0.11476857E+04</pdfrwt>
<pdfrwt beam="2">  1       -2 0.53890282E-01 0.11476857E+04</pdfrwt>
<totfact> 0.88508041E+01</totfact>
</mgrwt>
</event>
<event>
 6    1  0.5196787E-004  0.2830376E+04  0.7818608E-02  0.8293899E-01
          2   -1    0    0  501    0  0.00000000000E+00  0.00000000000E+00  0.29018414419E+04  0.29018414419E+04  0.00000000000E+00 0.  1.
         -2   -1    0    0    0  501 -0.00000000000E+00 -0.00000000000E+00 -0.69016764219E+03  0.69016764219E+03  0.00000000000E+00 0. -1.
         23    2    1    2    0    0 -0.92104418806E+03  0.73460073728E+03  0.20986832551E+04  0.24084857414E+04  0.91496021350E+02 0.  0.
         11    1    3    3    0    0 -0.29352567799E+03  0.25099458260E+03  0.60642395451E+03  0.71896148488E+03  0.00000000000E+00 0.  1.
        -11    1    3    3    0    0 -0.62751851007E+03  0.48360615468E+03  0.14922593005E+04  0.16895242565E+04  0.00000000000E+00 0. -1.
         22    1    1    2    0    0  0.92104418806E+03 -0.73460073728E+03  0.11299054470E+03  0.11835233427E+04  0.00000000000E+00 0. -1.
<mgrwt>
<rscale>  0 0.28303760E+04</rscale>
<asrwt>0</asrwt>
<pdfrwt beam="1">  1        2 0.44643714E+00 0.28303760E+04</pdfrwt>
<pdfrwt beam="2">  1       -2 0.10617964E+00 0.28303760E+04</pdfrwt>
<totfact> 0.12441036E+00</totfact>
</mgrwt>
</event>
<event>
 6    1  0.5196787E-004  0.4808670E+03  0.7818608E-02  0.1018897E+00
          4   -1    0    0  501    0  0.00000000000E+00  0.00000000000E+00  0.43024304676E+03  0.43024304676E+03  0.00000000000E+00 0.  1.
         -4   -1    0    0    0  501 -0.00000000000E+00 -0.00000000000E+00 -0.13436187169E+03  0.13436187169E+03  0.00000000000E+00 0. -1.
         23    2    1    2    0    0 -0.61577042811E+02  0.66741950077E+02 -0.97174644886E+02  0.16119557585E+03  0.91076242582E+02 0.  0.
         13    1    3    3    0    0  0.43351358339E+00 -0.17883584430E+02 -0.34831926221E+02  0.39157037814E+02  0.00000000000E+00 0. -1.
        -13    1    3    3    0    0 -0.62010556394E+02  0.84625534507E+02 -0.62342718665E+02  0.12203853803E+03  0.00000000000E+00 0.  1.
         22    1    1    2    0    0  0.61577042811E+02 -0.66741950077E+02  0.39305581996E+03  0.40340934261E+03  0.00000000000E+00 0.  1.
<mgrwt>
<rscale>  0 0.48086697E+03</rscale>
<asrwt>0</asrwt>
<pdfrwt beam="1">  1        4 0.66191238E-01 0.48086697E+03</pdfrwt>
<pdfrwt beam="2">  1       -4 0.20671057E-01 0.48086697E+03</pdfrwt>
<totfact> 0.89379832E+01</totfact>
</mgrwt>
</event>
<event>
 6    1  0.5196787E-004  0.4503103E+04  0.7818608E-02  0.7910094E-01
         -2   -1    0    0    0  501 -0.00000000000E+00  0.00000000000E+00  0.17078621260E+04  0.17078621260E+04  0.00000000000E+00 0. -1.
          2   -1    0    0  501    0  0.00000000000E+00 -0.00000000000E+00 -0.29683220192E+04  0.29683220192E+04  0.00000000000E+00 0.  1.
         23    2    1    2    0    0  0.17687647875E+04 -0.32681007999E+03 -0.20350485506E+04  0.27177865119E+04  0.98016421439E+02 0.  0.
         11    1    3    3    0    0  0.16430804441E+03 -0.48032626827E+02 -0.22972526490E+03  0.28649252003E+03  0.00000000000E+00 0.  1.
        -11    1    3    3    0    0  0.16044567431E+04 -0.27877745316E+03 -0.18053232857E+04  0.24312939919E+04  0.00000000000E+00 0. -1.
         22    1    1    2    0    0 -0.17687647875E+04  0.32681007999E+03  0.77458865751E+03  0.19583976333E+04  0.00000000000E+00 0. -1.
<mgrwt>
<rscale>  0 0.45031033E+04</rscale>
<asrwt>0</asrwt>
<pdfrwt beam="1">  1        2 0.45666492E+00 0.45031033E+04</pdfrwt>
<pdfrwt beam="2">  1       -2 0.26274802E+00 0.45031033E+04</pdfrwt>
<totfact> 0.74063625E-02</totfact>
</mgrwt>
</event>
<event>
 6    1  0.5196787E-004  0.1817364E+04  0.7818608E-02  0.8697120E-01
         -2   -1    0    0    0  501 -0.00000000000E+00  0.00000000000E+00  0.69841257723E+03  0.69841257723E+03  0.00000000000E+00 0. -1.
          2   -1    0    0  501    0  0.00000000000E+00 -0.00000000000E+00 -0.11822568699E+04  0.11822568699E+04  0.00000000000E+00 0.  1.
         23    2    1    2    0    0 -0.49598004029E+03 -0.53856588053E+03 -0.79544355916E+03  0.10849662921E+04  0.91498585618E+02 0.  0.
         13    1    3    3    0    0 -0.42647444541E+03 -0.43386858955E+03 -0.61496642140E+03  0.86504688025E+03  0.00000000000E+00 0. -1.
        -13    1    3    3    0    0 -0.69505594888E+02 -0.10469729098E+03 -0.18047713776E+03  0.21991941187E+03  0.00000000000E+00 0.  1.
         22    1    1    2    0    0  0.49598004029E+03  0.53856588053E+03  0.31159926648E+03  0.79570315502E+03  0.00000000000E+00 0. -1.
<mgrwt>
<rscale>  0 0.18173641E+04</rscale>
<asrwt>0</asrwt>
<pdfrwt beam="1">  1        2 0.18188567E+00 0.18173641E+04</pdfrwt>
<pdfrwt beam="2">  1       -2 0.10744809E+00 0.18173641E+04</pdfrwt>
<totfact> 0.12727948E+01</totfact>
</mgrwt>
</event>
<event>
 6    1  0.5196787E-004  0.2999318E+04  0.7818608E-02  0.8243926E-01
         -2   -1    0    0    0  501 -0.00000000000E+00  0.00000000000E+00  0.10706976022E+04  0.10706976022E+04  0.00000000000E+00 0. -1.
          2   -1    0    0  501    0  0.00000000000E+00 -0.00000000000E+00 -0.21004780243E+04  0.21004780243E+04  0.00000000000E+00 0.  1.
         23    2    1    2    0    0  0.11178820598E+04  0.36627228072E+03 -0.14964337311E+04  0.19056397740E+04  0.91287203983E+02 0.  0.
         13    1    3    3    0    0  0.58762436217E+03  0.17257805441E+03 -0.71153886786E+03  0.93881475082E+03  0.00000000000E+00 0. -1.
        -13    1    3    3    0    0  0.53025769763E+03  0.19369422631E+03 -0.78489486322E+03  0.96682502321E+03  0.00000000000E+00 0.  1.
         22    1    1    2    0    0 -0.11178820598E+04 -0.36627228072E+03  0.46665330890E+03  0.12655358525E+04  0.00000000000E+00 0. -1.
<mgrwt>
<rscale>  0 0.29993178E+04</rscale>
<asrwt>0</asrwt>
<pdfrwt beam="1">  1        2 0.32315046E+00 0.29993178E+04</pdfrwt>
<pdfrwt beam="2">  1       -2 0.16472271E+00 0.29993178E+04</pdfrwt>
<totfact> 0.11692973E+00</totfact>
</mgrwt>
</event>
<event>
 6    1  0.5196787E-004  0.8370919E+03  0.7818608E-02  0.9507827E-01
          2   -1    0    0  501    0  0.00000000000E+00  0.00000000000E+00  0.38398037073E+03  0.38398037073E+03  0.00000000000E+00 0.  1.
         -2   -1    0    0    0  501 -0.00000000000E+00 -0.00000000000E+00 -0.45622304026E+03  0.45622304026E+03  0.00000000000E+00 0. -1.
         23    2    1    2    0    0 -0.23204781125E+03  0.90495915734E+02 -0.36773788273E+03  0.45374109912E+03  0.92812376191E+02 0.  0.
         11    1    3    3    0    0 -0.11364044952E+03  0.21933425533E+02 -0.24048896309E+03  0.26688980552E+03  0.00000000000E+00 0.  1.
        -11    1    3    3    0    0 -0.11840736172E+03  0.68562490201E+02 -0.12724891964E+03  0.18685129361E+03  0.00000000000E+00 0. -1.
         22    1    1    2    0    0  0.23204781125E+03 -0.90495915734E+02  0.29549521320E+03  0.38646231187E+03  0.00000000000E+00 0.  1.
<mgrwt>
<rscale>  0 0.83709185E+03</rscale>
<asrwt>0</asrwt>
<pdfrwt beam="1">  1        2 0.59073903E-01 0.83709185E+03</pdfrwt>
<pdfrwt beam="2">  1       -2 0.70188161E-01 0.83709185E+03</pdfrwt>
<totfact> 0.15489513E+02</totfact>
</mgrwt>
</event>
<event>
 6    1  0.5196787E-004  0.1364274E+04  0.7818608E-02  0.8980092E-01
          2   -1    0    0  501    0  0.00000000000E+00  0.00000000000E+00  0.65083340919E+03  0.65083340919E+03  0.00000000000E+00 0.  1.
         -2   -1    0    0    0  501 -0.00000000000E+00 -0.00000000000E+00 -0.71494652421E+03  0.71494652421E+03  0.00000000000E+00 0. -1.
         23    2    1    2    0    0  0.22097566469E+03  0.12275300337E+03 -0.66319822417E+03  0.71554804228E+03  0.90986658617E+02 0.  0.
         13    1    3    3    0    0  0.63101495499E+02  0.91493588232E+01 -0.26258682323E+03  0.27021722601E+03  0.00000000000E+00 0.  1.
        -13    1    3    3    0    0  0.15787416919E+03  0.11360364455E+03 -0.40061140094E+03  0.44533081627E+03  0.00000000000E+00 0. -1.
         22    1    1    2    0    0 -0.22097566469E+03 -0.12275300337E+03  0.59908510916E+03  0.65023189112E+03  0.00000000000E+00 0.  1.
<mgrwt>
<rscale>  0 0.13642743E+04</rscale>
<asrwt>0</asrwt>
<pdfrwt beam="1">  1        2 0.10012822E+00 0.13642743E+04</pdfrwt>
<pdfrwt beam="2">  1       -2 0.10999177E+00 0.13642743E+04</pdfrwt>
<totfact> 0.28786879E+01</totfact>
</mgrwt>
</event>
<event>
 6    1  0.5196787E-004  0.1643512E+04  0.7818608E-02  0.8794254E-01
          2   -1    0    0  501    0  0.00000000000E+00  0.00000000000E+00  0.27055648514E+04  0.27055648514E+04  0.00000000000E+00 0.  1.
         -2   -1    0    0    0  501 -0.00000000000E+00 -0.00000000000E+00 -0.24959038794E+03  0.24959038794E+03  0.00000000000E+00 0. -1.
         23    2    1    2    0    0 -0.49350893240E+03 -0.17897449889E+03  0.23625288841E+04  0.24219432610E+04  0.93185264113E+02 0.  0.
         11    1    3    3    0    0 -0.28189893638E+03 -0.52964996246E+02  0.12548601639E+04  0.12872242742E+04  0.00000000000E+00 0. -1.
        -11    1    3    3    0    0 -0.21160999602E+03 -0.12600950265E+03  0.11076687202E+04  0.11347189867E+04  0.00000000000E+00 0.  1.
         22    1    1    2    0    0  0.49350893240E+03  0.17897449889E+03  0.93445579378E+02  0.53321197841E+03  0.00000000000E+00 0. -1.
<mgrwt>
<rscale>  0 0.16435121E+04</rscale>
<asrwt>0</asrwt>
<pdfrwt beam="1">  1        2 0.41624073E+00 0.16435121E+04</pdfrwt>
<pdfrwt beam="2">  1       -2 0.38398523E-01 0.16435121E+04</pdfrwt>
<totfact> 0.16184484E+01</totfact>
</mgrwt>
</event>
<event>
 6    1  0.5196787E-004  0.3997143E+04  0.7818608E-02  0.8005123E-01
         -2   -1    0    0    0  501 -0.00000000000E+00  0.00000000000E+00  0.12853685533E+04  0.12853685533E+04  0.00000000000E+00 0. -1.
          2   -1    0    0  501    0  0.00000000000E+00 -0.00000000000E+00 -0.31075045256E+04  0.31075045256E+04  0.00000000000E+00 0.  1.
         23    2    1    2    0    0  0.16673860541E+04  0.10992164646E+04 -0.86650141202E+03  0.21788969041E+04  0.91180767629E+02 0.  0.
         11    1    3    3    0    0  0.97341833181E+03  0.65186171785E+03 -0.55618961948E+03  0.12968476552E+04  0.00000000000E+00 0. -1.
        -11    1    3    3    0    0  0.69396772229E+03  0.44735474675E+03 -0.31031179254E+03  0.88204924898E+03  0.00000000000E+00 0.  1.
         22    1    1    2    0    0 -0.16673860541E+04 -0.10992164646E+04 -0.95563456035E+03  0.22139761748E+04  0.00000000000E+00 0. -1.
<mgrwt>
<rscale>  0 0.39971433E+04</rscale>
<asrwt>0</asrwt>
<pdfrwt beam="1">  1        2 0.47807761E+00 0.39971433E+04</pdfrwt>
<pdfrwt beam="2">  1       -2 0.19774901E+00 0.39971433E+04</pdfrwt>
<totfact> 0.16148561E-01</totfact>
</mgrwt>
</event>
<event>
 6    1  0.5196787E-004  0.1622596E+04  0.7818608E-02  0.8806786E-01
         -2   -1    0    0    0  501 -0.00000000000E+00  0.00000000000E+00  0.53787665023E+03  0.53787665023E+03  0.00000000000E+00 0. -1.
          2   -1    0    0  501    0  0.00000000000E+00 -0.00000000000E+00 -0.12237081551E+04  0.12237081551E+04  0.00000000000E+00 0.  1.
         23    2    1    2    0    0 -0.43564360934E+03 -0.19961946024E+03  0.36322684514E+03  0.60826060763E+03  0.91727544940E+02 0.  0.
         13    1    3    3    0    0 -0.34562196848E+03 -0.16025375220E+03  0.23842640998E+03  0.44942514745E+03  0.00000000000E+00 0.  1.
        -13    1    3    3    0    0 -0.90021640860E+02 -0.39365708040E+02  0.12480043517E+03  0.15883546018E+03  0.00000000000E+00 0. -1.
         22    1    1    2    0    0  0.43564360934E+03  0.19961946024E+03 -0.10490583500E+04  0.11533241977E+04  0.00000000000E+00 0.  1.
<mgrwt>
<rscale>  0 0.16225955E+04</rscale>
<asrwt>0</asrwt>
<pdfrwt beam="1">  1        2 0.18826279E+00 0.16225955E+04</pdfrwt>
<pdfrwt beam="2">  1       -2 0.82750256E-01 0.16225955E+04</pdfrwt>
<totfact> 0.22479130E+01</totfact>
</mgrwt>
</event>
<event>
 6    1  0.5196787E-004  0.1848582E+04  0.7818608E-02  0.8680882E-01
         -2   -1    0    0    0  501 -0.00000000000E+00  0.00000000000E+00  0.26730137838E+03  0.26730137838E+03  0.00000000000E+00 0.  1.
          2   -1    0    0  501    0  0.00000000000E+00 -0.00000000000E+00 -0.31960700518E+04  0.31960700518E+04  0.00000000000E+00 0. -1.
         23    2    1    2    0    0  0.71047368715E+03  0.38944826121E+03 -0.22924314403E+04  0.24331443278E+04  0.92231247424E+02 0.  0.
         13    1    3    3    0    0  0.22764952193E+03  0.16943254902E+03 -0.85920988239E+03  0.90486093710E+03  0.00000000000E+00 0. -1.
        -13    1    3    3    0    0  0.48282416521E+03  0.22001571219E+03 -0.14332215579E+04  0.15282833907E+04  0.00000000000E+00 0.  1.
         22    1    1    2    0    0 -0.71047368715E+03 -0.38944826121E+03 -0.63633723312E+03  0.10302271024E+04  0.00000000000E+00 0. -1.
<mgrwt>
<rscale>  0 0.18485821E+04</rscale>
<asrwt>0</asrwt>
<pdfrwt beam="1">  1        2 0.49170313E+00 0.18485821E+04</pdfrwt>
<pdfrwt beam="2">  1       -2 0.41123286E-01 0.18485821E+04</pdfrwt>
<totfact> 0.69039910E+00</totfact>
</mgrwt>
</event>
<event>
 6    1  0.5196787E-004  0.3256124E+04  0.7818608E-02  0.8174150E-01
          2   -1    0    0  501    0  0.00000000000E+00  0.00000000000E+00  0.23264250771E+04  0.23264250771E+04  0.00000000000E+00 0.  1.
         -2   -1    0    0    0  501 -0.00000000000E+00 -0.00000000000E+00 -0.11393388140E+04  0.11393388140E+04  0.00000000000E+00 0. -1.
         23    2    1    2    0    0 -0.42279633997E+03 -0.22755584619E+03  0.22484210488E+04  0.23008733660E+04  0.89903424285E+02 0.  0.
         13    1    3    3    0    0 -0.20563564697E+03 -0.77720805645E+02  0.11844953578E+04  0.12047222899E+04  0.00000000000E+00 0. -1.
        -13    1    3    3    0    0 -0.21716069301E+03 -0.14983504055E+03  0.10639256910E+04  0.10961510762E+04  0.00000000000E+00 0.  1.
         22    1    1    2    0    0  0.42279633997E+03  0.22755584619E+03 -0.10613347857E+04  0.11648905251E+04  0.00000000000E+00 0. -1.
<mgrwt>
<rscale>  0 0.32561243E+04</rscale>
<asrwt>0</asrwt>
<pdfrwt beam="1">  1        2 0.35791155E+00 0.32561243E+04</pdfrwt>
<pdfrwt beam="2">  1       -2 0.17528289E+00 0.32561243E+04</pdfrwt>
<totfact> 0.71791107E-01</totfact>
</mgrwt>
</event>
<event>
 6    1  0.5196787E-004  0.1511361E+04  0.7818608E-02  0.8876933E-01
          2   -1    0    0  501    0  0.00000000000E+00  0.00000000000E+00  0.10217974844E+04  0.10217974844E+04  0.00000000000E+00 0.  1.
         -2   -1    0    0    0  501 -0.00000000000E+00 -0.00000000000E+00 -0.55887087205E+03  0.55887087205E+03  0.00000000000E+00 0. -1.
         23    2    1    2    0    0  0.14067493545E+03 -0.71887480397E+03  0.41576472410E+03  0.84664201837E+03  0.85860236495E+02 0.  0.
         11    1    3    3    0    0  0.39860243282E+02 -0.26623613589E+03  0.19888437947E+03  0.33470212943E+03  0.00000000000E+00 0. -1.
        -11    1    3    3    0    0  0.10081469217E+03 -0.45263866807E+03  0.21688034464E+03  0.51193988893E+03  0.00000000000E+00 0.  1.
         22    1    1    2    0    0 -0.14067493545E+03  0.71887480397E+03  0.47161888206E+02  0.73402633804E+03  0.00000000000E+00 0. -1.
<mgrwt>
<rscale>  0 0.15113608E+04</rscale>
<asrwt>0</asrwt>
<pdfrwt beam="1">  1        2 0.15719961E+00 0.15113608E+04</pdfrwt>
<pdfrwt beam="2">  1       -2 0.85980134E-01 0.15113608E+04</pdfrwt>
<totfact> 0.27645640E+01</totfact>
</mgrwt>
</event>
<event>
 6    1  0.5196787E-004  0.9008832E+03  0.7818608E-02  0.9424478E-01
         -2   -1    0    0    0  501 -0.00000000000E+00  0.00000000000E+00  0.27189293691E+03  0.27189293691E+03  0.00000000000E+00 0. -1.
          2   -1    0    0  501    0  0.00000000000E+00 -0.00000000000E+00 -0.74624094766E+03  0.74624094766E+03  0.00000000000E+00 0.  1.
         23    2    1    2    0    0  0.33311717724E+03 -0.22011864208E+03 -0.17035394797E+02  0.41104731820E+03  0.96179118129E+02 0.  0.
         11    1    3    3    0    0  0.18675351358E+03 -0.16311754347E+03  0.22791255328E+02  0.24900531950E+03  0.00000000000E+00 0. -1.
        -11    1    3    3    0    0  0.14636366366E+03 -0.57001098609E+02 -0.39826650125E+02  0.16204199870E+03  0.00000000000E+00 0.  1.
         22    1    1    2    0    0 -0.33311717724E+03  0.22011864208E+03 -0.45731261596E+03  0.60708656638E+03  0.00000000000E+00 0.  1.
<mgrwt>
<rscale>  0 0.90088322E+03</rscale>
<asrwt>0</asrwt>
<pdfrwt beam="1">  1        2 0.11480630E+00 0.90088322E+03</pdfrwt>
<pdfrwt beam="2">  1       -2 0.41829682E-01 0.90088322E+03</pdfrwt>
<totfact> 0.20492496E+02</totfact>
</mgrwt>
</event>
<event>
 6    1  0.5196787E-004  0.1351777E+04  0.7818608E-02  0.8989484E-01
         -2   -1    0    0    0  501 -0.00000000000E+00  0.00000000000E+00  0.15917503794E+03  0.15917503794E+03  0.00000000000E+00 0. -1.
          2   -1    0    0  501    0  0.00000000000E+00 -0.00000000000E+00 -0.28699551933E+04  0.28699551933E+04  0.00000000000E+00 0.  1.
         23    2    1    2    0    0  0.62875132104E+03 -0.35355257123E+02 -0.83311592728E+03  0.10486754422E+04  0.95183070598E+02 0.  0.
         11    1    3    3    0    0  0.24140361860E+03 -0.47610937222E+01 -0.39623859807E+03  0.46400797589E+03  0.00000000000E+00 0. -1.
        -11    1    3    3    0    0  0.38734770244E+03 -0.30594163401E+02 -0.43687732921E+03  0.58466746634E+03  0.00000000000E+00 0.  1.
         22    1    1    2    0    0 -0.62875132104E+03  0.35355257123E+02 -0.18776642281E+04  0.19804547891E+04  0.00000000000E+00 0.  1.
<mgrwt>
<rscale>  0 0.13517769E+04</rscale>
<asrwt>0</asrwt>
<pdfrwt beam="1">  1        2 0.44153156E+00 0.13517769E+04</pdfrwt>
<pdfrwt beam="2">  1       -2 0.24488468E-01 0.13517769E+04</pdfrwt>
<totfact> 0.30749545E+01</totfact>
</mgrwt>
</event>
<event>
 6    1  0.5196787E-004  0.4668428E+04  0.7818608E-02  0.7881796E-01
         -1   -1    0    0    0  501 -0.00000000000E+00  0.00000000000E+00  0.24072048913E+04  0.24072048913E+04  0.00000000000E+00 0. -1.
          1   -1    0    0  501    0  0.00000000000E+00 -0.00000000000E+00 -0.22634367625E+04  0.22634367625E+04  0.00000000000E+00 0.  1.
         23    2    1    2    0    0  0.18291792068E+04 -0.11104050271E+04 -0.85891851391E+03  0.23075342931E+04  0.89875499327E+02 0.  0.
         11    1    3    3    0    0  0.30953330334E+03 -0.15135562801E+03 -0.14971188055E+03  0.37567677488E+03  0.00000000000E+00 0. -1.
        -11    1    3    3    0    0  0.15196459034E+04 -0.95904939913E+03 -0.70920663336E+03  0.19318575182E+04  0.00000000000E+00 0.  1.
         22    1    1    2    0    0 -0.18291792068E+04  0.11104050271E+04  0.10026866427E+04  0.23631073607E+04  0.00000000000E+00 0. -1.
<mgrwt>
<rscale>  0 0.46684284E+04</rscale>
<asrwt>0</asrwt>
<pdfrwt beam="1">  1        1 0.34822104E+00 0.46684284E+04</pdfrwt>
<pdfrwt beam="2">  1       -1 0.37033921E+00 0.46684284E+04</pdfrwt>
<totfact> 0.16610938E-02</totfact>
</mgrwt>
</event>
<event>
 6    1  0.5196787E-004  0.1535869E+04  0.7818608E-02  0.8860945E-01
          2   -1    0    0  501    0  0.00000000000E+00  0.00000000000E+00  0.33179285896E+04  0.33179285896E+04  0.00000000000E+00 0. -1.
         -2   -1    0    0    0  501 -0.00000000000E+00 -0.00000000000E+00 -0.17773833747E+03  0.17773833747E+03  0.00000000000E+00 0.  1.
         23    2    1    2    0    0  0.49273462227E+03 -0.54064066736E+03  0.10648364619E+04  0.12951730975E+04  0.92287175713E+02 0.  0.
         13    1    3    3    0    0  0.28501066011E+03 -0.25139947774E+03  0.51364556590E+03  0.63895582097E+03  0.00000000000E+00 0.  1.
        -13    1    3    3    0    0  0.20772396216E+03 -0.28924118963E+03  0.55119089601E+03  0.65621727657E+03  0.00000000000E+00 0. -1.
         22    1    1    2    0    0 -0.49273462227E+03  0.54064066736E+03  0.20753537903E+04  0.22004938296E+04  0.00000000000E+00 0. -1.
<mgrwt>
<rscale>  0 0.15358686E+04</rscale>
<asrwt>0</asrwt>
<pdfrwt beam="1">  1        2 0.51045051E+00 0.15358686E+04</pdfrwt>
<pdfrwt beam="2">  1       -2 0.27344362E-01 0.15358686E+04</pdfrwt>
<totfact> 0.12850578E+01</totfact>
</mgrwt>
</event>
<event>
 6    1  0.5196787E-004  0.3227576E+04  0.7818608E-02  0.8181572E-01
          2   -1    0    0  501    0  0.00000000000E+00  0.00000000000E+00  0.32759307247E+04  0.32759307247E+04  0.00000000000E+00 0.  1.
         -2   -1    0    0    0  501 -0.00000000000E+00 -0.00000000000E+00 -0.79498393455E+03  0.79498393455E+03  0.00000000000E+00 0. -1.
         23    2    1    2    0    0  0.23481929743E+03 -0.14985298432E+04  0.19315726229E+04  0.24576745132E+04  0.91975115159E+02 0.  0.
         11    1    3    3    0    0  0.18441943162E+02 -0.32639813321E+03  0.38460970635E+03  0.50477764694E+03  0.00000000000E+00 0. -1.
        -11    1    3    3    0    0  0.21637735427E+03 -0.11721317099E+04  0.15469629166E+04  0.19528968662E+04  0.00000000000E+00 0.  1.
         22    1    1    2    0    0 -0.23481929743E+03  0.14985298432E+04  0.54937416720E+03  0.16132401461E+04  0.00000000000E+00 0. -1.
<mgrwt>
<rscale>  0 0.32275764E+04</rscale>
<asrwt>0</asrwt>
<pdfrwt beam="1">  1        2 0.50398934E+00 0.32275764E+04</pdfrwt>
<pdfrwt beam="2">  1       -2 0.12230522E+00 0.32275764E+04</pdfrwt>
<totfact> 0.49118028E-01</totfact>
</mgrwt>
</event>
<event>
 6    1  0.5196787E-004  0.2727730E+04  0.7818608E-02  0.8326063E-01
         -2   -1    0    0    0  501 -0.00000000000E+00  0.00000000000E+00  0.97371253085E+03  0.97371253085E+03  0.00000000000E+00 0. -1.
          2   -1    0    0  501    0  0.00000000000E+00 -0.00000000000E+00 -0.19103456296E+04  0.19103456296E+04  0.00000000000E+00 0.  1.
         23    2    1    2    0    0 -0.30633723742E+03 -0.52464418193E+03  0.82041928264E+03  0.10249381827E+04  0.91194618242E+02 0.  0.
         11    1    3    3    0    0 -0.20350131526E+03 -0.38701500569E+03  0.52549947630E+03  0.68362496994E+03  0.00000000000E+00 0.  1.
        -11    1    3    3    0    0 -0.10283592217E+03 -0.13762917624E+03  0.29491980634E+03  0.34131321277E+03  0.00000000000E+00 0. -1.
         22    1    1    2    0    0  0.30633723742E+03  0.52464418193E+03 -0.17570523813E+04  0.18591199777E+04  0.00000000000E+00 0.  1.
<mgrwt>
<rscale>  0 0.27277298E+04</rscale>
<asrwt>0</asrwt>
<pdfrwt beam="1">  1        2 0.29389932E+00 0.27277298E+04</pdfrwt>
<pdfrwt beam="2">  1       -2 0.14980193E+00 0.27277298E+04</pdfrwt>
<totfact> 0.19723949E+00</totfact>
</mgrwt>
</event>
<event>
 6    1  0.5196787E-004  0.2201219E+04  0.7818608E-02  0.8517921E-01
         -2   -1    0    0    0  501 -0.00000000000E+00  0.00000000000E+00  0.79888810846E+03  0.79888810846E+03  0.00000000000E+00 0. -1.
          2   -1    0    0  501    0  0.00000000000E+00 -0.00000000000E+00 -0.15162833477E+04  0.15162833477E+04  0.00000000000E+00 0.  1.
         23    2    1    2    0    0 -0.84381486298E+02 -0.40092072495E+03 -0.14315588005E+04  0.14918323673E+04  0.91353981266E+02 0.  0.
         13    1    3    3    0    0 -0.14702233327E+01 -0.50660479422E+02 -0.95221709708E+02  0.10786945690E+03  0.00000000000E+00 0. -1.
        -13    1    3    3    0    0 -0.82911262965E+02 -0.35026024553E+03 -0.13363370908E+04  0.13839629104E+04  0.00000000000E+00 0.  1.
         22    1    1    2    0    0  0.84381486298E+02  0.40092072495E+03  0.71416356129E+03  0.82333908883E+03  0.00000000000E+00 0. -1.
<mgrwt>
<rscale>  0 0.22012185E+04</rscale>
<asrwt>0</asrwt>
<pdfrwt beam="1">  1        2 0.23327436E+00 0.22012185E+04</pdfrwt>
<pdfrwt beam="2">  1       -2 0.12290586E+00 0.22012185E+04</pdfrwt>
<totfact> 0.56827618E+00</totfact>
</mgrwt>
</event>
<event>
 6    1  0.5196787E-004  0.2394248E+04  0.7818608E-02  0.8441660E-01
         -2   -1    0    0    0  501 -0.00000000000E+00  0.00000000000E+00  0.77167590200E+03  0.77167590200E+03  0.00000000000E+00 0. -1.
          2   -1    0    0  501    0  0.00000000000E+00 -0.00000000000E+00 -0.18571347127E+04  0.18571347127E+04  0.00000000000E+00 0.  1.
         23    2    1    2    0    0 -0.18871859972E+03  0.84486697309E+02 -0.18363066655E+04  0.18500133285E+04  0.88172751313E+02 0.  0.
         13    1    3    3    0    0 -0.42980939094E+02  0.12286002749E+02 -0.77788753417E+03  0.77917092015E+03  0.00000000000E+00 0.  1.
        -13    1    3    3    0    0 -0.14573766063E+03  0.72200694559E+02 -0.10584191313E+04  0.10708424084E+04  0.00000000000E+00 0. -1.
         22    1    1    2    0    0  0.18871859972E+03 -0.84486697309E+02  0.75084785480E+03  0.77879728618E+03  0.00000000000E+00 0. -1.
<mgrwt>
<rscale>  0 0.23942482E+04</rscale>
<asrwt>0</asrwt>
<pdfrwt beam="1">  1        2 0.28571303E+00 0.23942482E+04</pdfrwt>
<pdfrwt beam="2">  1       -2 0.11871937E+00 0.23942482E+04</pdfrwt>
<totfact> 0.39355832E+00</totfact>
</mgrwt>
</event>
<event>
 6    1  0.5946819E-004  0.3230059E+04  0.7818608E-02  0.8180923E-01
         -2   -1    0    0    0  501 -0.00000000000E+00  0.00000000000E+00  0.12534653527E+04  0.12534653527E+04  0.00000000000E+00 0. -1.
          2   -1    0    0  501    0  0.00000000000E+00 -0.00000000000E+00 -0.20808874199E+04  0.20808874199E+04  0.00000000000E+00 0.  1.
         23    2    1    2    0    0 -0.11843273388E+03 -0.12981931432E+04  0.56808289394E+03  0.14247020595E+04  0.87897863299E+02 0.  0.
         11    1    3    3    0    0 -0.20316192929E+02 -0.64841251634E+03  0.25945670642E+03  0.69869114890E+03  0.00000000000E+00 0.  1.
        -11    1    3    3    0    0 -0.98116540953E+02 -0.64978062685E+03  0.30862618752E+03  0.72601091056E+03  0.00000000000E+00 0. -1.
         22    1    1    2    0    0  0.11843273388E+03  0.12981931432E+04 -0.13955049611E+04  0.19096507131E+04  0.00000000000E+00 0.  1.
<mgrwt>
<rscale>  0 0.32300590E+04</rscale>
<asrwt>0</asrwt>
<pdfrwt beam="1">  1        2 0.32013652E+00 0.32300590E+04</pdfrwt>
<pdfrwt beam="2">  1       -2 0.19284083E+00 0.32300590E+04</pdfrwt>
<totfact> 0.75050260E-01</totfact>
</mgrwt>
</event>
<event>
 6    1  0.5196787E-004  0.4902205E+04  0.7818608E-02  0.7843773E-01
          2   -1    0    0  501    0  0.00000000000E+00  0.00000000000E+00  0.36506456316E+04  0.36506456316E+04  0.00000000000E+00 0.  1.
         -2   -1    0    0    0  501 -0.00000000000E+00 -0.00000000000E+00 -0.16457097847E+04  0.16457097847E+04  0.00000000000E+00 0. -1.
         23    2    1    2    0    0  0.47989828723E+03 -0.19179000324E+04  0.25666421984E+04  0.32410800271E+04  0.91129943356E+02 0.  0.
         11    1    3    3    0    0  0.41888793809E+03 -0.15423203645E+04  0.20994454591E+04  0.26385394534E+04  0.00000000000E+00 0.  1.
        -11    1    3    3    0    0  0.61010349146E+02 -0.37557966795E+03  0.46719673935E+03  0.60254057369E+03  0.00000000000E+00 0. -1.
         22    1    1    2    0    0 -0.47989828723E+03  0.19179000324E+04 -0.56170635151E+03  0.20552753893E+04  0.00000000000E+00 0. -1.
<mgrwt>
<rscale>  0 0.49022049E+04</rscale>
<asrwt>0</asrwt>
<pdfrwt beam="1">  1        2 0.56163779E+00 0.49022049E+04</pdfrwt>
<pdfrwt beam="2">  1       -2 0.25318612E+00 0.49022049E+04</pdfrwt>
<totfact> 0.28520587E-02</totfact>
</mgrwt>
</event>
<event>
 6    1  0.5196787E-004  0.2600043E+04  0.7818608E-02  0.8368187E-01
         -1   -1    0    0    0  501 -0.00000000000E+00  0.00000000000E+00  0.88631985748E+03  0.88631985748E+03  0.00000000000E+00 0. -1.
          1   -1    0    0  501    0  0.00000000000E+00 -0.00000000000E+00 -0.19068236042E+04  0.19068236042E+04  0.00000000000E+00 0.  1.
         23    2    1    2    0    0 -0.15700933669E+03  0.62926400182E+03  0.69752489205E+03  0.95677543771E+03  0.90846834779E+02 0.  0.
         13    1    3    3    0    0 -0.18582526249E+02  0.11020959121E+03  0.17306856463E+03  0.20601988336E+03  0.00000000000E+00 0.  1.
        -13    1    3    3    0    0 -0.13842681044E+03  0.51905441061E+03  0.52445632742E+03  0.75075555435E+03  0.00000000000E+00 0. -1.
         22    1    1    2    0    0  0.15700933669E+03 -0.62926400182E+03 -0.17180286387E+04  0.18363680239E+04  0.00000000000E+00 0.  1.
<mgrwt>
<rscale>  0 0.26000428E+04</rscale>
<asrwt>0</asrwt>
<pdfrwt beam="1">  1        1 0.29335748E+00 0.26000428E+04</pdfrwt>
<pdfrwt beam="2">  1       -1 0.13635690E+00 0.26000428E+04</pdfrwt>
<totfact> 0.13628574E+00</totfact>
</mgrwt>
</event>
<event>
 6    1  0.5196787E-004  0.3295328E+04  0.7818608E-02  0.8164085E-01
          2   -1    0    0  501    0  0.00000000000E+00  0.00000000000E+00  0.43189086867E+04  0.43189086867E+04  0.00000000000E+00 0.  1.
         -2   -1    0    0    0  501 -0.00000000000E+00 -0.00000000000E+00 -0.62858394483E+03  0.62858394483E+03  0.00000000000E+00 0. -1.
         23    2    1    2    0    0  0.10703450599E+04  0.12471315608E+04  0.16979024618E+04  0.23647184991E+04  0.89694665666E+02 0.  0.
         13    1    3    3    0    0  0.13630156262E+03  0.18945324796E+03  0.27670982649E+03  0.36199306238E+03  0.00000000000E+00 0. -1.
        -13    1    3    3    0    0  0.93404349727E+03  0.10576783128E+04  0.14211926353E+04  0.20027254367E+04  0.00000000000E+00 0.  1.
         22    1    1    2    0    0 -0.10703450599E+04 -0.12471315608E+04  0.19924222800E+04  0.25827741324E+04  0.00000000000E+00 0. -1.
<mgrwt>
<rscale>  0 0.32953280E+04</rscale>
<asrwt>0</asrwt>
<pdfrwt beam="1">  1        2 0.66444747E+00 0.32953280E+04</pdfrwt>
<pdfrwt beam="2">  1       -2 0.96705225E-01 0.32953280E+04</pdfrwt>
<totfact> 0.13581032E-01</totfact>
</mgrwt>
</event>
<event>
 6    1  0.5196787E-004  0.1396939E+04  0.7818608E-02  0.8956037E-01
          2   -1    0    0  501    0  0.00000000000E+00  0.00000000000E+00  0.14114076699E+04  0.14114076699E+04  0.00000000000E+00 0.  1.
         -2   -1    0    0    0  501 -0.00000000000E+00 -0.00000000000E+00 -0.34565465238E+03  0.34565465238E+03  0.00000000000E+00 0. -1.
         23    2    1    2    0    0 -0.65372127907E+03 -0.23617480002E+03  0.55692763583E+03  0.89564876541E+03  0.94277635454E+02 0.  0.
         13    1    3    3    0    0 -0.16421545916E+03 -0.23380205259E+02  0.16017381531E+03  0.23058404571E+03  0.00000000000E+00 0. -1.
        -13    1    3    3    0    0 -0.48950581992E+03 -0.21279459476E+03  0.39675382052E+03  0.66506471970E+03  0.00000000000E+00 0.  1.
         22    1    1    2    0    0  0.65372127907E+03  0.23617480002E+03  0.50882538165E+03  0.86141355683E+03  0.00000000000E+00 0.  1.
<mgrwt>
<rscale>  0 0.13969390E+04</rscale>
<asrwt>0</asrwt>
<pdfrwt beam="1">  1        2 0.21713964E+00 0.13969390E+04</pdfrwt>
<pdfrwt beam="2">  1       -2 0.53177640E-01 0.13969390E+04</pdfrwt>
<totfact> 0.46258931E+01</totfact>
</mgrwt>
</event>
<event>
 6    1  0.5196787E-004  0.9587617E+03  0.7818608E-02  0.9354968E-01
          2   -1    0    0  501    0  0.00000000000E+00  0.00000000000E+00  0.55012347865E+03  0.55012347865E+03  0.00000000000E+00 0.  1.
         -2   -1    0    0    0  501 -0.00000000000E+00 -0.00000000000E+00 -0.41773530675E+03  0.41773530675E+03  0.00000000000E+00 0. -1.
         23    2    1    2    0    0 -0.21078148651E+03  0.41401997217E+03  0.16784651672E+03  0.50192030595E+03  0.88939124932E+02 0.  0.
         13    1    3    3    0    0 -0.13821644194E+03  0.19834661013E+03  0.11780295104E+03  0.26892879699E+03  0.00000000000E+00 0. -1.
        -13    1    3    3    0    0 -0.72565044568E+02  0.21567336203E+03  0.50043565675E+02  0.23299150896E+03  0.00000000000E+00 0.  1.
         22    1    1    2    0    0  0.21078148651E+03 -0.41401997217E+03 -0.35458344814E+02  0.46593847944E+03  0.00000000000E+00 0. -1.
<mgrwt>
<rscale>  0 0.95876170E+03</rscale>
<asrwt>0</asrwt>
<pdfrwt beam="1">  1        2 0.84634381E-01 0.95876170E+03</pdfrwt>
<pdfrwt beam="2">  1       -2 0.64266971E-01 0.95876170E+03</pdfrwt>
<totfact> 0.12326997E+02</totfact>
</mgrwt>
</event>
<event>
 6    1  0.5196787E-004  0.1148638E+04  0.7818608E-02  0.9159041E-01
         -2   -1    0    0    0  501 -0.00000000000E+00  0.00000000000E+00  0.22401801650E+03  0.22401801650E+03  0.00000000000E+00 0. -1.
          2   -1    0    0  501    0  0.00000000000E+00 -0.00000000000E+00 -0.14723927649E+04  0.14723927649E+04  0.00000000000E+00 0.  1.
         23    2    1    2    0    0 -0.13357701397E+03 -0.16889467416E+02 -0.14472118883E+04  0.14562769000E+04  0.90510148249E+02 0.  0.
         13    1    3    3    0    0 -0.12738401992E+03 -0.12509168461E+02 -0.90445736166E+03  0.91346936833E+03  0.00000000000E+00 0. -1.
        -13    1    3    3    0    0 -0.61929940457E+01 -0.43802989553E+01 -0.54275452666E+03  0.54280753164E+03  0.00000000000E+00 0.  1.
         22    1    1    2    0    0  0.13357701397E+03  0.16889467416E+02  0.19883713995E+03  0.24013388139E+03  0.00000000000E+00 0. -1.
<mgrwt>
<rscale>  0 0.11486383E+04</rscale>
<asrwt>0</asrwt>
<pdfrwt beam="1">  1        2 0.22652198E+00 0.11486383E+04</pdfrwt>
<pdfrwt beam="2">  1       -2 0.34464308E-01 0.11486383E+04</pdfrwt>
<totfact> 0.10271182E+02</totfact>
</mgrwt>
</event>
<event>
 6    1  0.5196787E-004  0.3444202E+04  0.7818608E-02  0.8127142E-01
          2   -1    0    0  501    0  0.00000000000E+00  0.00000000000E+00  0.32999404198E+04  0.32999404198E+04  0.00000000000E+00 0.  1.
         -2   -1    0    0    0  501 -0.00000000000E+00 -0.00000000000E+00 -0.89869277016E+03  0.89869277016E+03  0.00000000000E+00 0. -1.
         23    2    1    2    0    0  0.13828229957E+03  0.16265743735E+04  0.53747042544E+03  0.17210271421E+04  0.90519493671E+02 0.  0.
         11    1    3    3    0    0  0.14012074404E+03  0.12514299025E+04  0.43278817849E+03  0.13315465561E+04  0.00000000000E+00 0. -1.
        -11    1    3    3    0    0 -0.18384444712E+01  0.37514447103E+03  0.10468224695E+03  0.38948058598E+03  0.00000000000E+00 0.  1.
         22    1    1    2    0    0 -0.13828229957E+03 -0.16265743735E+04  0.18637772242E+04  0.24776060479E+04  0.00000000000E+00 0.  1.
<mgrwt>
<rscale>  0 0.34442024E+04</rscale>
<asrwt>0</asrwt>
<pdfrwt beam="1">  1        2 0.50768314E+00 0.34442024E+04</pdfrwt>
<pdfrwt beam="2">  1       -2 0.13826043E+00 0.34442024E+04</pdfrwt>
<totfact> 0.34074443E-01</totfact>
</mgrwt>
</event>
<event>
 6    1  0.5196787E-004  0.1653956E+04  0.7818608E-02  0.8788070E-01
         -1   -1    0    0    0  501 -0.00000000000E+00  0.00000000000E+00  0.12483657014E+04  0.12483657014E+04  0.00000000000E+00 0. -1.
          1   -1    0    0  501    0  0.00000000000E+00 -0.00000000000E+00 -0.54783002451E+03  0.54783002451E+03  0.00000000000E+00 0.  1.
         23    2    1    2    0    0 -0.10174635324E+03 -0.76138824208E+03  0.67653871659E+03  0.10276645101E+04  0.91243271817E+02 0.  0.
         11    1    3    3    0    0 -0.40570142868E+02 -0.49848988538E+03  0.39189994339E+03  0.63539253060E+03  0.00000000000E+00 0. -1.
        -11    1    3    3    0    0 -0.61176210368E+02 -0.26289835670E+03  0.28463877320E+03  0.39227197948E+03  0.00000000000E+00 0.  1.
         22    1    1    2    0    0  0.10174635324E+03  0.76138824208E+03  0.23996960288E+02  0.76853121582E+03  0.00000000000E+00 0.  1.
<mgrwt>
<rscale>  0 0.16539555E+04</rscale>
<asrwt>0</asrwt>
<pdfrwt beam="1">  1        1 0.84281543E-01 0.16539555E+04</pdfrwt>
<pdfrwt beam="2">  1       -1 0.19205626E+00 0.16539555E+04</pdfrwt>
<totfact> 0.63682730E+00</totfact>
</mgrwt>
</event>
<event>
 6    1  0.5196787E-004  0.1827384E+04  0.7818608E-02  0.8691871E-01
          2   -1    0    0  501    0  0.00000000000E+00  0.00000000000E+00  0.11242625865E+04  0.11242625865E+04  0.00000000000E+00 0.  1.
         -2   -1    0    0    0  501 -0.00000000000E+00 -0.00000000000E+00 -0.74256031768E+03  0.74256031768E+03  0.00000000000E+00 0. -1.
         23    2    1    2    0    0  0.14376427320E+03  0.35708844788E+03  0.10351492136E+04  0.11084211403E+04  0.94250750422E+02 0.  0.
         11    1    3    3    0    0  0.78830250739E+02  0.22386753105E+03  0.75584698552E+03  0.79223452677E+03  0.00000000000E+00 0. -1.
        -11    1    3    3    0    0  0.64934022458E+02  0.13322091683E+03  0.27930222807E+03  0.31618661350E+03  0.00000000000E+00 0.  1.
         22    1    1    2    0    0 -0.14376427320E+03 -0.35708844788E+03 -0.65344694477E+03  0.75840176390E+03  0.00000000000E+00 0. -1.
<mgrwt>
<rscale>  0 0.18273837E+04</rscale>
<asrwt>0</asrwt>
<pdfrwt beam="1">  1        2 0.17296347E+00 0.18273837E+04</pdfrwt>
<pdfrwt beam="2">  1       -2 0.11424005E+00 0.18273837E+04</pdfrwt>
<totfact> 0.11884944E+01</totfact>
</mgrwt>
</event>
<event>
 6    1  0.5196787E-004  0.3058238E+04  0.7818608E-02  0.8227294E-01
         -2   -1    0    0    0  501 -0.00000000000E+00  0.00000000000E+00  0.10494873758E+04  0.10494873758E+04  0.00000000000E+00 0. -1.
          2   -1    0    0  501    0  0.00000000000E+00 -0.00000000000E+00 -0.22279492436E+04  0.22279492436E+04  0.00000000000E+00 0.  1.
         23    2    1    2    0    0  0.67205156096E+02  0.62229888015E+03 -0.20833002053E+04  0.21772071677E+04  0.91207875114E+02 0.  0.
         13    1    3    3    0    0  0.75653401866E+02  0.44861069427E+03 -0.13966122469E+04  0.14688433410E+04  0.00000000000E+00 0. -1.
        -13    1    3    3    0    0 -0.84482457705E+01  0.17368818588E+03 -0.68668795841E+03  0.70836382671E+03  0.00000000000E+00 0.  1.
         22    1    1    2    0    0 -0.67205156096E+02 -0.62229888015E+03  0.90483833754E+03  0.11002294517E+04  0.00000000000E+00 0. -1.
<mgrwt>
<rscale>  0 0.30582378E+04</rscale>
<asrwt>0</asrwt>
<pdfrwt beam="1">  1        2 0.34276142E+00 0.30582378E+04</pdfrwt>
<pdfrwt beam="2">  1       -2 0.16145960E+00 0.30582378E+04</pdfrwt>
<totfact> 0.10424621E+00</totfact>
</mgrwt>
</event>
<event>
 6    1  0.5196787E-004  0.1489061E+04  0.7818608E-02  0.8891760E-01
          2   -1    0    0  501    0  0.00000000000E+00  0.00000000000E+00  0.35971768381E+03  0.35971768381E+03  0.00000000000E+00 0.  1.
         -2   -1    0    0    0  501 -0.00000000000E+00 -0.00000000000E+00 -0.15410025911E+04  0.15410025911E+04  0.00000000000E+00 0. -1.
         23    2    1    2    0    0  0.15521750762E+03 -0.67084465899E+03 -0.94486169197E+03  0.11726948853E+04  0.91239497558E+02 0.  0.
         11    1    3    3    0    0  0.53999083477E+02 -0.13820030942E+03 -0.15415576632E+03  0.21396080676E+03  0.00000000000E+00 0. -1.
        -11    1    3    3    0    0  0.10121842414E+03 -0.53264434958E+03 -0.79070592565E+03  0.95873407855E+03  0.00000000000E+00 0.  1.
         22    1    1    2    0    0 -0.15521750762E+03  0.67084465899E+03 -0.23642321535E+03  0.72802538962E+03  0.00000000000E+00 0.  1.
<mgrwt>
<rscale>  0 0.14890613E+04</rscale>
<asrwt>0</asrwt>
<pdfrwt beam="1">  1        2 0.55341182E-01 0.14890613E+04</pdfrwt>
<pdfrwt beam="2">  1       -2 0.23707732E+00 0.14890613E+04</pdfrwt>
<totfact> 0.66930656E+00</totfact>
</mgrwt>
</event>
<event>
 6    1  0.5196787E-004  0.2314817E+04  0.7818608E-02  0.8472102E-01
          2   -1    0    0  501    0  0.00000000000E+00  0.00000000000E+00  0.86536000412E+03  0.86536000412E+03  0.00000000000E+00 0.  1.
         -2   -1    0    0    0  501 -0.00000000000E+00 -0.00000000000E+00 -0.15480195994E+04  0.15480195994E+04  0.00000000000E+00 0. -1.
         23    2    1    2    0    0 -0.45378170728E+03 -0.16146386356E+03 -0.14370520181E+04  0.15183397471E+04  0.90822175870E+02 0.  0.
         11    1    3    3    0    0 -0.32510168836E+03 -0.12439487293E+03 -0.11512103149E+04  0.12026846558E+04  0.00000000000E+00 0.  1.
        -11    1    3    3    0    0 -0.12868001892E+03 -0.37068990629E+02 -0.28584170325E+03  0.31565509128E+03  0.00000000000E+00 0. -1.
         22    1    1    2    0    0  0.45378170728E+03  0.16146386356E+03  0.75439242281E+03  0.89503985648E+03  0.00000000000E+00 0.  1.
<mgrwt>
<rscale>  0 0.23148168E+04</rscale>
<asrwt>0</asrwt>
<pdfrwt beam="1">  1        2 0.13313231E+00 0.23148168E+04</pdfrwt>
<pdfrwt beam="2">  1       -2 0.23815686E+00 0.23148168E+04</pdfrwt>
<totfact> 0.21320893E+00</totfact>
</mgrwt>
</event>
<event>
 6    1  0.5196787E-004  0.2162822E+04  0.7818608E-02  0.8534064E-01
         -2   -1    0    0    0  501 -0.00000000000E+00  0.00000000000E+00  0.90612849666E+03  0.90612849666E+03  0.00000000000E+00 0. -1.
          2   -1    0    0  501    0  0.00000000000E+00 -0.00000000000E+00 -0.12906003622E+04  0.12906003622E+04  0.00000000000E+00 0.  1.
         23    2    1    2    0    0 -0.97693518580E+02 -0.26135823247E+03  0.86658022074E+03  0.91493969062E+03  0.91110972070E+02 0.  0.
         13    1    3    3    0    0 -0.62784303739E+02 -0.12136376866E+03  0.55502619084E+03  0.57159872783E+03  0.00000000000E+00 0. -1.
        -13    1    3    3    0    0 -0.34909214841E+02 -0.13999446381E+03  0.31155402991E+03  0.34334096279E+03  0.00000000000E+00 0.  1.
         22    1    1    2    0    0  0.97693518580E+02  0.26135823247E+03 -0.12510520863E+04  0.12817891683E+04  0.00000000000E+00 0.  1.
<mgrwt>
<rscale>  0 0.21628220E+04</rscale>
<asrwt>0</asrwt>
<pdfrwt beam="1">  1        2 0.19855390E+00 0.21628220E+04</pdfrwt>
<pdfrwt beam="2">  1       -2 0.13940439E+00 0.21628220E+04</pdfrwt>
<totfact> 0.55752225E+00</totfact>
</mgrwt>
</event>
<event>
 6    1  0.5196787E-004  0.1568885E+04  0.7818608E-02  0.8839894E-01
          2   -1    0    0  501    0  0.00000000000E+00  0.00000000000E+00  0.29835547618E+03  0.29835547618E+03  0.00000000000E+00 0.  1.
         -2   -1    0    0    0  501 -0.00000000000E+00 -0.00000000000E+00 -0.20624727819E+04  0.20624727819E+04  0.00000000000E+00 0. -1.
         23    2    1    2    0    0 -0.31199964066E+03  0.57441533873E+03 -0.23949854130E+03  0.70198554886E+03  0.90152106911E+02 0.  0.
         13    1    3    3    0    0 -0.24036507944E+03  0.45924239668E+03 -0.22670358277E+03  0.56575035551E+03  0.00000000000E+00 0. -1.
        -13    1    3    3    0    0 -0.71634561228E+02  0.11517294205E+03 -0.12794958528E+02  0.13623519334E+03  0.00000000000E+00 0.  1.
         22    1    1    2    0    0  0.31199964066E+03 -0.57441533873E+03 -0.15246187644E+04  0.16588427092E+04  0.00000000000E+00 0. -1.
<mgrwt>
<rscale>  0 0.15688850E+04</rscale>
<asrwt>0</asrwt>
<pdfrwt beam="1">  1        2 0.45900842E-01 0.15688850E+04</pdfrwt>
<pdfrwt beam="2">  1       -2 0.31730351E+00 0.15688850E+04</pdfrwt>
<totfact> 0.26528888E+00</totfact>
</mgrwt>
</event>
<event>
 6    1  0.5196787E-004  0.2264246E+04  0.7818608E-02  0.8492153E-01
          2   -1    0    0  501    0  0.00000000000E+00  0.00000000000E+00  0.20658921790E+04  0.20658921790E+04  0.00000000000E+00 0.  1.
         -2   -1    0    0    0  501 -0.00000000000E+00 -0.00000000000E+00 -0.62041088976E+03  0.62041088976E+03  0.00000000000E+00 0. -1.
         23    2    1    2    0    0  0.67065777998E+03  0.76681898952E+03  0.13049586207E+04  0.16579355075E+04  0.89665628460E+02 0.  0.
         13    1    3    3    0    0  0.53436183365E+03  0.56099178484E+03  0.95700114282E+03  0.12313023752E+04  0.00000000000E+00 0. -1.
        -13    1    3    3    0    0  0.13629594633E+03  0.20582720468E+03  0.34795747784E+03  0.42663313228E+03  0.00000000000E+00 0.  1.
         22    1    1    2    0    0 -0.67065777998E+03 -0.76681898952E+03  0.14052266853E+03  0.10283675612E+04  0.00000000000E+00 0. -1.
<mgrwt>
<rscale>  0 0.22642456E+04</rscale>
<asrwt>0</asrwt>
<pdfrwt beam="1">  1        2 0.31782956E+00 0.22642456E+04</pdfrwt>
<pdfrwt beam="2">  1       -2 0.95447830E-01 0.22642456E+04</pdfrwt>
<totfact> 0.51453193E+00</totfact>
</mgrwt>
</event>
<event>
 6    1  0.5196787E-004  0.5468765E+03  0.7818608E-02  0.1002219E+00
          1   -1    0    0  501    0  0.00000000000E+00  0.00000000000E+00  0.64247965690E+03  0.64247965690E+03  0.00000000000E+00 0. -1.
         -1   -1    0    0    0  501 -0.00000000000E+00 -0.00000000000E+00 -0.11637486763E+03  0.11637486763E+03  0.00000000000E+00 0.  1.
         23    2    1    2    0    0  0.11882104252E+03 -0.14996070003E+03  0.52608343712E+03  0.56752587493E+03  0.93355150899E+02 0.  0.
         11    1    3    3    0    0  0.72055625164E+02 -0.26465247943E+02  0.24938170543E+03  0.26092845278E+03  0.00000000000E+00 0.  1.
        -11    1    3    3    0    0  0.46765417357E+02 -0.12349545209E+03  0.27670173169E+03  0.30659742215E+03  0.00000000000E+00 0. -1.
         22    1    1    2    0    0 -0.11882104252E+03  0.14996070003E+03  0.21352147853E-01  0.19132864960E+03  0.00000000000E+00 0.  1.
<mgrwt>
<rscale>  0 0.54687653E+03</rscale>
<asrwt>0</asrwt>
<pdfrwt beam="1">  1        1 0.98843022E-01 0.54687653E+03</pdfrwt>
<pdfrwt beam="2">  1       -1 0.17903826E-01 0.54687653E+03</pdfrwt>
<totfact> 0.76827151E+02</totfact>
</mgrwt>
</event>
<event>
 6    1  0.5196787E-004  0.3061427E+04  0.7818608E-02  0.8226404E-01
         -2   -1    0    0    0  501 -0.00000000000E+00  0.00000000000E+00  0.60114304309E+03  0.60114304309E+03  0.00000000000E+00 0. -1.
          2   -1    0    0  501    0  0.00000000000E+00 -0.00000000000E+00 -0.38977154346E+04  0.38977154346E+04  0.00000000000E+00 0.  1.
         23    2    1    2    0    0  0.10073995777E+04  0.10178767393E+04 -0.86067632781E+03  0.16731697831E+04  0.88353926591E+02 0.  0.
         13    1    3    3    0    0  0.71564235128E+03  0.66454439467E+03 -0.58619947361E+03  0.11390316283E+04  0.00000000000E+00 0. -1.
        -13    1    3    3    0    0  0.29175722638E+03  0.35333234466E+03 -0.27447685420E+03  0.53413815481E+03  0.00000000000E+00 0.  1.
         22    1    1    2    0    0 -0.10073995777E+04 -0.10178767393E+04 -0.24358960637E+04  0.28256886946E+04  0.00000000000E+00 0.  1.
<mgrwt>
<rscale>  0 0.30614275E+04</rscale>
<asrwt>0</asrwt>
<pdfrwt beam="1">  1        2 0.59964853E+00 0.30614275E+04</pdfrwt>
<pdfrwt beam="2">  1       -2 0.92483545E-01 0.30614275E+04</pdfrwt>
<totfact> 0.34848680E-01</totfact>
</mgrwt>
</event>
<event>
 6    1  0.5196787E-004  0.2472146E+04  0.7818608E-02  0.8412976E-01
         -2   -1    0    0    0  501 -0.00000000000E+00  0.00000000000E+00  0.95743867476E+03  0.95743867476E+03  0.00000000000E+00 0. -1.
          2   -1    0    0  501    0  0.00000000000E+00 -0.00000000000E+00 -0.15957954906E+04  0.15957954906E+04  0.00000000000E+00 0.  1.
         23    2    1    2    0    0 -0.80480559735E+03  0.75663717233E+03  0.24928131609E+03  0.11361550168E+04  0.92169341732E+02 0.  0.
         13    1    3    3    0    0 -0.48996949103E+03  0.39939787195E+03  0.13243412314E+03  0.64585413154E+03  0.00000000000E+00 0. -1.
        -13    1    3    3    0    0 -0.31483610633E+03  0.35723930038E+03  0.11684719295E+03  0.49030088525E+03  0.00000000000E+00 0.  1.
         22    1    1    2    0    0  0.80480559735E+03 -0.75663717233E+03 -0.88763813194E+03  0.14170791486E+04  0.00000000000E+00 0.  1.
<mgrwt>
<rscale>  0 0.24721459E+04</rscale>
<asrwt>0</asrwt>
<pdfrwt beam="1">  1        2 0.24550700E+00 0.24721459E+04</pdfrwt>
<pdfrwt beam="2">  1       -2 0.14729826E+00 0.24721459E+04</pdfrwt>
<totfact> 0.31516464E+00</totfact>
</mgrwt>
</event>
<event>
 6    1  0.5196787E-004  0.1340655E+04  0.7818608E-02  0.8997933E-01
         -2   -1    0    0    0  501 -0.00000000000E+00  0.00000000000E+00  0.40365840612E+03  0.40365840612E+03  0.00000000000E+00 0. -1.
          2   -1    0    0  501    0  0.00000000000E+00 -0.00000000000E+00 -0.11131657862E+04  0.11131657862E+04  0.00000000000E+00 0.  1.
         23    2    1    2    0    0  0.41051564888E+03 -0.26084636012E+03  0.16070961845E+03  0.51990817474E+03  0.88955084919E+02 0.  0.
         11    1    3    3    0    0  0.17856202211E+03 -0.16610406415E+03  0.81269847611E+02  0.25705980626E+03  0.00000000000E+00 0. -1.
        -11    1    3    3    0    0  0.23195362677E+03 -0.94742295978E+02  0.79439770835E+02  0.26284836848E+03  0.00000000000E+00 0.  1.
         22    1    1    2    0    0 -0.41051564888E+03  0.26084636012E+03 -0.87021699848E+03  0.99691601753E+03  0.00000000000E+00 0.  1.
<mgrwt>
<rscale>  0 0.13406547E+04</rscale>
<asrwt>0</asrwt>
<pdfrwt beam="1">  1        2 0.17125627E+00 0.13406547E+04</pdfrwt>
<pdfrwt beam="2">  1       -2 0.62101293E-01 0.13406547E+04</pdfrwt>
<totfact> 0.50315539E+01</totfact>
</mgrwt>
</event>
<event>
 6    1  0.5196787E-004  0.4152244E+04  0.7818608E-02  0.7974519E-01
          1   -1    0    0  501    0  0.00000000000E+00  0.00000000000E+00  0.31431221666E+04  0.31431221666E+04  0.00000000000E+00 0.  1.
         -1   -1    0    0    0  501 -0.00000000000E+00 -0.00000000000E+00 -0.13713380853E+04  0.13713380853E+04  0.00000000000E+00 0. -1.
         23    2    1    2    0    0  0.17044297226E+04  0.10264751400E+04  0.24551868146E+03  0.20068283086E+04  0.91370371735E+02 0.  0.
         13    1    3    3    0    0  0.39137676338E+03  0.19290659112E+03  0.44614722195E+02  0.43861053025E+03  0.00000000000E+00 0.  1.
        -13    1    3    3    0    0  0.13130529592E+04  0.83356854891E+03  0.20090395927E+03  0.15682177784E+04  0.00000000000E+00 0. -1.
         22    1    1    2    0    0 -0.17044297226E+04 -0.10264751400E+04  0.15262653998E+04  0.25076319433E+04  0.00000000000E+00 0.  1.
<mgrwt>
<rscale>  0 0.41522443E+04</rscale>
<asrwt>0</asrwt>
<pdfrwt beam="1">  1        1 0.48355726E+00 0.41522443E+04</pdfrwt>
<pdfrwt beam="2">  1       -1 0.21097509E+00 0.41522443E+04</pdfrwt>
<totfact> 0.45851300E-02</totfact>
</mgrwt>
</event>
<event>
 6    1  0.5196787E-004  0.4674774E+03  0.7818608E-02  0.1022635E+00
          2   -1    0    0  501    0  0.00000000000E+00  0.00000000000E+00  0.19182433714E+04  0.19182433714E+04  0.00000000000E+00 0.  1.
         -2   -1    0    0    0  501 -0.00000000000E+00 -0.00000000000E+00 -0.28481149067E+02  0.28481149067E+02  0.00000000000E+00 0. -1.
         23    2    1    2    0    0  0.19539947748E+03  0.85225341277E+02  0.12760754393E+04  0.12970663163E+04  0.92564504204E+02 0.  0.
         11    1    3    3    0    0  0.49314065734E+02 -0.16016237178E+02  0.21198176344E+03  0.21823076081E+03  0.00000000000E+00 0.  1.
        -11    1    3    3    0    0  0.14608541175E+03  0.10124157846E+03  0.10640936759E+04  0.10788355555E+04  0.00000000000E+00 0. -1.
         22    1    1    2    0    0 -0.19539947748E+03 -0.85225341277E+02  0.61368678297E+03  0.64965820412E+03  0.00000000000E+00 0. -1.
<mgrwt>
<rscale>  0 0.46747738E+03</rscale>
<asrwt>0</asrwt>
<pdfrwt beam="1">  1        2 0.29511426E+00 0.46747738E+03</pdfrwt>
<pdfrwt beam="2">  1       -2 0.43817167E-02 0.46747738E+03</pdfrwt>
<totfact> 0.19430767E+03</totfact>
</mgrwt>
</event>
<event>
 6    1  0.5196787E-004  0.2804491E+04  0.7818608E-02  0.8301875E-01
          2   -1    0    0  501    0  0.00000000000E+00  0.00000000000E+00  0.26706820460E+04  0.26706820460E+04  0.00000000000E+00 0.  1.
         -2   -1    0    0    0  501 -0.00000000000E+00 -0.00000000000E+00 -0.73625120313E+03  0.73625120313E+03  0.00000000000E+00 0. -1.
         23    2    1    2    0    0 -0.72991330424E+03  0.66779479196E+03  0.21729445641E+04  0.23892829600E+04  0.90893720268E+02 0.  0.
         11    1    3    3    0    0 -0.36967520451E+03  0.28587696222E+03  0.10807369636E+04  0.11774454462E+04  0.00000000000E+00 0. -1.
        -11    1    3    3    0    0 -0.36023809973E+03  0.38191782975E+03  0.10922076005E+04  0.12118375138E+04  0.00000000000E+00 0.  1.
         22    1    1    2    0    0  0.72991330424E+03 -0.66779479196E+03 -0.23851372118E+03  0.10176502892E+04  0.00000000000E+00 0. -1.
<mgrwt>
<rscale>  0 0.28044913E+04</rscale>
<asrwt>0</asrwt>
<pdfrwt beam="1">  1        2 0.41087416E+00 0.28044913E+04</pdfrwt>
<pdfrwt beam="2">  1       -2 0.11326942E+00 0.28044913E+04</pdfrwt>
<totfact> 0.14707841E+00</totfact>
</mgrwt>
</event>
<event>
 6    1  0.5196787E-004  0.4520937E+04  0.7818608E-02  0.7906981E-01
         -2   -1    0    0    0  501 -0.00000000000E+00  0.00000000000E+00  0.21878153553E+04  0.21878153553E+04  0.00000000000E+00 0. -1.
          2   -1    0    0  501    0  0.00000000000E+00 -0.00000000000E+00 -0.23355347484E+04  0.23355347484E+04  0.00000000000E+00 0.  1.
         23    2    1    2    0    0  0.93486119856E+03 -0.20092189832E+04  0.36742336896E+03  0.22482020979E+04  0.92121430326E+02 0.  0.
         11    1    3    3    0    0  0.73734411237E+03 -0.16125174928E+04  0.25836416562E+03  0.17918261765E+04  0.00000000000E+00 0. -1.
        -11    1    3    3    0    0  0.19751708620E+03 -0.39670149039E+03  0.10905920334E+03  0.45637592142E+03  0.00000000000E+00 0.  1.
         22    1    1    2    0    0 -0.93486119856E+03  0.20092189832E+04 -0.51514276202E+03  0.22751480058E+04  0.00000000000E+00 0. -1.
<mgrwt>
<rscale>  0 0.45209374E+04</rscale>
<asrwt>0</asrwt>
<pdfrwt beam="1">  1        2 0.35931304E+00 0.45209374E+04</pdfrwt>
<pdfrwt beam="2">  1       -2 0.33658698E+00 0.45209374E+04</pdfrwt>
<totfact> 0.61824145E-02</totfact>
</mgrwt>
</event>
<event>
 6    1  0.5196787E-004  0.2475958E+04  0.7818608E-02  0.8411601E-01
          2   -1    0    0  501    0  0.00000000000E+00  0.00000000000E+00  0.94773655818E+03  0.94773655818E+03  0.00000000000E+00 0.  1.
         -2   -1    0    0    0  501 -0.00000000000E+00 -0.00000000000E+00 -0.16171082067E+04  0.16171082067E+04  0.00000000000E+00 0. -1.
         23    2    1    2    0    0 -0.70728467265E+02  0.10864118494E+04  0.27210636224E+03  0.11255136468E+04  0.86289479454E+02 0.  0.
         11    1    3    3    0    0 -0.53211616070E+02  0.94174084102E+03  0.20591316039E+03  0.96545715460E+03  0.00000000000E+00 0. -1.
        -11    1    3    3    0    0 -0.17516851195E+02  0.14467100837E+03  0.66193201844E+02  0.16005649224E+03  0.00000000000E+00 0.  1.
         22    1    1    2    0    0  0.70728467265E+02 -0.10864118494E+04 -0.94147801073E+03  0.14393311180E+04  0.00000000000E+00 0. -1.
<mgrwt>
<rscale>  0 0.24759585E+04</rscale>
<asrwt>0</asrwt>
<pdfrwt beam="1">  1        2 0.14580563E+00 0.24759585E+04</pdfrwt>
<pdfrwt beam="2">  1       -2 0.24878587E+00 0.24759585E+04</pdfrwt>
<totfact> 0.15914665E+00</totfact>
</mgrwt>
</event>
<event>
 6    1  0.5196787E-004  0.2812418E+04  0.7818608E-02  0.8299423E-01
          2   -1    0    0  501    0  0.00000000000E+00  0.00000000000E+00  0.15392548636E+04  0.15392548636E+04  0.00000000000E+00 0.  1.
         -2   -1    0    0    0  501 -0.00000000000E+00 -0.00000000000E+00 -0.12846631446E+04  0.12846631446E+04  0.00000000000E+00 0. -1.
         23    2    1    2    0    0  0.36602867262E+03  0.44396584285E+03  0.14142189525E+04  0.15293841231E+04  0.88982534827E+02 0.  0.
         11    1    3    3    0    0  0.42319622231E+02  0.17204129072E+02  0.13611228951E+03  0.14357398036E+03  0.00000000000E+00 0.  1.
        -11    1    3    3    0    0  0.32370905039E+03  0.42676171377E+03  0.12781066630E+04  0.13858101427E+04  0.00000000000E+00 0. -1.
         22    1    1    2    0    0 -0.36602867262E+03 -0.44396584285E+03 -0.11596272336E+04  0.12945338851E+04  0.00000000000E+00 0. -1.
<mgrwt>
<rscale>  0 0.28124182E+04</rscale>
<asrwt>0</asrwt>
<pdfrwt beam="1">  1        2 0.23680844E+00 0.28124182E+04</pdfrwt>
<pdfrwt beam="2">  1       -2 0.19764048E+00 0.28124182E+04</pdfrwt>
<totfact> 0.14456328E+00</totfact>
</mgrwt>
</event>
<event>
 6    1  0.5196787E-004  0.4126914E+04  0.7818608E-02  0.7979422E-01
          2   -1    0    0  501    0  0.00000000000E+00  0.00000000000E+00  0.38881344223E+04  0.38881344223E+04  0.00000000000E+00 0.  1.
         -2   -1    0    0    0  501 -0.00000000000E+00 -0.00000000000E+00 -0.10950891666E+04  0.10950891666E+04  0.00000000000E+00 0. -1.
         23    2    1    2    0    0  0.72074035265E+03 -0.54458974152E+03  0.36359957932E+04  0.37476628858E+04  0.92016600159E+02 0.  0.
         13    1    3    3    0    0  0.26414131147E+03 -0.14928566037E+03  0.11486214842E+04  0.11880185835E+04  0.00000000000E+00 0. -1.
        -13    1    3    3    0    0  0.45659904118E+03 -0.39530408116E+03  0.24873743090E+04  0.25596443023E+04  0.00000000000E+00 0.  1.
         22    1    1    2    0    0 -0.72074035265E+03  0.54458974152E+03 -0.84295053752E+03  0.12355607032E+04  0.00000000000E+00 0. -1.
<mgrwt>
<rscale>  0 0.41269136E+04</rscale>
<asrwt>0</asrwt>
<pdfrwt beam="1">  1        2 0.59817452E+00 0.41269136E+04</pdfrwt>
<pdfrwt beam="2">  1       -2 0.16847526E+00 0.41269136E+04</pdfrwt>
<totfact> 0.71430765E-02</totfact>
</mgrwt>
</event>
<event>
 6    1  0.5196787E-004  0.8624243E+03  0.7818608E-02  0.9473812E-01
         -1   -1    0    0    0  501 -0.00000000000E+00  0.00000000000E+00  0.21274262588E+03  0.21274262588E+03  0.00000000000E+00 0. -1.
          1   -1    0    0  501    0  0.00000000000E+00 -0.00000000000E+00 -0.87403230408E+03  0.87403230408E+03  0.00000000000E+00 0.  1.
         23    2    1    2    0    0 -0.28244012671E+03  0.15880504974E+03 -0.68365699829E+03  0.76197997002E+03  0.90747531134E+02 0.  0.
         13    1    3    3    0    0 -0.49106969490E+02  0.69193609247E+02 -0.20822346974E+03  0.22484720004E+03  0.00000000000E+00 0.  1.
        -13    1    3    3    0    0 -0.23333315722E+03  0.89611440488E+02 -0.47543352855E+03  0.53713276998E+03  0.00000000000E+00 0. -1.
         22    1    1    2    0    0  0.28244012671E+03 -0.15880504974E+03  0.22367320086E+02  0.32479495994E+03  0.00000000000E+00 0. -1.
<mgrwt>
<rscale>  0 0.86242432E+03</rscale>
<asrwt>0</asrwt>
<pdfrwt beam="1">  1        1 0.13446651E+00 0.86242432E+03</pdfrwt>
<pdfrwt beam="2">  1       -1 0.32729635E-01 0.86242432E+03</pdfrwt>
<totfact> 0.16855060E+02</totfact>
</mgrwt>
</event>
<event>
 6    1  0.5196787E-004  0.9251536E+03  0.7818608E-02  0.9394673E-01
          2   -1    0    0  501    0  0.00000000000E+00  0.00000000000E+00  0.11807111692E+04  0.11807111692E+04  0.00000000000E+00 0.  1.
         -2   -1    0    0    0  501 -0.00000000000E+00 -0.00000000000E+00 -0.18122747217E+03  0.18122747217E+03  0.00000000000E+00 0. -1.
         23    2    1    2    0    0 -0.13477574081E+03 -0.23379780826E+03  0.10495505891E+04  0.10874707760E+04  0.90610894404E+02 0.  0.
         11    1    3    3    0    0 -0.69923062420E+02 -0.18283146243E+03  0.62334514231E+03  0.65335728722E+03  0.00000000000E+00 0.  1.
        -11    1    3    3    0    0 -0.64852678394E+02 -0.50966345832E+02  0.42620544675E+03  0.43411348878E+03  0.00000000000E+00 0. -1.
         22    1    1    2    0    0  0.13477574081E+03  0.23379780826E+03 -0.50066892004E+02  0.27446786540E+03  0.00000000000E+00 0. -1.
<mgrwt>
<rscale>  0 0.92515361E+03</rscale>
<asrwt>0</asrwt>
<pdfrwt beam="1">  1        2 0.18164787E+00 0.92515361E+03</pdfrwt>
<pdfrwt beam="2">  1       -2 0.27881150E-01 0.92515361E+03</pdfrwt>
<totfact> 0.22857508E+02</totfact>
</mgrwt>
</event>
<event>
 6    1  0.5196787E-004  0.2938471E+04  0.7818608E-02  0.8261522E-01
         -2   -1    0    0    0  501 -0.00000000000E+00  0.00000000000E+00  0.20041220833E+04  0.20041220833E+04  0.00000000000E+00 0. -1.
          2   -1    0    0  501    0  0.00000000000E+00 -0.00000000000E+00 -0.10771063302E+04  0.10771063302E+04  0.00000000000E+00 0.  1.
         23    2    1    2    0    0 -0.10245987648E+04 -0.14322374758E+02  0.15659213842E+04  0.18736655104E+04  0.92222035898E+02 0.  0.
         13    1    3    3    0    0 -0.74978457025E+03 -0.19111638803E+02  0.10703809527E+04  0.13070032672E+04  0.00000000000E+00 0.  1.
        -13    1    3    3    0    0 -0.27481419460E+03  0.47892640453E+01  0.49554043150E+03  0.56666224319E+03  0.00000000000E+00 0. -1.
         22    1    1    2    0    0  0.10245987648E+04  0.14322374758E+02 -0.63890563117E+03  0.12075629031E+04  0.00000000000E+00 0.  1.
<mgrwt>
<rscale>  0 0.29384707E+04</rscale>
<asrwt>0</asrwt>
<pdfrwt beam="1">  1        2 0.16570867E+00 0.29384707E+04</pdfrwt>
<pdfrwt beam="2">  1       -2 0.30832647E+00 0.29384707E+04</pdfrwt>
<totfact> 0.54720918E-01</totfact>
</mgrwt>
</event>
<event>
 6    1  0.5196787E-004  0.1805873E+04  0.7818608E-02  0.8703183E-01
          2   -1    0    0  501    0  0.00000000000E+00  0.00000000000E+00  0.25929630475E+04  0.25929630475E+04  0.00000000000E+00 0.  1.
         -2   -1    0    0    0  501 -0.00000000000E+00 -0.00000000000E+00 -0.31442573096E+03  0.31442573096E+03  0.00000000000E+00 0. -1.
         23    2    1    2    0    0  0.82007645229E+03  0.36996727336E+03  0.12069238426E+04  0.15081902191E+04  0.92581878685E+02 0.  0.
         13    1    3    3    0    0  0.37636085011E+03  0.21866076706E+03  0.56030375584E+03  0.70950709605E+03  0.00000000000E+00 0.  1.
        -13    1    3    3    0    0  0.44371560218E+03  0.15130650630E+03  0.64662008676E+03  0.79868312307E+03  0.00000000000E+00 0. -1.
         22    1    1    2    0    0 -0.82007645229E+03 -0.36996727336E+03  0.10716134740E+04  0.13991985594E+04  0.00000000000E+00 0.  1.
<mgrwt>
<rscale>  0 0.18058730E+04</rscale>
<asrwt>0</asrwt>
<pdfrwt beam="1">  1        2 0.39891738E+00 0.18058730E+04</pdfrwt>
<pdfrwt beam="2">  1       -2 0.48373191E-01 0.18058730E+04</pdfrwt>
<totfact> 0.11753656E+01</totfact>
</mgrwt>
</event>
<event>
 6    1  0.5196787E-004  0.2674715E+04  0.7818608E-02  0.8343256E-01
          2   -1    0    0  501    0  0.00000000000E+00  0.00000000000E+00  0.95374879083E+03  0.95374879083E+03  0.00000000000E+00 0.  1.
         -2   -1    0    0    0  501 -0.00000000000E+00 -0.00000000000E+00 -0.18752583954E+04  0.18752583954E+04  0.00000000000E+00 0. -1.
         23    2    1    2    0    0 -0.12436873166E+04 -0.46384909789E+03 -0.30308513284E+03  0.13646428346E+04  0.92061616311E+02 0.  0.
         11    1    3    3    0    0 -0.95202360209E+03 -0.39067581588E+03 -0.21475820791E+03  0.10512362341E+04  0.00000000000E+00 0.  1.
        -11    1    3    3    0    0 -0.29166371452E+03 -0.73173282011E+02 -0.88326924931E+02  0.31340660050E+03  0.00000000000E+00 0. -1.
         22    1    1    2    0    0  0.12436873166E+04  0.46384909789E+03 -0.61842447176E+03  0.14643643516E+04  0.00000000000E+00 0. -1.
<mgrwt>
<rscale>  0 0.26747153E+04</rscale>
<asrwt>0</asrwt>
<pdfrwt beam="1">  1        2 0.14673058E+00 0.26747153E+04</pdfrwt>
<pdfrwt beam="2">  1       -2 0.28850129E+00 0.26747153E+04</pdfrwt>
<totfact> 0.88687854E-01</totfact>
</mgrwt>
</event>
<event>
 6    1  0.5196787E-004  0.3304938E+04  0.7818608E-02  0.8161640E-01
          2   -1    0    0  501    0  0.00000000000E+00  0.00000000000E+00  0.31512652682E+04  0.31512652682E+04  0.00000000000E+00 0.  1.
         -2   -1    0    0    0  501 -0.00000000000E+00 -0.00000000000E+00 -0.86652637726E+03  0.86652637726E+03  0.00000000000E+00 0. -1.
         23    2    1    2    0    0 -0.16239835271E+04 -0.27256432795E+03  0.12923999627E+04  0.20952021527E+04  0.89222127475E+02 0.  0.
         11    1    3    3    0    0 -0.62691815147E+03 -0.12040686517E+03  0.44946319084E+03  0.78073128651E+03  0.00000000000E+00 0.  1.
        -11    1    3    3    0    0 -0.99706537561E+03 -0.15215746278E+03  0.84293677187E+03  0.13144708662E+04  0.00000000000E+00 0. -1.
         22    1    1    2    0    0  0.16239835271E+04  0.27256432795E+03  0.99233892823E+03  0.19225894927E+04  0.00000000000E+00 0. -1.
<mgrwt>
<rscale>  0 0.33049384E+04</rscale>
<asrwt>0</asrwt>
<pdfrwt beam="1">  1        2 0.48481004E+00 0.33049384E+04</pdfrwt>
<pdfrwt beam="2">  1       -2 0.13331175E+00 0.33049384E+04</pdfrwt>
<totfact> 0.47398112E-01</totfact>
</mgrwt>
</event>
<event>
 6    1  0.5196787E-004  0.1240438E+04  0.7818608E-02  0.9078180E-01
         -2   -1    0    0    0  501 -0.00000000000E+00  0.00000000000E+00  0.79804464427E+03  0.79804464427E+03  0.00000000000E+00 0. -1.
          2   -1    0    0  501    0  0.00000000000E+00 -0.00000000000E+00 -0.48201739197E+03  0.48201739197E+03  0.00000000000E+00 0.  1.
         23    2    1    2    0    0 -0.45027664941E+03 -0.10559294714E+03 -0.26255442503E+03  0.53934907642E+03  0.89797932310E+02 0.  0.
         11    1    3    3    0    0 -0.26267145016E+03 -0.88664908779E+02 -0.19620385938E+03  0.33963761749E+03  0.00000000000E+00 0.  1.
        -11    1    3    3    0    0 -0.18760519925E+03 -0.16928038363E+02 -0.66350565653E+02  0.19971145893E+03  0.00000000000E+00 0. -1.
         22    1    1    2    0    0  0.45027664941E+03  0.10559294714E+03  0.57858167733E+03  0.74071295981E+03  0.00000000000E+00 0. -1.
<mgrwt>
<rscale>  0 0.12404377E+04</rscale>
<asrwt>0</asrwt>
<pdfrwt beam="1">  1        2 0.74156522E-01 0.12404377E+04</pdfrwt>
<pdfrwt beam="2">  1       -2 0.12277610E+00 0.12404377E+04</pdfrwt>
<totfact> 0.31703924E+01</totfact>
</mgrwt>
</event>
<event>
 6    1  0.5196787E-004  0.1124238E+04  0.7818608E-02  0.9181884E-01
          2   -1    0    0  501    0  0.00000000000E+00  0.00000000000E+00  0.14892144908E+04  0.14892144908E+04  0.00000000000E+00 0.  1.
         -2   -1    0    0    0  501 -0.00000000000E+00 -0.00000000000E+00 -0.21217762649E+03  0.21217762649E+03  0.00000000000E+00 0. -1.
         23    2    1    2    0    0  0.23899364680E+03 -0.18716547683E+03  0.13520176304E+04  0.13887085805E+04  0.91711337924E+02 0.  0.
         13    1    3    3    0    0  0.57399452167E+02 -0.30328008432E+02  0.47665052804E+03  0.48105115226E+03  0.00000000000E+00 0.  1.
        -13    1    3    3    0    0  0.18159419464E+03 -0.15683746840E+03  0.87536710239E+03  0.90765742820E+03  0.00000000000E+00 0. -1.
         22    1    1    2    0    0 -0.23899364680E+03  0.18716547683E+03 -0.74980766101E+02  0.31268353685E+03  0.00000000000E+00 0. -1.
<mgrwt>
<rscale>  0 0.11242384E+04</rscale>
<asrwt>0</asrwt>
<pdfrwt beam="1">  1        2 0.22910992E+00 0.11242384E+04</pdfrwt>
<pdfrwt beam="2">  1       -2 0.32642713E-01 0.11242384E+04</pdfrwt>
<totfact> 0.11157953E+02</totfact>
</mgrwt>
</event>
<event>
 6    1  0.5196787E-004  0.1669252E+04  0.7818608E-02  0.8779098E-01
          2   -1    0    0  501    0  0.00000000000E+00  0.00000000000E+00  0.25914435915E+04  0.25914435915E+04  0.00000000000E+00 0.  1.
         -2   -1    0    0    0  501 -0.00000000000E+00 -0.00000000000E+00 -0.26880798315E+03  0.26880798315E+03  0.00000000000E+00 0. -1.
         23    2    1    2    0    0 -0.15065861050E+03 -0.77244207407E+03  0.70100318745E+03  0.10577376404E+04  0.89658643521E+02 0.  0.
         11    1    3    3    0    0 -0.14725663969E+03 -0.57389964898E+03  0.54792884065E+03  0.80701384092E+03  0.00000000000E+00 0.  1.
        -11    1    3    3    0    0 -0.34019708132E+01 -0.19854242509E+03  0.15307434680E+03  0.25072379946E+03  0.00000000000E+00 0. -1.
         22    1    1    2    0    0  0.15065861050E+03  0.77244207407E+03  0.16216324209E+04  0.18025139343E+04  0.00000000000E+00 0.  1.
<mgrwt>
<rscale>  0 0.16692522E+04</rscale>
<asrwt>0</asrwt>
<pdfrwt beam="1">  1        2 0.39868361E+00 0.16692522E+04</pdfrwt>
<pdfrwt beam="2">  1       -2 0.41355076E-01 0.16692522E+04</pdfrwt>
<totfact> 0.16303039E+01</totfact>
</mgrwt>
</event>
<event>
 6    1  0.5196787E-004  0.1773856E+04  0.7818608E-02  0.8720328E-01
          2   -1    0    0  501    0  0.00000000000E+00  0.00000000000E+00  0.25710844305E+04  0.25710844305E+04  0.00000000000E+00 0.  1.
         -2   -1    0    0    0  501 -0.00000000000E+00 -0.00000000000E+00 -0.30595688657E+03  0.30595688657E+03  0.00000000000E+00 0. -1.
         23    2    1    2    0    0 -0.20907527616E+03  0.36668328100E+03 -0.12464477835E+03  0.45027786507E+03  0.95103813457E+02 0.  0.
         11    1    3    3    0    0 -0.85927159404E+02  0.20416762801E+03 -0.10586708304E+03  0.24551117352E+03  0.00000000000E+00 0. -1.
        -11    1    3    3    0    0 -0.12314811675E+03  0.16251565299E+03 -0.18777695310E+02  0.20476669155E+03  0.00000000000E+00 0.  1.
         22    1    1    2    0    0  0.20907527616E+03 -0.36668328100E+03  0.23897723222E+04  0.24267634520E+04  0.00000000000E+00 0.  1.
<mgrwt>
<rscale>  0 0.17738557E+04</rscale>
<asrwt>0</asrwt>
<pdfrwt beam="1">  1        2 0.39555144E+00 0.17738557E+04</pdfrwt>
<pdfrwt beam="2">  1       -2 0.47070292E-01 0.17738557E+04</pdfrwt>
<totfact> 0.12827611E+01</totfact>
</mgrwt>
</event>
<event>
 6    1  0.5196787E-004  0.3060495E+04  0.7818608E-02  0.8226664E-01
          2   -1    0    0  501    0  0.00000000000E+00  0.00000000000E+00  0.22714373857E+04  0.22714373857E+04  0.00000000000E+00 0.  1.
         -2   -1    0    0    0  501 -0.00000000000E+00 -0.00000000000E+00 -0.10309142469E+04  0.10309142469E+04  0.00000000000E+00 0. -1.
         23    2    1    2    0    0  0.38529039445E+03 -0.64810124181E+03 -0.81431852668E+03  0.11135487228E+04  0.91608882705E+02 0.  0.
         11    1    3    3    0    0  0.27432954420E+03 -0.37410347806E+03 -0.49582724492E+03  0.67901013831E+03  0.00000000000E+00 0. -1.
        -11    1    3    3    0    0  0.11096085025E+03 -0.27399776374E+03 -0.31849128175E+03  0.43453858445E+03  0.00000000000E+00 0.  1.
         22    1    1    2    0    0 -0.38529039445E+03  0.64810124181E+03  0.20548416655E+04  0.21888029098E+04  0.00000000000E+00 0.  1.
<mgrwt>
<rscale>  0 0.30604948E+04</rscale>
<asrwt>0</asrwt>
<pdfrwt beam="1">  1        2 0.34945190E+00 0.30604948E+04</pdfrwt>
<pdfrwt beam="2">  1       -2 0.15860219E+00 0.30604948E+04</pdfrwt>
<totfact> 0.10340164E+00</totfact>
</mgrwt>
</event>
<event>
 6    1  0.5196787E-004  0.1751557E+04  0.7818608E-02  0.8732494E-01
          2   -1    0    0  501    0  0.00000000000E+00  0.00000000000E+00  0.22430805335E+04  0.22430805335E+04  0.00000000000E+00 0.  1.
         -2   -1    0    0    0  501 -0.00000000000E+00 -0.00000000000E+00 -0.34193498977E+03  0.34193498977E+03  0.00000000000E+00 0. -1.
         23    2    1    2    0    0 -0.31524111780E+02 -0.35794738953E+03 -0.22208142805E+03  0.43159664229E+03  0.88517781581E+02 0.  0.
         11    1    3    3    0    0 -0.37231252581E+02 -0.22989685527E+03 -0.18707796712E+03  0.29872545257E+03  0.00000000000E+00 0.  1.
        -11    1    3    3    0    0  0.57071408002E+01 -0.12805053426E+03 -0.35003460930E+02  0.13287118972E+03  0.00000000000E+00 0. -1.
         22    1    1    2    0    0  0.31524111780E+02  0.35794738953E+03  0.21232269718E+04  0.21534188810E+04  0.00000000000E+00 0.  1.
<mgrwt>
<rscale>  0 0.17515567E+04</rscale>
<asrwt>0</asrwt>
<pdfrwt beam="1">  1        2 0.34508930E+00 0.17515567E+04</pdfrwt>
<pdfrwt beam="2">  1       -2 0.52605385E-01 0.17515567E+04</pdfrwt>
<totfact> 0.15785326E+01</totfact>
</mgrwt>
</event>
<event>
 6    1  0.5196787E-004  0.2275065E+04  0.7818608E-02  0.8487818E-01
         -2   -1    0    0    0  501 -0.00000000000E+00  0.00000000000E+00  0.63871736732E+03  0.63871736732E+03  0.00000000000E+00 0. -1.
          2   -1    0    0  501    0  0.00000000000E+00 -0.00000000000E+00 -0.20259040566E+04  0.20259040566E+04  0.00000000000E+00 0.  1.
         23    2    1    2    0    0  0.86764159349E+03  0.23266650145E+03 -0.15085711064E+04  0.17581613794E+04  0.91700692400E+02 0.  0.
         11    1    3    3    0    0  0.48423147792E+03  0.13699600810E+03 -0.75649755210E+03  0.90859043401E+03  0.00000000000E+00 0. -1.
        -11    1    3    3    0    0  0.38341011558E+03  0.95670493357E+02 -0.75207355435E+03  0.84957094535E+03  0.00000000000E+00 0.  1.
         22    1    1    2    0    0 -0.86764159349E+03 -0.23266650145E+03  0.12138441718E+03  0.90646004456E+03  0.00000000000E+00 0.  1.
<mgrwt>
<rscale>  0 0.22750649E+04</rscale>
<asrwt>0</asrwt>
<pdfrwt beam="1">  1        2 0.31167754E+00 0.22750649E+04</pdfrwt>
<pdfrwt beam="2">  1       -2 0.98264212E-01 0.22750649E+04</pdfrwt>
<totfact> 0.50543037E+00</totfact>
</mgrwt>
</event>
<event>
 6    1  0.5196787E-004  0.9335347E+03  0.7818608E-02  0.9384606E-01
         -2   -1    0    0    0  501 -0.00000000000E+00  0.00000000000E+00  0.37575775331E+03  0.37575775331E+03  0.00000000000E+00 0. -1.
          2   -1    0    0  501    0  0.00000000000E+00 -0.00000000000E+00 -0.57981975557E+03  0.57981975557E+03  0.00000000000E+00 0.  1.
         23    2    1    2    0    0 -0.59232099052E+02 -0.14850460967E+03 -0.54709887513E+03  0.57711171544E+03  0.90436122597E+02 0.  0.
         13    1    3    3    0    0 -0.55529920243E+01 -0.88882761374E+02 -0.17378428204E+03  0.19527405787E+03  0.00000000000E+00 0.  1.
        -13    1    3    3    0    0 -0.53679107028E+02 -0.59621848299E+02 -0.37331459309E+03  0.38183765757E+03  0.00000000000E+00 0. -1.
         22    1    1    2    0    0  0.59232099052E+02  0.14850460967E+03  0.34303687288E+03  0.37846579344E+03  0.00000000000E+00 0. -1.
<mgrwt>
<rscale>  0 0.93353472E+03</rscale>
<asrwt>0</asrwt>
<pdfrwt beam="1">  1        2 0.89203040E-01 0.93353472E+03</pdfrwt>
<pdfrwt beam="2">  1       -2 0.57808885E-01 0.93353472E+03</pdfrwt>
<totfact> 0.14511983E+02</totfact>
</mgrwt>
</event>
<event>
 6    1  0.5196787E-004  0.2076290E+04  0.7818608E-02  0.8571760E-01
          2   -1    0    0  501    0  0.00000000000E+00  0.00000000000E+00  0.14025897493E+04  0.14025897493E+04  0.00000000000E+00 0.  1.
         -2   -1    0    0    0  501 -0.00000000000E+00 -0.00000000000E+00 -0.76839622014E+03  0.76839622014E+03  0.00000000000E+00 0. -1.
         23    2    1    2    0    0 -0.56533640181E+03  0.61558665439E+03 -0.32195513995E+03  0.90103618550E+03  0.98279800318E+02 0.  0.
         13    1    3    3    0    0 -0.36814252629E+03  0.46331574209E+03 -0.24253340536E+03  0.63954112396E+03  0.00000000000E+00 0. -1.
        -13    1    3    3    0    0 -0.19719387553E+03  0.15227091230E+03 -0.79421734596E+02  0.26149506153E+03  0.00000000000E+00 0.  1.
         22    1    1    2    0    0  0.56533640181E+03 -0.61558665439E+03  0.95614866908E+03  0.12699497839E+04  0.00000000000E+00 0.  1.
<mgrwt>
<rscale>  0 0.20762896E+04</rscale>
<asrwt>0</asrwt>
<pdfrwt beam="1">  1        2 0.21578304E+00 0.20762896E+04</pdfrwt>
<pdfrwt beam="2">  1       -2 0.11821480E+00 0.20762896E+04</pdfrwt>
<totfact> 0.73398469E+00</totfact>
</mgrwt>
</event>
<event>
 6    1  0.5196787E-004  0.1782268E+04  0.7818608E-02  0.8715786E-01
          2   -1    0    0  501    0  0.00000000000E+00  0.00000000000E+00  0.16807004556E+04  0.16807004556E+04  0.00000000000E+00 0.  1.
         -2   -1    0    0    0  501 -0.00000000000E+00 -0.00000000000E+00 -0.47249330239E+03  0.47249330239E+03  0.00000000000E+00 0. -1.
         23    2    1    2    0    0 -0.16222889545E+03  0.58828728567E+03  0.13863330502E+04  0.15174823611E+04  0.91832703045E+02 0.  0.
         13    1    3    3    0    0 -0.65541739441E+02  0.25593655821E+03  0.71341792674E+03  0.76076565355E+03  0.00000000000E+00 0. -1.
        -13    1    3    3    0    0 -0.96687156011E+02  0.33235072746E+03  0.67291512343E+03  0.75671670758E+03  0.00000000000E+00 0.  1.
         22    1    1    2    0    0  0.16222889545E+03 -0.58828728567E+03 -0.17812589691E+03  0.63571139690E+03  0.00000000000E+00 0. -1.
<mgrwt>
<rscale>  0 0.17822679E+04</rscale>
<asrwt>0</asrwt>
<pdfrwt beam="1">  1        2 0.25856930E+00 0.17822679E+04</pdfrwt>
<pdfrwt beam="2">  1       -2 0.72691278E-01 0.17822679E+04</pdfrwt>
<totfact> 0.16260909E+01</totfact>
</mgrwt>
</event>
<event>
 6    1  0.5196787E-004  0.3544863E+04  0.7818608E-02  0.8103240E-01
         -2   -1    0    0    0  501 -0.00000000000E+00  0.00000000000E+00  0.21353189350E+04  0.21353189350E+04  0.00000000000E+00 0. -1.
          2   -1    0    0  501    0  0.00000000000E+00 -0.00000000000E+00 -0.14712150808E+04  0.14712150808E+04  0.00000000000E+00 0.  1.
         23    2    1    2    0    0 -0.14547977072E+04  0.80116467394E+03  0.95815016324E+03  0.19198910673E+04  0.98126303373E+02 0.  0.
         11    1    3    3    0    0 -0.94434979617E+03  0.56255379263E+03  0.66530076267E+03  0.12848690252E+04  0.00000000000E+00 0.  1.
        -11    1    3    3    0    0 -0.51044791103E+03  0.23861088131E+03  0.29284940058E+03  0.63502204211E+03  0.00000000000E+00 0. -1.
         22    1    1    2    0    0  0.14547977072E+04 -0.80116467394E+03 -0.29404630902E+03  0.16866429484E+04  0.00000000000E+00 0. -1.
<mgrwt>
<rscale>  0 0.35448630E+04</rscale>
<asrwt>0</asrwt>
<pdfrwt beam="1">  1        2 0.22634078E+00 0.35448630E+04</pdfrwt>
<pdfrwt beam="2">  1       -2 0.32851060E+00 0.35448630E+04</pdfrwt>
<totfact> 0.22875217E-01</totfact>
</mgrwt>
</event>
<event>
 6    1  0.5196787E-004  0.3425350E+04  0.7818608E-02  0.8131713E-01
          2   -1    0    0  501    0  0.00000000000E+00  0.00000000000E+00  0.12782410528E+04  0.12782410528E+04  0.00000000000E+00 0.  1.
         -2   -1    0    0    0  501 -0.00000000000E+00 -0.00000000000E+00 -0.22947591645E+04  0.22947591645E+04  0.00000000000E+00 0. -1.
         23    2    1    2    0    0  0.16823788043E+04 -0.31343949462E+03 -0.51195646454E+03  0.17888406914E+04  0.95962698361E+02 0.  0.
         13    1    3    3    0    0  0.92872587636E+03 -0.17493025107E+03 -0.23287185122E+03  0.97332504604E+03  0.00000000000E+00 0. -1.
        -13    1    3    3    0    0  0.75365292796E+03 -0.13850924355E+03 -0.27908461332E+03  0.81551564532E+03  0.00000000000E+00 0.  1.
         22    1    1    2    0    0 -0.16823788043E+04  0.31343949462E+03 -0.50456164718E+03  0.17841595259E+04  0.00000000000E+00 0.  1.
<mgrwt>
<rscale>  0 0.34253498E+04</rscale>
<asrwt>0</asrwt>
<pdfrwt beam="1">  1        2 0.19665247E+00 0.34253498E+04</pdfrwt>
<pdfrwt beam="2">  1       -2 0.35303987E+00 0.34253498E+04</pdfrwt>
<totfact> 0.20939839E-01</totfact>
</mgrwt>
</event>
<event>
 6    1  0.5196787E-004  0.2430403E+04  0.7818608E-02  0.8428208E-01
         -2   -1    0    0    0  501 -0.00000000000E+00  0.00000000000E+00  0.22389092250E+04  0.22389092250E+04  0.00000000000E+00 0. -1.
          2   -1    0    0  501    0  0.00000000000E+00 -0.00000000000E+00 -0.65956877077E+03  0.65956877077E+03  0.00000000000E+00 0.  1.
         23    2    1    2    0    0  0.18004748829E+03  0.11254965942E+04  0.12875412170E+04  0.17219124531E+04  0.89779891649E+02 0.  0.
         11    1    3    3    0    0  0.80797384407E+02  0.53361975939E+03  0.67701301069E+03  0.86580880197E+03  0.00000000000E+00 0. -1.
        -11    1    3    3    0    0  0.99250103881E+02  0.59187683477E+03  0.61052820633E+03  0.85610365108E+03  0.00000000000E+00 0.  1.
         22    1    1    2    0    0 -0.18004748829E+03 -0.11254965942E+04  0.29179923722E+03  0.11765655427E+04  0.00000000000E+00 0.  1.
<mgrwt>
<rscale>  0 0.24304029E+04</rscale>
<asrwt>0</asrwt>
<pdfrwt beam="1">  1        2 0.10147212E+00 0.24304029E+04</pdfrwt>
<pdfrwt beam="2">  1       -2 0.34444757E+00 0.24304029E+04</pdfrwt>
<totfact> 0.66825973E-01</totfact>
</mgrwt>
</event>
<event>
 6    1  0.5196787E-004  0.2304557E+04  0.7818608E-02  0.8476127E-01
          1   -1    0    0  501    0  0.00000000000E+00  0.00000000000E+00  0.14143361167E+04  0.14143361167E+04  0.00000000000E+00 0.  1.
         -1   -1    0    0    0  501 -0.00000000000E+00 -0.00000000000E+00 -0.93877628495E+03  0.93877628495E+03  0.00000000000E+00 0. -1.
         23    2    1    2    0    0 -0.10213554257E+04 -0.73656498084E+02  0.77390271941E+03  0.12865287604E+04  0.87399352062E+02 0.  0.
         13    1    3    3    0    0 -0.72322345909E+03 -0.28025131563E+02  0.50580505105E+03  0.88299282525E+03  0.00000000000E+00 0.  1.
        -13    1    3    3    0    0 -0.29813196664E+03 -0.45631366521E+02  0.26809766836E+03  0.40353593511E+03  0.00000000000E+00 0. -1.
         22    1    1    2    0    0  0.10213554257E+04  0.73656498084E+02 -0.29834288761E+03  0.10665836413E+04  0.00000000000E+00 0. -1.
<mgrwt>
<rscale>  0 0.23045565E+04</rscale>
<asrwt>0</asrwt>
<pdfrwt beam="1">  1        1 0.21759017E+00 0.23045565E+04</pdfrwt>
<pdfrwt beam="2">  1       -1 0.14442712E+00 0.23045565E+04</pdfrwt>
<totfact> 0.26190383E+00</totfact>
</mgrwt>
</event>
<event>
 6    1  0.5196787E-004  0.2654255E+04  0.7818608E-02  0.8350002E-01
         -2   -1    0    0    0  501 -0.00000000000E+00  0.00000000000E+00  0.82182708283E+03  0.82182708283E+03  0.00000000000E+00 0. -1.
          2   -1    0    0  501    0  0.00000000000E+00 -0.00000000000E+00 -0.21431115917E+04  0.21431115917E+04  0.00000000000E+00 0.  1.
         23    2    1    2    0    0  0.16243575187E+03  0.12744261646E+04 -0.29641773275E+03  0.13214973670E+04  0.89131342761E+02 0.  0.
         11    1    3    3    0    0  0.11022496902E+03  0.79040184603E+03 -0.14063071536E+03  0.81034660492E+03  0.00000000000E+00 0. -1.
        -11    1    3    3    0    0  0.52210782850E+02  0.48402431856E+03 -0.15578701739E+03  0.51115076209E+03  0.00000000000E+00 0.  1.
         22    1    1    2    0    0 -0.16243575187E+03 -0.12744261646E+04 -0.10248667761E+04  0.16434413075E+04  0.00000000000E+00 0.  1.
<mgrwt>
<rscale>  0 0.26542548E+04</rscale>
<asrwt>0</asrwt>
<pdfrwt beam="1">  1        2 0.32970947E+00 0.26542548E+04</pdfrwt>
<pdfrwt beam="2">  1       -2 0.12643494E+00 0.26542548E+04</pdfrwt>
<totfact> 0.22803152E+00</totfact>
</mgrwt>
</event>
<event>
 6    1  0.5196787E-004  0.2304682E+04  0.7818608E-02  0.8476077E-01
          2   -1    0    0  501    0  0.00000000000E+00  0.00000000000E+00  0.24100332758E+04  0.24100332758E+04  0.00000000000E+00 0.  1.
         -2   -1    0    0    0  501 -0.00000000000E+00 -0.00000000000E+00 -0.55098387568E+03  0.55098387568E+03  0.00000000000E+00 0. -1.
         23    2    1    2    0    0 -0.38178377116E+03 -0.93319061904E+03  0.16428484166E+04  0.19298302409E+04  0.93221560127E+02 0.  0.
         11    1    3    3    0    0 -0.27688358535E+02 -0.13190185977E+03  0.25976584855E+03  0.29264832458E+03  0.00000000000E+00 0. -1.
        -11    1    3    3    0    0 -0.35409541262E+03 -0.80128875927E+03  0.13830825680E+04  0.16371819163E+04  0.00000000000E+00 0.  1.
         22    1    1    2    0    0  0.38178377116E+03  0.93319061904E+03  0.21620098356E+03  0.10311869106E+04  0.00000000000E+00 0. -1.
<mgrwt>
<rscale>  0 0.23046817E+04</rscale>
<asrwt>0</asrwt>
<pdfrwt beam="1">  1        2 0.37077434E+00 0.23046817E+04</pdfrwt>
<pdfrwt beam="2">  1       -2 0.84766751E-01 0.23046817E+04</pdfrwt>
<totfact> 0.43104803E+00</totfact>
</mgrwt>
</event>
<event>
 6    1  0.5196787E-004  0.3274833E+04  0.7818608E-02  0.8169329E-01
          2   -1    0    0  501    0  0.00000000000E+00  0.00000000000E+00  0.13618751299E+04  0.13618751299E+04  0.00000000000E+00 0.  1.
         -2   -1    0    0    0  501 -0.00000000000E+00 -0.00000000000E+00 -0.19687073510E+04  0.19687073510E+04  0.00000000000E+00 0. -1.
         23    2    1    2    0    0 -0.34582156984E+03  0.14756799201E+04  0.32310139549E+03  0.15523810537E+04  0.90932060034E+02 0.  0.
         11    1    3    3    0    0 -0.26370401412E+03  0.10369012908E+04  0.26482822737E+03  0.11021969352E+04  0.00000000000E+00 0.  1.
        -11    1    3    3    0    0 -0.82117555714E+02  0.43877862929E+03  0.58273168113E+02  0.45018411856E+03  0.00000000000E+00 0. -1.
         22    1    1    2    0    0  0.34582156984E+03 -0.14756799201E+04 -0.92993361655E+03  0.17782014272E+04  0.00000000000E+00 0.  1.
<mgrwt>
<rscale>  0 0.32748335E+04</rscale>
<asrwt>0</asrwt>
<pdfrwt beam="1">  1        2 0.20951925E+00 0.32748335E+04</pdfrwt>
<pdfrwt beam="2">  1       -2 0.30287805E+00 0.32748335E+04</pdfrwt>
<totfact> 0.38869171E-01</totfact>
</mgrwt>
</event>
<event>
 6    1  0.5196787E-004  0.4760888E+04  0.7818608E-02  0.7866490E-01
         -2   -1    0    0    0  501 -0.00000000000E+00  0.00000000000E+00  0.16542218787E+04  0.16542218787E+04  0.00000000000E+00 0. -1.
          2   -1    0    0  501    0  0.00000000000E+00 -0.00000000000E+00 -0.34254864945E+04  0.34254864945E+04  0.00000000000E+00 0.  1.
         23    2    1    2    0    0  0.16031212645E+04  0.14050763870E+03 -0.27559145483E+04  0.31931041023E+04  0.10539746234E+03 0.  0.
         11    1    3    3    0    0  0.90009501918E+03  0.86301254504E+02 -0.16502327345E+04  0.18817244825E+04  0.00000000000E+00 0.  1.
        -11    1    3    3    0    0  0.70302624534E+03  0.54206384193E+02 -0.11056818138E+04  0.13113796198E+04  0.00000000000E+00 0. -1.
         22    1    1    2    0    0 -0.16031212645E+04 -0.14050763870E+03  0.98464993259E+03  0.18866042709E+04  0.00000000000E+00 0. -1.
<mgrwt>
<rscale>  0 0.47608884E+04</rscale>
<asrwt>0</asrwt>
<pdfrwt beam="1">  1        2 0.52699791E+00 0.47608884E+04</pdfrwt>
<pdfrwt beam="2">  1       -2 0.25449568E+00 0.47608884E+04</pdfrwt>
<totfact> 0.40904753E-02</totfact>
</mgrwt>
</event>
<event>
 6    1  0.5196787E-004  0.4307451E+04  0.7818608E-02  0.7945242E-01
         -2   -1    0    0    0  501 -0.00000000000E+00  0.00000000000E+00  0.17692497332E+04  0.17692497332E+04  0.00000000000E+00 0. -1.
          2   -1    0    0  501    0  0.00000000000E+00 -0.00000000000E+00 -0.26217513348E+04  0.26217513348E+04  0.00000000000E+00 0.  1.
         23    2    1    2    0    0 -0.18584861030E+04  0.82765185441E+03  0.29108304604E+03  0.20571707329E+04  0.90795911056E+02 0.  0.
         11    1    3    3    0    0 -0.16060372847E+04  0.74838963357E+03  0.25676438763E+03  0.17903549241E+04  0.00000000000E+00 0. -1.
        -11    1    3    3    0    0 -0.25244881829E+03  0.79262220839E+02  0.34318658415E+02  0.26681580880E+03  0.00000000000E+00 0.  1.
         22    1    1    2    0    0  0.18584861030E+04 -0.82765185441E+03 -0.11435846477E+04  0.23338303352E+04  0.00000000000E+00 0.  1.
<mgrwt>
<rscale>  0 0.43074507E+04</rscale>
<asrwt>0</asrwt>
<pdfrwt beam="1">  1        2 0.40334636E+00 0.43074507E+04</pdfrwt>
<pdfrwt beam="2">  1       -2 0.27219227E+00 0.43074507E+04</pdfrwt>
<totfact> 0.10685931E-01</totfact>
</mgrwt>
</event>
<event>
 6    1  0.5196787E-004  0.1266673E+04  0.7818608E-02  0.9056420E-01
          2   -1    0    0  501    0  0.00000000000E+00  0.00000000000E+00  0.14974205434E+04  0.14974205434E+04  0.00000000000E+00 0.  1.
         -2   -1    0    0    0  501 -0.00000000000E+00 -0.00000000000E+00 -0.26787055655E+03  0.26787055655E+03  0.00000000000E+00 0. -1.
         23    2    1    2    0    0  0.40959910141E+03 -0.45062261537E+03  0.38577899752E+03  0.72472315513E+03  0.74605973575E+02 0.  0.
         13    1    3    3    0    0  0.35643658229E+03 -0.35017376471E+03  0.30711824773E+03  0.58650688041E+03  0.00000000000E+00 0.  1.
        -13    1    3    3    0    0  0.53162519123E+02 -0.10044885066E+03  0.78660749795E+02  0.13821627472E+03  0.00000000000E+00 0. -1.
         22    1    1    2    0    0 -0.40959910141E+03  0.45062261537E+03  0.84377098934E+03  0.10405679448E+04  0.00000000000E+00 0.  1.
<mgrwt>
<rscale>  0 0.12666726E+04</rscale>
<asrwt>0</asrwt>
<pdfrwt beam="1">  1        2 0.23037239E+00 0.12666726E+04</pdfrwt>
<pdfrwt beam="2">  1       -2 0.41210856E-01 0.12666726E+04</pdfrwt>
<totfact> 0.69756721E+01</totfact>
</mgrwt>
</event>
<event>
 6    1  0.5196787E-004  0.2401628E+04  0.7818608E-02  0.8438894E-01
          2   -1    0    0  501    0  0.00000000000E+00  0.00000000000E+00  0.86022512189E+03  0.86022512189E+03  0.00000000000E+00 0. -1.
         -2   -1    0    0    0  501 -0.00000000000E+00 -0.00000000000E+00 -0.16762528209E+04  0.16762528209E+04  0.00000000000E+00 0.  1.
         23    2    1    2    0    0  0.12873542233E+03  0.62906017763E+03 -0.14782608356E+04  0.16140668397E+04  0.87562256612E+02 0.  0.
         13    1    3    3    0    0  0.63189102470E+02  0.48759106450E+03 -0.11476988682E+04  0.12485794332E+04  0.00000000000E+00 0. -1.
        -13    1    3    3    0    0  0.65546319863E+02  0.14146911313E+03 -0.33056196741E+03  0.36548740651E+03  0.00000000000E+00 0.  1.
         22    1    1    2    0    0 -0.12873542233E+03 -0.62906017763E+03  0.66223313657E+03  0.92241110315E+03  0.00000000000E+00 0. -1.
<mgrwt>
<rscale>  0 0.24016284E+04</rscale>
<asrwt>0</asrwt>
<pdfrwt beam="1">  1        2 0.13234233E+00 0.24016284E+04</pdfrwt>
<pdfrwt beam="2">  1       -2 0.25788505E+00 0.24016284E+04</pdfrwt>
<totfact> 0.16134779E+00</totfact>
</mgrwt>
</event>
<event>
 6    1  0.5196787E-004  0.2304056E+04  0.7818608E-02  0.8476324E-01
         -2   -1    0    0    0  501 -0.00000000000E+00  0.00000000000E+00  0.36341257438E+03  0.36341257438E+03  0.00000000000E+00 0. -1.
          2   -1    0    0  501    0  0.00000000000E+00 -0.00000000000E+00 -0.36519594115E+04  0.36519594115E+04  0.00000000000E+00 0.  1.
         23    2    1    2    0    0  0.27061305094E+03 -0.98948160976E+03 -0.74026096257E+03  0.12683615786E+04  0.91921281120E+02 0.  0.
         11    1    3    3    0    0  0.27043324589E+03 -0.90191578976E+03 -0.69057399182E+03  0.11676808941E+04  0.00000000000E+00 0. -1.
        -11    1    3    3    0    0  0.17980504937E+00 -0.87565820009E+02 -0.49686970747E+02  0.10068068447E+03  0.00000000000E+00 0.  1.
         22    1    1    2    0    0 -0.27061305094E+03  0.98948160976E+03 -0.25482858745E+04  0.27470104073E+04  0.00000000000E+00 0.  1.
<mgrwt>
<rscale>  0 0.23040555E+04</rscale>
<asrwt>0</asrwt>
<pdfrwt beam="1">  1        2 0.56183992E+00 0.23040555E+04</pdfrwt>
<pdfrwt beam="2">  1       -2 0.55909626E-01 0.23040555E+04</pdfrwt>
<totfact> 0.17298681E+00</totfact>
</mgrwt>
</event>
<event>
 6    1  0.5196787E-004  0.2385471E+04  0.7818608E-02  0.8444963E-01
          1   -1    0    0  501    0  0.00000000000E+00  0.00000000000E+00  0.11398862052E+04  0.11398862052E+04  0.00000000000E+00 0. -1.
         -1   -1    0    0    0  501 -0.00000000000E+00 -0.00000000000E+00 -0.12480346199E+04  0.12480346199E+04  0.00000000000E+00 0.  1.
         23    2    1    2    0    0  0.11832327452E+04  0.97227083745E+02 -0.14989489561E+03  0.11999664472E+04  0.89208517912E+02 0.  0.
         11    1    3    3    0    0  0.10928676767E+04  0.65659665986E+02 -0.13911373282E+03  0.11036410563E+04  0.00000000000E+00 0.  1.
        -11    1    3    3    0    0  0.90365068529E+02  0.31567417759E+02 -0.10781162787E+02  0.96325390969E+02  0.00000000000E+00 0. -1.
         22    1    1    2    0    0 -0.11832327452E+04 -0.97227083745E+02  0.41746480865E+02  0.11879543778E+04  0.00000000000E+00 0.  1.
<mgrwt>
<rscale>  0 0.23854706E+04</rscale>
<asrwt>0</asrwt>
<pdfrwt beam="1">  1        1 0.17536711E+00 0.23854706E+04</pdfrwt>
<pdfrwt beam="2">  1       -1 0.19200533E+00 0.23854706E+04</pdfrwt>
<totfact> 0.18166887E+00</totfact>
</mgrwt>
</event>
<event>
 6    1  0.5196787E-004  0.3259854E+04  0.7818608E-02  0.8173186E-01
          2   -1    0    0  501    0  0.00000000000E+00  0.00000000000E+00  0.21639552347E+04  0.21639552347E+04  0.00000000000E+00 0.  1.
         -2   -1    0    0    0  501 -0.00000000000E+00 -0.00000000000E+00 -0.12276878865E+04  0.12276878865E+04  0.00000000000E+00 0. -1.
         23    2    1    2    0    0 -0.72225518665E+03  0.75157225162E+03  0.17705038950E+04  0.20565536036E+04  0.90638171384E+02 0.  0.
         13    1    3    3    0    0 -0.22536791270E+03  0.19561441956E+03  0.56827660056E+03  0.64186758132E+03  0.00000000000E+00 0.  1.
        -13    1    3    3    0    0 -0.49688727395E+03  0.55595783206E+03  0.12022272944E+04  0.14146860223E+04  0.00000000000E+00 0. -1.
         22    1    1    2    0    0  0.72225518665E+03 -0.75157225162E+03 -0.83423654679E+03  0.13350895176E+04  0.00000000000E+00 0. -1.
<mgrwt>
<rscale>  0 0.32598538E+04</rscale>
<asrwt>0</asrwt>
<pdfrwt beam="1">  1        2 0.33291619E+00 0.32598538E+04</pdfrwt>
<pdfrwt beam="2">  1       -2 0.18887506E+00 0.32598538E+04</pdfrwt>
<totfact> 0.71508990E-01</totfact>
</mgrwt>
</event>
<event>
 6    1  0.5196787E-004  0.3683740E+04  0.7818608E-02  0.8071575E-01
          2   -1    0    0  501    0  0.00000000000E+00  0.00000000000E+00  0.88353309095E+03  0.88353309095E+03  0.00000000000E+00 0.  1.
         -2   -1    0    0    0  501 -0.00000000000E+00 -0.00000000000E+00 -0.38396813471E+04  0.38396813471E+04  0.00000000000E+00 0. -1.
         23    2    1    2    0    0 -0.22929146110E+03 -0.20941163382E+02 -0.38205865176E+04  0.38286382176E+04  0.92607541523E+02 0.  0.
         11    1    3    3    0    0 -0.20578531648E+03 -0.47341775095E+02 -0.34106573322E+04  0.34171877733E+04  0.00000000000E+00 0.  1.
        -11    1    3    3    0    0 -0.23506144614E+02  0.26400611713E+02 -0.40992918533E+03  0.41145044430E+03  0.00000000000E+00 0. -1.
         22    1    1    2    0    0  0.22929146110E+03  0.20941163382E+02  0.86443826139E+03  0.89457622046E+03  0.00000000000E+00 0.  1.
<mgrwt>
<rscale>  0 0.36837402E+04</rscale>
<asrwt>0</asrwt>
<pdfrwt beam="1">  1        2 0.13592817E+00 0.36837402E+04</pdfrwt>
<pdfrwt beam="2">  1       -2 0.59072021E+00 0.36837402E+04</pdfrwt>
<totfact> 0.13415628E-02</totfact>
</mgrwt>
</event>
<event>
 6    1  0.5196787E-004  0.8303557E+03  0.7818608E-02  0.9517089E-01
          2   -1    0    0  501    0  0.00000000000E+00  0.00000000000E+00  0.13248648269E+04  0.13248648269E+04  0.00000000000E+00 0.  1.
         -2   -1    0    0    0  501 -0.00000000000E+00 -0.00000000000E+00 -0.13010584504E+03  0.13010584504E+03  0.00000000000E+00 0. -1.
         23    2    1    2    0    0 -0.10079666426E+03 -0.21208853922E+03  0.13089760692E+02  0.25019531353E+03  0.85351257062E+02 0.  0.
         13    1    3    3    0    0 -0.25933782457E+02 -0.56864512166E+01 -0.12135162637E+02  0.29191762061E+02  0.00000000000E+00 0. -1.
        -13    1    3    3    0    0 -0.74862881801E+02 -0.20640208801E+03  0.25224923329E+02  0.22100355147E+03  0.00000000000E+00 0.  1.
         22    1    1    2    0    0  0.10079666426E+03  0.21208853922E+03  0.11816692212E+04  0.12047753584E+04  0.00000000000E+00 0.  1.
<mgrwt>
<rscale>  0 0.83035573E+03</rscale>
<asrwt>0</asrwt>
<pdfrwt beam="1">  1        2 0.20382535E+00 0.83035573E+03</pdfrwt>
<pdfrwt beam="2">  1       -2 0.20016285E-01 0.83035573E+03</pdfrwt>
<totfact> 0.34273484E+02</totfact>
</mgrwt>
</event>
<event>
 6    1  0.5196787E-004  0.6905860E+03  0.7818608E-02  0.9733468E-01
         -2   -1    0    0    0  501 -0.00000000000E+00  0.00000000000E+00  0.51065495359E+03  0.51065495359E+03  0.00000000000E+00 0. -1.
          2   -1    0    0  501    0  0.00000000000E+00 -0.00000000000E+00 -0.23347906979E+03  0.23347906979E+03  0.00000000000E+00 0.  1.
         23    2    1    2    0    0  0.19711387142E+03  0.18950462944E+03 -0.75583647405E+02  0.29780995978E+03  0.90620094388E+02 0.  0.
         11    1    3    3    0    0  0.24197410361E+02  0.14600491794E+01 -0.29570805423E+02  0.38237140912E+02  0.00000000000E+00 0.  1.
        -11    1    3    3    0    0  0.17291646106E+03  0.18804458026E+03 -0.46012841982E+02  0.25957281887E+03  0.00000000000E+00 0. -1.
         22    1    1    2    0    0 -0.19711387142E+03 -0.18950462944E+03  0.35275953121E+03  0.44632406360E+03  0.00000000000E+00 0. -1.
<mgrwt>
<rscale>  0 0.69058596E+03</rscale>
<asrwt>0</asrwt>
<pdfrwt beam="1">  1        2 0.35919857E-01 0.69058596E+03</pdfrwt>
<pdfrwt beam="2">  1       -2 0.78562300E-01 0.69058596E+03</pdfrwt>
<totfact> 0.21129379E+02</totfact>
</mgrwt>
</event>
<event>
 6    1  0.5196787E-004  0.5727072E+03  0.7818608E-02  0.9963706E-01
         -2   -1    0    0    0  501 -0.00000000000E+00  0.00000000000E+00  0.72090734950E+02  0.72090734950E+02  0.00000000000E+00 0. -1.
          2   -1    0    0  501    0  0.00000000000E+00 -0.00000000000E+00 -0.11374330982E+04  0.11374330982E+04  0.00000000000E+00 0.  1.
         23    2    1    2    0    0  0.18769684852E+03  0.18235162137E+02 -0.11161656298E+03  0.23733273559E+03  0.91136941842E+02 0.  0.
         13    1    3    3    0    0  0.13183933170E+01  0.22887392460E+02 -0.10128092776E+02  0.25062904018E+02  0.00000000000E+00 0. -1.
        -13    1    3    3    0    0  0.18637845520E+03 -0.46522303232E+01 -0.10148847021E+03  0.21226983157E+03  0.00000000000E+00 0.  1.
         22    1    1    2    0    0 -0.18769684852E+03 -0.18235162137E+02 -0.95372580028E+03  0.97219109757E+03  0.00000000000E+00 0.  1.
<mgrwt>
<rscale>  0 0.57270721E+03</rscale>
<asrwt>0</asrwt>
<pdfrwt beam="1">  1        2 0.17498970E+00 0.57270721E+03</pdfrwt>
<pdfrwt beam="2">  1       -2 0.11090883E-01 0.57270721E+03</pdfrwt>
<totfact> 0.12101187E+03</totfact>
</mgrwt>
</event>
<event>
 6    1  0.5196787E-004  0.8243038E+03  0.7818608E-02  0.9525490E-01
          2   -1    0    0  501    0  0.00000000000E+00  0.00000000000E+00  0.18170881295E+04  0.18170881295E+04  0.00000000000E+00 0.  1.
         -2   -1    0    0    0  501 -0.00000000000E+00 -0.00000000000E+00 -0.93484283357E+02  0.93484283357E+02  0.00000000000E+00 0. -1.
         23    2    1    2    0    0 -0.22505436040E+02 -0.18291285988E+03  0.17134015348E+04  0.17259980481E+04  0.96751402707E+02 0.  0.
         13    1    3    3    0    0  0.31111899788E+02 -0.34503602430E+02  0.54728650238E+03  0.54925491766E+03  0.00000000000E+00 0. -1.
        -13    1    3    3    0    0 -0.53617335828E+02 -0.14840925745E+03  0.11661150324E+04  0.11767431305E+04  0.00000000000E+00 0.  1.
         22    1    1    2    0    0  0.22505436040E+02  0.18291285988E+03  0.10202311412E+02  0.18457436474E+03  0.00000000000E+00 0. -1.
<mgrwt>
<rscale>  0 0.82430378E+03</rscale>
<asrwt>0</asrwt>
<pdfrwt beam="1">  1        2 0.27955199E+00 0.82430378E+03</pdfrwt>
<pdfrwt beam="2">  1       -2 0.14382199E-01 0.82430378E+03</pdfrwt>
<totfact> 0.32198193E+02</totfact>
</mgrwt>
</event>
<event>
 6    1  0.5196787E-004  0.2023318E+04  0.7818608E-02  0.8595795E-01
         -1   -1    0    0    0  501 -0.00000000000E+00  0.00000000000E+00  0.32296074290E+03  0.32296074290E+03  0.00000000000E+00 0. -1.
          1   -1    0    0  501    0  0.00000000000E+00 -0.00000000000E+00 -0.31689745749E+04  0.31689745749E+04  0.00000000000E+00 0.  1.
         23    2    1    2    0    0 -0.25171802586E+03  0.96885464551E+03 -0.11973224972E+04  0.15631469919E+04  0.88351951107E+02 0.  0.
         11    1    3    3    0    0 -0.99870166907E+02  0.47276702054E+03 -0.63684978529E+03  0.79941250614E+03  0.00000000000E+00 0. -1.
        -11    1    3    3    0    0 -0.15184785895E+03  0.49608762497E+03 -0.56047271186E+03  0.76373448571E+03  0.00000000000E+00 0.  1.
         22    1    1    2    0    0  0.25171802586E+03 -0.96885464551E+03 -0.16486913348E+04  0.19287883259E+04  0.00000000000E+00 0. -1.
<mgrwt>
<rscale>  0 0.20233184E+04</rscale>
<asrwt>0</asrwt>
<pdfrwt beam="1">  1        1 0.48753455E+00 0.20233184E+04</pdfrwt>
<pdfrwt beam="2">  1       -1 0.49686269E-01 0.20233184E+04</pdfrwt>
<totfact> 0.16906895E+00</totfact>
</mgrwt>
</event>
<event>
 6    1  0.5196787E-004  0.8163943E+03  0.7818608E-02  0.9536586E-01
          2   -1    0    0  501    0  0.00000000000E+00  0.00000000000E+00  0.30933794169E+03  0.30933794169E+03  0.00000000000E+00 0.  1.
         -2   -1    0    0    0  501 -0.00000000000E+00 -0.00000000000E+00 -0.53865008588E+03  0.53865008588E+03  0.00000000000E+00 0. -1.
         23    2    1    2    0    0 -0.18762624034E+03 -0.72468735157E+02 -0.47927558906E+03  0.52714998834E+03  0.87901628562E+02 0.  0.
         11    1    3    3    0    0 -0.14970112524E+03 -0.90046702970E+02 -0.34813214836E+03  0.38950587715E+03  0.00000000000E+00 0. -1.
        -11    1    3    3    0    0 -0.37925115106E+02  0.17577967813E+02 -0.13114344069E+03  0.13764411119E+03  0.00000000000E+00 0.  1.
         22    1    1    2    0    0  0.18762624034E+03  0.72468735157E+02  0.24996344487E+03  0.32083803922E+03  0.00000000000E+00 0.  1.
<mgrwt>
<rscale>  0 0.81639429E+03</rscale>
<asrwt>0</asrwt>
<pdfrwt beam="1">  1        2 0.47590453E-01 0.81639429E+03</pdfrwt>
<pdfrwt beam="2">  1       -2 0.82869244E-01 0.81639429E+03</pdfrwt>
<totfact> 0.13638395E+02</totfact>
</mgrwt>
</event>
<event>
 6    1  0.5624196E-004  0.2957193E+04  0.7818608E-02  0.8256062E-01
          2   -1    0    0  501    0  0.00000000000E+00  0.00000000000E+00  0.21265017704E+04  0.21265017704E+04  0.00000000000E+00 0.  1.
         -2   -1    0    0    0  501 -0.00000000000E+00 -0.00000000000E+00 -0.10280955061E+04  0.10280955061E+04  0.00000000000E+00 0. -1.
         23    2    1    2    0    0 -0.69157898906E+03  0.70763799251E+03  0.17198526779E+04  0.19861672736E+04  0.89074006655E+02 0.  0.
         13    1    3    3    0    0 -0.17794953374E+03  0.23741126844E+03  0.48846492579E+03  0.57151389368E+03  0.00000000000E+00 0. -1.
        -13    1    3    3    0    0 -0.51362945532E+03  0.47022672408E+03  0.12313877521E+04  0.14146533799E+04  0.00000000000E+00 0.  1.
         22    1    1    2    0    0  0.69157898906E+03 -0.70763799251E+03 -0.62144641366E+03  0.11684300029E+04  0.00000000000E+00 0. -1.
<mgrwt>
<rscale>  0 0.29571925E+04</rscale>
<asrwt>0</asrwt>
<pdfrwt beam="1">  1        2 0.32715412E+00 0.29571925E+04</pdfrwt>
<pdfrwt beam="2">  1       -2 0.15816854E+00 0.29571925E+04</pdfrwt>
<totfact> 0.12678585E+00</totfact>
</mgrwt>
</event>
<event>
 6    1  0.5196787E-004  0.2585328E+04  0.7818608E-02  0.8373202E-01
          2   -1    0    0  501    0  0.00000000000E+00  0.00000000000E+00  0.10366341915E+04  0.10366341915E+04  0.00000000000E+00 0.  1.
         -2   -1    0    0    0  501 -0.00000000000E+00 -0.00000000000E+00 -0.16119286132E+04  0.16119286132E+04  0.00000000000E+00 0. -1.
         23    2    1    2    0    0  0.17870414514E+03 -0.50422083351E+03 -0.14917188884E+04  0.15874277409E+04  0.92345925136E+02 0.  0.
         13    1    3    3    0    0  0.13500639629E+03 -0.40283758008E+03 -0.10639270180E+04  0.11456201563E+04  0.00000000000E+00 0.  1.
        -13    1    3    3    0    0  0.43697748851E+02 -0.10138325342E+03 -0.42779187047E+03  0.44180758455E+03  0.00000000000E+00 0. -1.
         22    1    1    2    0    0 -0.17870414514E+03  0.50422083351E+03  0.91642446678E+03  0.10611350639E+04  0.00000000000E+00 0.  1.
<mgrwt>
<rscale>  0 0.25853281E+04</rscale>
<asrwt>0</asrwt>
<pdfrwt beam="1">  1        2 0.15948218E+00 0.25853281E+04</pdfrwt>
<pdfrwt beam="2">  1       -2 0.24798902E+00 0.25853281E+04</pdfrwt>
<totfact> 0.13975472E+00</totfact>
</mgrwt>
</event>
<event>
 6    1  0.5196787E-004  0.1648161E+04  0.7818608E-02  0.8791495E-01
         -2   -1    0    0    0  501 -0.00000000000E+00  0.00000000000E+00  0.66187931991E+03  0.66187931991E+03  0.00000000000E+00 0. -1.
          2   -1    0    0  501    0  0.00000000000E+00 -0.00000000000E+00 -0.10260304543E+04  0.10260304543E+04  0.00000000000E+00 0.  1.
         23    2    1    2    0    0  0.72978246591E+03 -0.32728608662E+03  0.95861139234E+01  0.80508580487E+03  0.91502074117E+02 0.  0.
         11    1    3    3    0    0  0.66302635049E+03 -0.32442205107E+03  0.58766350672E+01  0.73816539035E+03  0.00000000000E+00 0.  1.
        -11    1    3    3    0    0  0.66756115422E+02 -0.28640355462E+01  0.37094788562E+01  0.66920414518E+02  0.00000000000E+00 0. -1.
         22    1    1    2    0    0 -0.72978246591E+03  0.32728608662E+03 -0.37373724829E+03  0.88282396932E+03  0.00000000000E+00 0.  1.
<mgrwt>
<rscale>  0 0.16481606E+04</rscale>
<asrwt>0</asrwt>
<pdfrwt beam="1">  1        2 0.15785084E+00 0.16481606E+04</pdfrwt>
<pdfrwt beam="2">  1       -2 0.10182759E+00 0.16481606E+04</pdfrwt>
<totfact> 0.18325421E+01</totfact>
</mgrwt>
</event>
<event>
 6    1  0.5196787E-004  0.1592048E+04  0.7818608E-02  0.8825448E-01
          2   -1    0    0  501    0  0.00000000000E+00  0.00000000000E+00  0.24906585841E+04  0.24906585841E+04  0.00000000000E+00 0.  1.
         -2   -1    0    0    0  501 -0.00000000000E+00 -0.00000000000E+00 -0.25441216629E+03  0.25441216629E+03  0.00000000000E+00 0. -1.
         23    2    1    2    0    0 -0.34713527791E+03  0.20074222032E+03 -0.58803054213E+02  0.41525264178E+03  0.90424648921E+02 0.  0.
         13    1    3    3    0    0 -0.28490068005E+03  0.20081353964E+03 -0.44440241725E+02  0.35138214280E+03  0.00000000000E+00 0.  1.
        -13    1    3    3    0    0 -0.62234597856E+02 -0.71319321014E-01 -0.14362812488E+02  0.63870498975E+02  0.00000000000E+00 0. -1.
         22    1    1    2    0    0  0.34713527791E+03 -0.20074222032E+03  0.22950494721E+04  0.23298181086E+04  0.00000000000E+00 0.  1.
<mgrwt>
<rscale>  0 0.15920475E+04</rscale>
<asrwt>0</asrwt>
<pdfrwt beam="1">  1        2 0.38317823E+00 0.15920475E+04</pdfrwt>
<pdfrwt beam="2">  1       -2 0.39140335E-01 0.15920475E+04</pdfrwt>
<totfact> 0.20916089E+01</totfact>
</mgrwt>
</event>
<event>
 6    1  0.6494801E-004  0.3433094E+04  0.7818608E-02  0.8129831E-01
         -2   -1    0    0    0  501 -0.00000000000E+00  0.00000000000E+00  0.13442055804E+04  0.13442055804E+04  0.00000000000E+00 0. -1.
          2   -1    0    0  501    0  0.00000000000E+00 -0.00000000000E+00 -0.21920263791E+04  0.21920263791E+04  0.00000000000E+00 0.  1.
         23    2    1    2    0    0 -0.97541134263E+03  0.10436262683E+04  0.55378794968E+03  0.15349598243E+04  0.94007945436E+02 0.  0.
         13    1    3    3    0    0 -0.52786873000E+03  0.58157978739E+03  0.35295271625E+03  0.86107843146E+03  0.00000000000E+00 0. -1.
        -13    1    3    3    0    0 -0.44754261263E+03  0.46204648094E+03  0.20083523343E+03  0.67388139287E+03  0.00000000000E+00 0.  1.
         22    1    1    2    0    0  0.97541134263E+03 -0.10436262683E+04 -0.14016087484E+04  0.20012721351E+04  0.00000000000E+00 0.  1.
<mgrwt>
<rscale>  0 0.34330943E+04</rscale>
<asrwt>0</asrwt>
<pdfrwt beam="1">  1        2 0.33723483E+00 0.34330943E+04</pdfrwt>
<pdfrwt beam="2">  1       -2 0.20680086E+00 0.34330943E+04</pdfrwt>
<totfact> 0.51766644E-01</totfact>
</mgrwt>
</event>
<event>
 6    1  0.5196787E-004  0.2576502E+04  0.7818608E-02  0.8376227E-01
         -2   -1    0    0    0  501 -0.00000000000E+00  0.00000000000E+00  0.59111559674E+03  0.59111559674E+03  0.00000000000E+00 0. -1.
          2   -1    0    0  501    0  0.00000000000E+00 -0.00000000000E+00 -0.28075577992E+04  0.28075577992E+04  0.00000000000E+00 0.  1.
         23    2    1    2    0    0 -0.18957149016E+03 -0.78867868681E+03 -0.24269603045E+04  0.25606583053E+04  0.94250813606E+02 0.  0.
         11    1    3    3    0    0 -0.13710116309E+03 -0.56379607621E+03 -0.18625712631E+04  0.19508548010E+04  0.00000000000E+00 0.  1.
        -11    1    3    3    0    0 -0.52470327067E+02 -0.22488261061E+03 -0.56438904136E+03  0.60980350424E+03  0.00000000000E+00 0. -1.
         22    1    1    2    0    0  0.18957149016E+03  0.78867868681E+03  0.21051810202E+03  0.83801509067E+03  0.00000000000E+00 0. -1.
<mgrwt>
<rscale>  0 0.25765024E+04</rscale>
<asrwt>0</asrwt>
<pdfrwt beam="1">  1        2 0.43193196E+00 0.25765024E+04</pdfrwt>
<pdfrwt beam="2">  1       -2 0.90940862E-01 0.25765024E+04</pdfrwt>
<totfact> 0.20918784E+00</totfact>
</mgrwt>
</event>
<event>
 6    1  0.5196787E-004  0.4969812E+04  0.7818608E-02  0.7833181E-01
          2   -1    0    0  501    0  0.00000000000E+00  0.00000000000E+00  0.25208814825E+04  0.25208814825E+04  0.00000000000E+00 0.  1.
         -2   -1    0    0    0  501 -0.00000000000E+00 -0.00000000000E+00 -0.24494436075E+04  0.24494436075E+04  0.00000000000E+00 0. -1.
         23    2    1    2    0    0  0.35585905918E+03  0.36831590709E+03 -0.23952068203E+04  0.24510735482E+04  0.91943184699E+02 0.  0.
         13    1    3    3    0    0  0.21022791901E+03  0.27351007367E+03 -0.14999692952E+04  0.15391268384E+04  0.00000000000E+00 0. -1.
        -13    1    3    3    0    0  0.14563114017E+03  0.94805833417E+02 -0.89523752516E+03  0.91194670979E+03  0.00000000000E+00 0.  1.
         22    1    1    2    0    0 -0.35585905918E+03 -0.36831590709E+03  0.24666446953E+04  0.25192515417E+04  0.00000000000E+00 0.  1.
<mgrwt>
<rscale>  0 0.49698117E+04</rscale>
<asrwt>0</asrwt>
<pdfrwt beam="1">  1        2 0.38782792E+00 0.49698117E+04</pdfrwt>
<pdfrwt beam="2">  1       -2 0.37683747E+00 0.49698117E+04</pdfrwt>
<totfact> 0.25931262E-02</totfact>
</mgrwt>
</event>
<event>
 6    1  0.5196787E-004  0.5478080E+04  0.7818608E-02  0.7758713E-01
         -2   -1    0    0    0  501 -0.00000000000E+00  0.00000000000E+00  0.19578677626E+04  0.19578677626E+04  0.00000000000E+00 0. -1.
          2   -1    0    0  501    0  0.00000000000E+00 -0.00000000000E+00 -0.38318934429E+04  0.38318934429E+04  0.00000000000E+00 0.  1.
         23    2    1    2    0    0  0.10991891701E+04 -0.18520361244E+04  0.85007462156E+03  0.23171574141E+04  0.91307073436E+02 0.  0.
         13    1    3    3    0    0  0.66596922881E+03 -0.11168912649E+04  0.56103451325E+03  0.14162347391E+04  0.00000000000E+00 0. -1.
        -13    1    3    3    0    0  0.43321994129E+03 -0.73514485955E+03  0.28904010830E+03  0.90092267496E+03  0.00000000000E+00 0.  1.
         22    1    1    2    0    0 -0.10991891701E+04  0.18520361244E+04 -0.27241003019E+04  0.34726037915E+04  0.00000000000E+00 0.  1.
<mgrwt>
<rscale>  0 0.54780802E+04</rscale>
<asrwt>0</asrwt>
<pdfrwt beam="1">  1        2 0.58952207E+00 0.54780802E+04</pdfrwt>
<pdfrwt beam="2">  1       -2 0.30121042E+00 0.54780802E+04</pdfrwt>
<totfact> 0.10130675E-02</totfact>
</mgrwt>
</event>
<event>
 6    1  0.5196787E-004  0.1979577E+04  0.7818608E-02  0.8616229E-01
         -2   -1    0    0    0  501 -0.00000000000E+00  0.00000000000E+00  0.51850183493E+03  0.51850183493E+03  0.00000000000E+00 0. -1.
          2   -1    0    0  501    0  0.00000000000E+00 -0.00000000000E+00 -0.18894461529E+04  0.18894461529E+04  0.00000000000E+00 0.  1.
         23    2    1    2    0    0 -0.67515083753E+03 -0.71839726400E+03 -0.61476566018E+03  0.11654788957E+04  0.92092112060E+02 0.  0.
         13    1    3    3    0    0 -0.67065334320E+03 -0.71413399687E+03 -0.61817531965E+03  0.11584058002E+04  0.00000000000E+00 0. -1.
        -13    1    3    3    0    0 -0.44974943307E+01 -0.42632671319E+01  0.34096594709E+01  0.70730954751E+01  0.00000000000E+00 0.  1.
         22    1    1    2    0    0  0.67515083753E+03  0.71839726400E+03 -0.75617865777E+03  0.12424690921E+04  0.00000000000E+00 0.  1.
<mgrwt>
<rscale>  0 0.19795770E+04</rscale>
<asrwt>0</asrwt>
<pdfrwt beam="1">  1        2 0.29068403E+00 0.19795770E+04</pdfrwt>
<pdfrwt beam="2">  1       -2 0.79769513E-01 0.19795770E+04</pdfrwt>
<totfact> 0.99642278E+00</totfact>
</mgrwt>
</event>
<event>
 6    1  0.5196787E-004  0.2146675E+04  0.7818608E-02  0.8540957E-01
          2   -1    0    0  501    0  0.00000000000E+00  0.00000000000E+00  0.15552859158E+04  0.15552859158E+04  0.00000000000E+00 0. -1.
         -2   -1    0    0    0  501 -0.00000000000E+00 -0.00000000000E+00 -0.74073440292E+03  0.74073440292E+03  0.00000000000E+00 0.  1.
         23    2    1    2    0    0  0.11946596992E+03 -0.79533327601E+03  0.11648487449E+04  0.14187887139E+04  0.96237613052E+02 0.  0.
         11    1    3    3    0    0  0.11233066423E+03 -0.42580015897E+03  0.62796740612E+03  0.76698566913E+03  0.00000000000E+00 0. -1.
        -11    1    3    3    0    0  0.71353056810E+01 -0.36953311704E+03  0.53688133879E+03  0.65180304473E+03  0.00000000000E+00 0.  1.
         22    1    1    2    0    0 -0.11946596992E+03  0.79533327601E+03 -0.35029723199E+03  0.87723160490E+03  0.00000000000E+00 0.  1.
<mgrwt>
<rscale>  0 0.21466754E+04</rscale>
<asrwt>0</asrwt>
<pdfrwt beam="1">  1        2 0.23927476E+00 0.21466754E+04</pdfrwt>
<pdfrwt beam="2">  1       -2 0.11395914E+00 0.21466754E+04</pdfrwt>
<totfact> 0.65402215E+00</totfact>
</mgrwt>
</event>
<event>
 6    1  0.5196787E-004  0.2364729E+04  0.7818608E-02  0.8452828E-01
          2   -1    0    0  501    0  0.00000000000E+00  0.00000000000E+00  0.10576769130E+04  0.10576769130E+04  0.00000000000E+00 0.  1.
         -2   -1    0    0    0  501 -0.00000000000E+00 -0.00000000000E+00 -0.13217508781E+04  0.13217508781E+04  0.00000000000E+00 0. -1.
         23    2    1    2    0    0  0.77123881448E+03  0.82387325282E+03  0.21659568611E+03  0.11527983608E+04  0.91945221709E+02 0.  0.
         11    1    3    3    0    0  0.50172313234E+01  0.10798881551E+02 -0.64302573687E+01  0.13532799516E+02  0.00000000000E+00 0.  1.
        -11    1    3    3    0    0  0.76622158316E+03  0.81307437127E+03  0.22302594347E+03  0.11392655613E+04  0.00000000000E+00 0. -1.
         22    1    1    2    0    0 -0.77123881448E+03 -0.82387325282E+03 -0.48066965120E+03  0.12266294303E+04  0.00000000000E+00 0.  1.
<mgrwt>
<rscale>  0 0.23647286E+04</rscale>
<asrwt>0</asrwt>
<pdfrwt beam="1">  1        2 0.16271953E+00 0.23647286E+04</pdfrwt>
<pdfrwt beam="2">  1       -2 0.20334629E+00 0.23647286E+04</pdfrwt>
<totfact> 0.26396095E+00</totfact>
</mgrwt>
</event>
<event>
 6    1  0.5196787E-004  0.2170489E+04  0.7818608E-02  0.8530813E-01
          2   -1    0    0  501    0  0.00000000000E+00  0.00000000000E+00  0.28982633055E+04  0.28982633055E+04  0.00000000000E+00 0.  1.
         -2   -1    0    0    0  501 -0.00000000000E+00 -0.00000000000E+00 -0.40636588841E+03  0.40636588841E+03  0.00000000000E+00 0. -1.
         23    2    1    2    0    0 -0.17412782026E+03  0.44886924388E+03 -0.22934984013E+03  0.54111861299E+03  0.91672832786E+02 0.  0.
         13    1    3    3    0    0 -0.98011678764E+02  0.21323633102E+03 -0.15977376518E+03  0.28390786901E+03  0.00000000000E+00 0. -1.
        -13    1    3    3    0    0 -0.76116141499E+02  0.23563291286E+03 -0.69576074941E+02  0.25721074399E+03  0.00000000000E+00 0.  1.
         22    1    1    2    0    0  0.17412782026E+03 -0.44886924388E+03  0.27212472572E+04  0.27635105809E+04  0.00000000000E+00 0.  1.
<mgrwt>
<rscale>  0 0.21704887E+04</rscale>
<asrwt>0</asrwt>
<pdfrwt beam="1">  1        2 0.44588665E+00 0.21704887E+04</pdfrwt>
<pdfrwt beam="2">  1       -2 0.62517831E-01 0.21704887E+04</pdfrwt>
<totfact> 0.43839957E+00</totfact>
</mgrwt>
</event>
<event>
 6    1  0.5196787E-004  0.1661650E+04  0.7818608E-02  0.8783544E-01
          2   -1    0    0  501    0  0.00000000000E+00  0.00000000000E+00  0.70687058230E+03  0.70687058230E+03  0.00000000000E+00 0.  1.
         -2   -1    0    0    0  501 -0.00000000000E+00 -0.00000000000E+00 -0.97651607548E+03  0.97651607548E+03  0.00000000000E+00 0. -1.
         23    2    1    2    0    0 -0.36594580601E+03  0.12061891438E+03 -0.87898000676E+03  0.96244712849E+03  0.72342016999E+02 0.  0.
         11    1    3    3    0    0 -0.29505087119E+03  0.96289130444E+02 -0.62789395231E+03  0.70041232755E+03  0.00000000000E+00 0. -1.
        -11    1    3    3    0    0 -0.70894934819E+02  0.24329783938E+02 -0.25108605444E+03  0.26203480094E+03  0.00000000000E+00 0.  1.
         22    1    1    2    0    0  0.36594580601E+03 -0.12061891438E+03  0.60933451358E+03  0.72093952928E+03  0.00000000000E+00 0.  1.
<mgrwt>
<rscale>  0 0.16616504E+04</rscale>
<asrwt>0</asrwt>
<pdfrwt beam="1">  1        2 0.10874932E+00 0.16616504E+04</pdfrwt>
<pdfrwt beam="2">  1       -2 0.15023324E+00 0.16616504E+04</pdfrwt>
<totfact> 0.11517918E+01</totfact>
</mgrwt>
</event>
<event>
 6    1  0.5196787E-004  0.3533429E+04  0.7818608E-02  0.8105913E-01
          2   -1    0    0  501    0  0.00000000000E+00  0.00000000000E+00  0.30359139399E+04  0.30359139399E+04  0.00000000000E+00 0.  1.
         -2   -1    0    0    0  501 -0.00000000000E+00 -0.00000000000E+00 -0.10281188099E+04  0.10281188099E+04  0.00000000000E+00 0. -1.
         23    2    1    2    0    0  0.14069035760E+04  0.21653852843E+03  0.22058109800E+04  0.26268560442E+04  0.92217085993E+02 0.  0.
         13    1    3    3    0    0  0.52238732675E+03  0.97043592912E+02  0.90046896348E+03  0.10455382978E+04  0.00000000000E+00 0. -1.
        -13    1    3    3    0    0  0.88451624928E+03  0.11949493551E+03  0.13053420165E+04  0.15813177463E+04  0.00000000000E+00 0.  1.
         22    1    1    2    0    0 -0.14069035760E+04 -0.21653852843E+03 -0.19801584998E+03  0.14371767057E+04  0.00000000000E+00 0. -1.
<mgrwt>
<rscale>  0 0.35334291E+04</rscale>
<asrwt>0</asrwt>
<pdfrwt beam="1">  1        2 0.46706368E+00 0.35334291E+04</pdfrwt>
<pdfrwt beam="2">  1       -2 0.15817213E+00 0.35334291E+04</pdfrwt>
<totfact> 0.35173913E-01</totfact>
</mgrwt>
</event>
<event>
 6    1  0.5196787E-004  0.8299359E+03  0.7818608E-02  0.9517669E-01
         -2   -1    0    0    0  501 -0.00000000000E+00  0.00000000000E+00  0.38854483522E+03  0.38854483522E+03  0.00000000000E+00 0. -1.
          2   -1    0    0  501    0  0.00000000000E+00 -0.00000000000E+00 -0.44318795234E+03  0.44318795234E+03  0.00000000000E+00 0.  1.
         23    2    1    2    0    0  0.26246987113E+03 -0.13842046914E+03 -0.31103137198E+03  0.43957772033E+03  0.91855311908E+02 0.  0.
         13    1    3    3    0    0  0.11549916838E+03 -0.11045246325E+03 -0.14127122407E+03  0.21330110943E+03  0.00000000000E+00 0. -1.
        -13    1    3    3    0    0  0.14697070275E+03 -0.27968005889E+02 -0.16976014791E+03  0.22627661090E+03  0.00000000000E+00 0.  1.
         22    1    1    2    0    0 -0.26246987113E+03  0.13842046914E+03  0.25638825485E+03  0.39215506723E+03  0.00000000000E+00 0. -1.
<mgrwt>
<rscale>  0 0.82993588E+03</rscale>
<asrwt>0</asrwt>
<pdfrwt beam="1">  1        2 0.68182762E-01 0.82993588E+03</pdfrwt>
<pdfrwt beam="2">  1       -2 0.59776129E-01 0.82993588E+03</pdfrwt>
<totfact> 0.18598312E+02</totfact>
</mgrwt>
</event>
<event>
 6    1  0.5196787E-004  0.3220651E+04  0.7818608E-02  0.8183384E-01
          1   -1    0    0  501    0  0.00000000000E+00  0.00000000000E+00  0.25700722869E+04  0.25700722869E+04  0.00000000000E+00 0.  1.
         -1   -1    0    0    0  501 -0.00000000000E+00 -0.00000000000E+00 -0.10089789843E+04  0.10089789843E+04  0.00000000000E+00 0. -1.
         23    2    1    2    0    0 -0.27698535837E+02  0.13464401563E+04  0.17597180092E+04  0.22177577402E+04  0.90408070862E+02 0.  0.
         11    1    3    3    0    0 -0.48864669039E+02  0.54776961142E+03  0.67873514452E+03  0.87356779902E+03  0.00000000000E+00 0. -1.
        -11    1    3    3    0    0  0.21166133202E+02  0.79867054488E+03  0.10809828646E+04  0.13441899412E+04  0.00000000000E+00 0.  1.
         22    1    1    2    0    0  0.27698535837E+02 -0.13464401563E+04 -0.19862470655E+03  0.13612935310E+04  0.00000000000E+00 0. -1.
<mgrwt>
<rscale>  0 0.32206514E+04</rscale>
<asrwt>0</asrwt>
<pdfrwt beam="1">  1        1 0.39539573E+00 0.32206514E+04</pdfrwt>
<pdfrwt beam="2">  1       -1 0.15522754E+00 0.32206514E+04</pdfrwt>
<totfact> 0.32128896E-01</totfact>
</mgrwt>
</event>
<event>
 6    1  0.5196787E-004  0.2741307E+04  0.7818608E-02  0.8321725E-01
          2   -1    0    0  501    0  0.00000000000E+00  0.00000000000E+00  0.20627383472E+04  0.20627383472E+04  0.00000000000E+00 0.  1.
         -2   -1    0    0    0  501 -0.00000000000E+00 -0.00000000000E+00 -0.91077526465E+03  0.91077526465E+03  0.00000000000E+00 0. -1.
         23    2    1    2    0    0  0.17256559974E+03 -0.68781463823E+03  0.18469879951E+04  0.19805747961E+04  0.91891272416E+02 0.  0.
         11    1    3    3    0    0  0.16891762976E+03 -0.51105171583E+03  0.13959641602E+04  0.14961360094E+04  0.00000000000E+00 0. -1.
        -11    1    3    3    0    0  0.36479699787E+01 -0.17676292240E+03  0.45102383490E+03  0.48443878671E+03  0.00000000000E+00 0.  1.
         22    1    1    2    0    0 -0.17256559974E+03  0.68781463823E+03 -0.69502491258E+03  0.99293881578E+03  0.00000000000E+00 0. -1.
<mgrwt>
<rscale>  0 0.27413070E+04</rscale>
<asrwt>0</asrwt>
<pdfrwt beam="1">  1        2 0.31734436E+00 0.27413070E+04</pdfrwt>
<pdfrwt beam="2">  1       -2 0.14011927E+00 0.27413070E+04</pdfrwt>
<totfact> 0.19315613E+00</totfact>
</mgrwt>
</event>
<event>
 6    1  0.5196787E-004  0.1221073E+04  0.7818608E-02  0.9094609E-01
          2   -1    0    0  501    0  0.00000000000E+00  0.00000000000E+00  0.70712035937E+03  0.70712035937E+03  0.00000000000E+00 0.  1.
         -2   -1    0    0    0  501 -0.00000000000E+00 -0.00000000000E+00 -0.52714473347E+03  0.52714473347E+03  0.00000000000E+00 0. -1.
         23    2    1    2    0    0 -0.31427741694E+03  0.38724840553E+03 -0.25942200210E+03  0.56958329086E+03  0.91617289154E+02 0.  0.
         11    1    3    3    0    0 -0.13478220233E+03  0.23077689457E+03 -0.11387136073E+03  0.29050112552E+03  0.00000000000E+00 0. -1.
        -11    1    3    3    0    0 -0.17949521461E+03  0.15647151096E+03 -0.14555064138E+03  0.27908216535E+03  0.00000000000E+00 0.  1.
         22    1    1    2    0    0  0.31427741694E+03 -0.38724840553E+03  0.43939762800E+03  0.66468180198E+03  0.00000000000E+00 0.  1.
<mgrwt>
<rscale>  0 0.12210729E+04</rscale>
<asrwt>0</asrwt>
<pdfrwt beam="1">  1        2 0.10878775E+00 0.12210729E+04</pdfrwt>
<pdfrwt beam="2">  1       -2 0.81099190E-01 0.12210729E+04</pdfrwt>
<totfact> 0.53453280E+01</totfact>
</mgrwt>
</event>
<event>
 6    1  0.5196787E-004  0.1496466E+04  0.7818608E-02  0.8886806E-01
         -2   -1    0    0    0  501 -0.00000000000E+00  0.00000000000E+00  0.45249763310E+03  0.45249763310E+03  0.00000000000E+00 0. -1.
          2   -1    0    0  501    0  0.00000000000E+00 -0.00000000000E+00 -0.12372502481E+04  0.12372502481E+04  0.00000000000E+00 0.  1.
         23    2    1    2    0    0 -0.38710097892E+03 -0.61511477679E+03 -0.20745562081E+03  0.76158562383E+03  0.93602731334E+02 0.  0.
         11    1    3    3    0    0 -0.15851351412E+03 -0.22228811019E+03 -0.12240727990E+03  0.29920240685E+03  0.00000000000E+00 0. -1.
        -11    1    3    3    0    0 -0.22858746480E+03 -0.39282666660E+03 -0.85048340904E+02  0.46238321698E+03  0.00000000000E+00 0.  1.
         22    1    1    2    0    0  0.38710097892E+03  0.61511477679E+03 -0.57729699422E+03  0.92816225739E+03  0.00000000000E+00 0. -1.
<mgrwt>
<rscale>  0 0.14964662E+04</rscale>
<asrwt>0</asrwt>
<pdfrwt beam="1">  1        2 0.19034619E+00 0.14964662E+04</pdfrwt>
<pdfrwt beam="2">  1       -2 0.69615021E-01 0.14964662E+04</pdfrwt>
<totfact> 0.32727579E+01</totfact>
</mgrwt>
</event>
<event>
 6    1  0.5196787E-004  0.1193536E+04  0.7818608E-02  0.9118533E-01
          2   -1    0    0  501    0  0.00000000000E+00  0.00000000000E+00  0.23011064864E+04  0.23011064864E+04  0.00000000000E+00 0.  1.
         -2   -1    0    0    0  501 -0.00000000000E+00 -0.00000000000E+00 -0.15476553336E+03  0.15476553336E+03  0.00000000000E+00 0. -1.
         23    2    1    2    0    0  0.53760530969E+03 -0.16454219098E+03  0.68969778769E+03  0.89449349013E+03  0.91334352330E+02 0.  0.
         11    1    3    3    0    0  0.42249401360E+03 -0.15596780936E+03  0.58798620451E+03  0.74064493908E+03  0.00000000000E+00 0. -1.
        -11    1    3    3    0    0  0.11511129609E+03 -0.85743816216E+01  0.10171158318E+03  0.15384855105E+03  0.00000000000E+00 0.  1.
         22    1    1    2    0    0 -0.53760530969E+03  0.16454219098E+03  0.14566431653E+04  0.15613785296E+04  0.00000000000E+00 0.  1.
<mgrwt>
<rscale>  0 0.11935359E+04</rscale>
<asrwt>0</asrwt>
<pdfrwt beam="1">  1        2 0.35401636E+00 0.11935359E+04</pdfrwt>
<pdfrwt beam="2">  1       -2 0.23810084E-01 0.11935359E+04</pdfrwt>
<totfact> 0.70313239E+01</totfact>
</mgrwt>
</event>
<event>
 6    1  0.5196787E-004  0.1233381E+04  0.7818608E-02  0.9084130E-01
         -2   -1    0    0    0  501 -0.00000000000E+00  0.00000000000E+00  0.29264567859E+03  0.29264567859E+03  0.00000000000E+00 0. -1.
          2   -1    0    0  501    0  0.00000000000E+00 -0.00000000000E+00 -0.12995479227E+04  0.12995479227E+04  0.00000000000E+00 0.  1.
         23    2    1    2    0    0 -0.59978841937E+03  0.58852227975E+02 -0.35845308567E+03  0.70692751484E+03  0.89711559259E+02 0.  0.
         11    1    3    3    0    0 -0.41526112150E+03  0.18550832793E+02 -0.20450327246E+03  0.46325751033E+03  0.00000000000E+00 0.  1.
        -11    1    3    3    0    0 -0.18452729787E+03  0.40301395182E+02 -0.15394981321E+03  0.24367000452E+03  0.00000000000E+00 0. -1.
         22    1    1    2    0    0  0.59978841937E+03 -0.58852227975E+02 -0.64844915849E+03  0.88526608649E+03  0.00000000000E+00 0.  1.
<mgrwt>
<rscale>  0 0.12333809E+04</rscale>
<asrwt>0</asrwt>
<pdfrwt beam="1">  1        2 0.19993045E+00 0.12333809E+04</pdfrwt>
<pdfrwt beam="2">  1       -2 0.45022412E-01 0.12333809E+04</pdfrwt>
<totfact> 0.76162744E+01</totfact>
</mgrwt>
</event>
<event>
 6    1  0.5196787E-004  0.1842752E+04  0.7818608E-02  0.8683889E-01
          1   -1    0    0  501    0  0.00000000000E+00  0.00000000000E+00  0.13901606937E+04  0.13901606937E+04  0.00000000000E+00 0.  1.
         -1   -1    0    0    0  501 -0.00000000000E+00 -0.00000000000E+00 -0.61067283735E+03  0.61067283735E+03  0.00000000000E+00 0. -1.
         23    2    1    2    0    0 -0.17204231024E+02 -0.39385194432E+03  0.12921692090E+04  0.13541052195E+04  0.92110482948E+02 0.  0.
         11    1    3    3    0    0 -0.48324318267E+02 -0.20589042245E+03  0.75924790756E+03  0.78815194660E+03  0.00000000000E+00 0.  1.
        -11    1    3    3    0    0  0.31120087243E+02 -0.18796152187E+03  0.53292130145E+03  0.56595327287E+03  0.00000000000E+00 0. -1.
         22    1    1    2    0    0  0.17204231024E+02  0.39385194432E+03 -0.51268135267E+03  0.64672831157E+03  0.00000000000E+00 0. -1.
<mgrwt>
<rscale>  0 0.18427516E+04</rscale>
<asrwt>0</asrwt>
<pdfrwt beam="1">  1        1 0.21387088E+00 0.18427516E+04</pdfrwt>
<pdfrwt beam="2">  1       -1 0.93949668E-01 0.18427516E+04</pdfrwt>
<totfact> 0.80572715E+00</totfact>
</mgrwt>
</event>
<event>
 6    1  0.5196787E-004  0.3400257E+04  0.7818608E-02  0.8137843E-01
          2   -1    0    0  501    0  0.00000000000E+00  0.00000000000E+00  0.29866412971E+04  0.29866412971E+04  0.00000000000E+00 0.  1.
         -2   -1    0    0    0  501 -0.00000000000E+00 -0.00000000000E+00 -0.96778815843E+03  0.96778815843E+03  0.00000000000E+00 0. -1.
         23    2    1    2    0    0  0.31580403187E+03  0.15549721813E+04  0.30438418003E+03  0.16183912536E+04  0.94179878261E+02 0.  0.
         11    1    3    3    0    0  0.16239485973E+03  0.99341844452E+03  0.16848554460E+03  0.10206075030E+04  0.00000000000E+00 0.  1.
        -11    1    3    3    0    0  0.15340917214E+03  0.56155373675E+03  0.13589863543E+03  0.59778375059E+03  0.00000000000E+00 0. -1.
         22    1    1    2    0    0 -0.31580403187E+03 -0.15549721813E+04  0.17144689587E+04  0.23360382020E+04  0.00000000000E+00 0. -1.
<mgrwt>
<rscale>  0 0.34002565E+04</rscale>
<asrwt>0</asrwt>
<pdfrwt beam="1">  1        2 0.45948327E+00 0.34002565E+04</pdfrwt>
<pdfrwt beam="2">  1       -2 0.14889049E+00 0.34002565E+04</pdfrwt>
<totfact> 0.44901997E-01</totfact>
</mgrwt>
</event>
<event>
 6    1  0.5196787E-004  0.2390652E+04  0.7818608E-02  0.8443012E-01
         -2   -1    0    0    0  501 -0.00000000000E+00  0.00000000000E+00  0.86108067808E+03  0.86108067808E+03  0.00000000000E+00 0. -1.
          2   -1    0    0  501    0  0.00000000000E+00 -0.00000000000E+00 -0.16593149960E+04  0.16593149960E+04  0.00000000000E+00 0.  1.
         23    2    1    2    0    0  0.74672747728E+03  0.33939536772E+03  0.51448124679E+03  0.97248957397E+03  0.90850851516E+02 0.  0.
         11    1    3    3    0    0  0.30533234463E+03  0.93533341385E+02  0.18029375326E+03  0.36671809894E+03  0.00000000000E+00 0. -1.
        -11    1    3    3    0    0  0.44139513265E+03  0.24586202633E+03  0.33418749353E+03  0.60577147502E+03  0.00000000000E+00 0.  1.
         22    1    1    2    0    0 -0.74672747728E+03 -0.33939536772E+03 -0.13127155647E+04  0.15479061001E+04  0.00000000000E+00 0.  1.
<mgrwt>
<rscale>  0 0.23906519E+04</rscale>
<asrwt>0</asrwt>
<pdfrwt beam="1">  1        2 0.25527923E+00 0.23906519E+04</pdfrwt>
<pdfrwt beam="2">  1       -2 0.13247395E+00 0.23906519E+04</pdfrwt>
<totfact> 0.38500557E+00</totfact>
</mgrwt>
</event>
<event>
 6    1  0.5196787E-004  0.1068977E+04  0.7818608E-02  0.9235968E-01
         -2   -1    0    0    0  501 -0.00000000000E+00  0.00000000000E+00  0.32212035102E+03  0.32212035102E+03  0.00000000000E+00 0. -1.
          2   -1    0    0  501    0  0.00000000000E+00 -0.00000000000E+00 -0.88686642930E+03  0.88686642930E+03  0.00000000000E+00 0.  1.
         23    2    1    2    0    0 -0.23560972198E+03  0.29572490472E+02  0.25211807966E+03  0.35830850636E+03  0.91842181764E+02 0.  0.
         13    1    3    3    0    0 -0.69414032161E+01 -0.94291148519E+01  0.47715284953E+02  0.49130842692E+02  0.00000000000E+00 0.  1.
        -13    1    3    3    0    0 -0.22866831877E+03  0.39001605324E+02  0.20440279470E+03  0.30917766366E+03  0.00000000000E+00 0. -1.
         22    1    1    2    0    0  0.23560972198E+03 -0.29572490472E+02 -0.81686415794E+03  0.85067827397E+03  0.00000000000E+00 0.  1.
<mgrwt>
<rscale>  0 0.10689766E+04</rscale>
<asrwt>0</asrwt>
<pdfrwt beam="1">  1        2 0.13644099E+00 0.10689766E+04</pdfrwt>
<pdfrwt beam="2">  1       -2 0.49556978E-01 0.10689766E+04</pdfrwt>
<totfact> 0.11471181E+02</totfact>
</mgrwt>
</event>
<event>
 6    1  0.5196787E-004  0.2471760E+04  0.7818608E-02  0.8413116E-01
          2   -1    0    0  501    0  0.00000000000E+00  0.00000000000E+00  0.17598922636E+04  0.17598922636E+04  0.00000000000E+00 0.  1.
         -2   -1    0    0    0  501 -0.00000000000E+00 -0.00000000000E+00 -0.86789395524E+03  0.86789395524E+03  0.00000000000E+00 0. -1.
         23    2    1    2    0    0  0.77497114210E+03  0.92991490486E+02  0.14630516638E+04  0.16606618094E+04  0.89720600116E+02 0.  0.
         13    1    3    3    0    0  0.37885171481E+03  0.96189405359E+01  0.76519002049E+03  0.85389514186E+03  0.00000000000E+00 0. -1.
        -13    1    3    3    0    0  0.39611942729E+03  0.83372549950E+02  0.69786164329E+03  0.80676666759E+03  0.00000000000E+00 0.  1.
         22    1    1    2    0    0 -0.77497114210E+03 -0.92991490486E+02 -0.57105335546E+03  0.96712440936E+03  0.00000000000E+00 0. -1.
<mgrwt>
<rscale>  0 0.24717604E+04</rscale>
<asrwt>0</asrwt>
<pdfrwt beam="1">  1        2 0.27075266E+00 0.24717604E+04</pdfrwt>
<pdfrwt beam="2">  1       -2 0.13352215E+00 0.24717604E+04</pdfrwt>
<totfact> 0.32950901E+00</totfact>
</mgrwt>
</event>
<event>
 6    1  0.5196787E-004  0.2072455E+04  0.7818608E-02  0.8573475E-01
          2   -1    0    0  501    0  0.00000000000E+00  0.00000000000E+00  0.89888365514E+03  0.89888365514E+03  0.00000000000E+00 0.  1.
         -2   -1    0    0    0  501 -0.00000000000E+00 -0.00000000000E+00 -0.11945561325E+04  0.11945561325E+04  0.00000000000E+00 0. -1.
         23    2    1    2    0    0 -0.69105535292E+03  0.69239952148E+03 -0.48737198549E+03  0.10965830780E+04  0.89377830557E+02 0.  0.
         13    1    3    3    0    0 -0.55360077726E+03  0.58827522138E+03 -0.37373754967E+03  0.89006815059E+03  0.00000000000E+00 0.  1.
        -13    1    3    3    0    0 -0.13745457566E+03  0.10412430010E+03 -0.11363443582E+03  0.20651492741E+03  0.00000000000E+00 0. -1.
         22    1    1    2    0    0  0.69105535292E+03 -0.69239952148E+03  0.19169950812E+03  0.99685670964E+03  0.00000000000E+00 0.  1.
<mgrwt>
<rscale>  0 0.20724546E+04</rscale>
<asrwt>0</asrwt>
<pdfrwt beam="1">  1        2 0.13828979E+00 0.20724546E+04</pdfrwt>
<pdfrwt beam="2">  1       -2 0.18377787E+00 0.20724546E+04</pdfrwt>
<totfact> 0.46320098E+00</totfact>
</mgrwt>
</event>
<event>
 6    1  0.5196787E-004  0.2220873E+04  0.7818608E-02  0.8509790E-01
         -2   -1    0    0    0  501 -0.00000000000E+00  0.00000000000E+00  0.77486736523E+03  0.77486736523E+03  0.00000000000E+00 0. -1.
          2   -1    0    0  501    0  0.00000000000E+00 -0.00000000000E+00 -0.15913295656E+04  0.15913295656E+04  0.00000000000E+00 0.  1.
         23    2    1    2    0    0 -0.69520494372E+03  0.64068236997E+03 -0.10257964625E+04  0.13978970566E+04  0.89855358243E+02 0.  0.
         11    1    3    3    0    0 -0.26667605981E+03  0.29777490414E+03 -0.39936691978E+03  0.56504862714E+03  0.00000000000E+00 0. -1.
        -11    1    3    3    0    0 -0.42852888391E+03  0.34290746583E+03 -0.62642954276E+03  0.83284842950E+03  0.00000000000E+00 0.  1.
         22    1    1    2    0    0  0.69520494372E+03 -0.64068236997E+03  0.20933426221E+03  0.96829987416E+03  0.00000000000E+00 0. -1.
<mgrwt>
<rscale>  0 0.22208731E+04</rscale>
<asrwt>0</asrwt>
<pdfrwt beam="1">  1        2 0.24481993E+00 0.22208731E+04</pdfrwt>
<pdfrwt beam="2">  1       -2 0.11921036E+00 0.22208731E+04</pdfrwt>
<totfact> 0.55553818E+00</totfact>
</mgrwt>
</event>
<event>
 6    1  0.5196787E-004  0.3382358E+04  0.7818608E-02  0.8142250E-01
         -2   -1    0    0    0  501 -0.00000000000E+00  0.00000000000E+00  0.99135395129E+03  0.99135395129E+03  0.00000000000E+00 0. -1.
          2   -1    0    0  501    0  0.00000000000E+00 -0.00000000000E+00 -0.28850302948E+04  0.28850302948E+04  0.00000000000E+00 0.  1.
         23    2    1    2    0    0 -0.61136188558E+03  0.79076367655E+03  0.61404338715E+03  0.11768048724E+04  0.93540788504E+02 0.  0.
         13    1    3    3    0    0 -0.25396605485E+03  0.40458689990E+03  0.28750097020E+03  0.55753576069E+03  0.00000000000E+00 0.  1.
        -13    1    3    3    0    0 -0.35739583073E+03  0.38617677664E+03  0.32654241696E+03  0.61926911170E+03  0.00000000000E+00 0. -1.
         22    1    1    2    0    0  0.61136188558E+03 -0.79076367655E+03 -0.25077197307E+04  0.26995793737E+04  0.00000000000E+00 0.  1.
<mgrwt>
<rscale>  0 0.33823579E+04</rscale>
<asrwt>0</asrwt>
<pdfrwt beam="1">  1        2 0.44385080E+00 0.33823579E+04</pdfrwt>
<pdfrwt beam="2">  1       -2 0.15251600E+00 0.33823579E+04</pdfrwt>
<totfact> 0.48773911E-01</totfact>
</mgrwt>
</event>
<event>
 6    1  0.5196787E-004  0.2177383E+04  0.7818608E-02  0.8527901E-01
          1   -1    0    0  501    0  0.00000000000E+00  0.00000000000E+00  0.12053918975E+04  0.12053918975E+04  0.00000000000E+00 0. -1.
         -1   -1    0    0    0  501 -0.00000000000E+00 -0.00000000000E+00 -0.98328972607E+03  0.98328972607E+03  0.00000000000E+00 0.  1.
         23    2    1    2    0    0  0.10616275439E+04 -0.31698808898E+02 -0.12009771135E+03  0.10728148680E+04  0.91926188457E+02 0.  0.
         13    1    3    3    0    0  0.59213764268E+03 -0.63190138341E+02 -0.63310979526E+02  0.59885579365E+03  0.00000000000E+00 0. -1.
        -13    1    3    3    0    0  0.46948990125E+03  0.31491329443E+02 -0.56786731824E+02  0.47395907431E+03  0.00000000000E+00 0.  1.
         22    1    1    2    0    0 -0.10616275439E+04  0.31698808898E+02  0.34219988277E+03  0.11158667556E+04  0.00000000000E+00 0. -1.
<mgrwt>
<rscale>  0 0.21773833E+04</rscale>
<asrwt>0</asrwt>
<pdfrwt beam="1">  1        1 0.18544491E+00 0.21773833E+04</pdfrwt>
<pdfrwt beam="2">  1       -1 0.15127534E+00 0.21773833E+04</pdfrwt>
<totfact> 0.32988667E+00</totfact>
</mgrwt>
</event>
<event>
 6    1  0.5196787E-004  0.3078048E+04  0.7818608E-02  0.8221788E-01
         -2   -1    0    0    0  501 -0.00000000000E+00  0.00000000000E+00  0.49649065395E+04  0.49649065395E+04  0.00000000000E+00 0. -1.
          2   -1    0    0  501    0  0.00000000000E+00 -0.00000000000E+00 -0.47706729051E+03  0.47706729051E+03  0.00000000000E+00 0.  1.
         23    2    1    2    0    0 -0.89878021162E+03 -0.57301963111E+03  0.42051566568E+04  0.43392196351E+04  0.96577260494E+02 0.  0.
         13    1    3    3    0    0 -0.66395778787E+03 -0.44455404635E+03  0.32965967206E+04  0.33920522081E+04  0.00000000000E+00 0. -1.
        -13    1    3    3    0    0 -0.23482242375E+03 -0.12846558477E+03  0.90855993619E+03  0.94716742703E+03  0.00000000000E+00 0.  1.
         22    1    1    2    0    0  0.89878021162E+03  0.57301963111E+03  0.28268259221E+03  0.11027541949E+04  0.00000000000E+00 0.  1.
<mgrwt>
<rscale>  0 0.30780478E+04</rscale>
<asrwt>0</asrwt>
<pdfrwt beam="1">  1        2 0.73394971E-01 0.30780478E+04</pdfrwt>
<pdfrwt beam="2">  1       -2 0.76383174E+00 0.30780478E+04</pdfrwt>
<totfact> 0.68232810E-03</totfact>
</mgrwt>
</event>
<event>
 6    1  0.5196787E-004  0.1777138E+04  0.7818608E-02  0.8718553E-01
         -2   -1    0    0    0  501 -0.00000000000E+00  0.00000000000E+00  0.20737971979E+03  0.20737971979E+03  0.00000000000E+00 0. -1.
          2   -1    0    0  501    0  0.00000000000E+00 -0.00000000000E+00 -0.38072907365E+04  0.38072907365E+04  0.00000000000E+00 0.  1.
         23    2    1    2    0    0 -0.11123857750E+02  0.66369559338E+03 -0.31311562942E+04  0.32020533443E+04  0.91598581265E+02 0.  0.
         11    1    3    3    0    0  0.15149333535E+02  0.31628851444E+03 -0.16875169825E+04  0.17169686930E+04  0.00000000000E+00 0.  1.
        -11    1    3    3    0    0 -0.26273191284E+02  0.34740707894E+03 -0.14436393117E+04  0.14850846513E+04  0.00000000000E+00 0. -1.
         22    1    1    2    0    0  0.11123857750E+02 -0.66369559338E+03 -0.46875472258E+03  0.81261711207E+03  0.00000000000E+00 0. -1.
<mgrwt>
<rscale>  0 0.17771380E+04</rscale>
<asrwt>0</asrwt>
<pdfrwt beam="1">  1        2 0.58573703E+00 0.17771380E+04</pdfrwt>
<pdfrwt beam="2">  1       -2 0.31904572E-01 0.17771380E+04</pdfrwt>
<totfact> 0.42418044E+00</totfact>
</mgrwt>
</event>
<event>
 6    1  0.5299841E-004  0.3293482E+04  0.7818608E-02  0.8164556E-01
          2   -1    0    0  501    0  0.00000000000E+00  0.00000000000E+00  0.34710507507E+04  0.34710507507E+04  0.00000000000E+00 0.  1.
         -2   -1    0    0    0  501 -0.00000000000E+00 -0.00000000000E+00 -0.78124924598E+03  0.78124924598E+03  0.00000000000E+00 0. -1.
         23    2    1    2    0    0 -0.57178480054E+03 -0.75703578972E+03  0.30817831688E+04  0.32258056372E+04  0.91615851490E+02 0.  0.
         11    1    3    3    0    0 -0.32427911371E+03 -0.35582689579E+03  0.15177525630E+04  0.15922759076E+04  0.00000000000E+00 0.  1.
        -11    1    3    3    0    0 -0.24750568683E+03 -0.40120889393E+03  0.15640306058E+04  0.16335297296E+04  0.00000000000E+00 0. -1.
         22    1    1    2    0    0  0.57178480054E+03  0.75703578972E+03 -0.39198166411E+03  0.10264943595E+04  0.00000000000E+00 0. -1.
<mgrwt>
<rscale>  0 0.32934819E+04</rscale>
<asrwt>0</asrwt>
<pdfrwt beam="1">  1        2 0.53400780E+00 0.32934819E+04</pdfrwt>
<pdfrwt beam="2">  1       -2 0.12019219E+00 0.32934819E+04</pdfrwt>
<totfact> 0.37591070E-01</totfact>
</mgrwt>
</event>
<event>
 6    1  0.5196787E-004  0.3931575E+04  0.7818608E-02  0.8018494E-01
         -2   -1    0    0    0  501 -0.00000000000E+00  0.00000000000E+00  0.14008029529E+04  0.14008029529E+04  0.00000000000E+00 0. -1.
          2   -1    0    0  501    0  0.00000000000E+00 -0.00000000000E+00 -0.27586467563E+04  0.27586467563E+04  0.00000000000E+00 0.  1.
         23    2    1    2    0    0 -0.86039059714E+03 -0.17588683314E+04 -0.50785621032E+03  0.20248844853E+04  0.91375388598E+02 0.  0.
         11    1    3    3    0    0 -0.27712289404E+03 -0.47757930062E+03 -0.15623096275E+03  0.57383551694E+03  0.00000000000E+00 0. -1.
        -11    1    3    3    0    0 -0.58326770310E+03 -0.12812890307E+04 -0.35162524758E+03  0.14510489683E+04  0.00000000000E+00 0.  1.
         22    1    1    2    0    0  0.86039059714E+03  0.17588683314E+04 -0.84998759309E+03  0.21345652239E+04  0.00000000000E+00 0.  1.
<mgrwt>
<rscale>  0 0.39315750E+04</rscale>
<asrwt>0</asrwt>
<pdfrwt beam="1">  1        2 0.42440719E+00 0.39315750E+04</pdfrwt>
<pdfrwt beam="2">  1       -2 0.21550815E+00 0.39315750E+04</pdfrwt>
<totfact> 0.20503220E-01</totfact>
</mgrwt>
</event>
<event>
 6    1  0.5196787E-004  0.1334011E+04  0.7818608E-02  0.9003021E-01
         -2   -1    0    0    0  501 -0.00000000000E+00  0.00000000000E+00  0.83814031408E+03  0.83814031408E+03  0.00000000000E+00 0. -1.
          2   -1    0    0  501    0  0.00000000000E+00 -0.00000000000E+00 -0.53081336543E+03  0.53081336543E+03  0.00000000000E+00 0.  1.
         23    2    1    2    0    0 -0.63502283448E+03 -0.10236062854E+03 -0.15693653683E+02  0.64918009836E+03  0.86352827156E+02 0.  0.
         13    1    3    3    0    0 -0.23607582304E+03 -0.27211610780E+01  0.16854587817E+02  0.23669236589E+03  0.00000000000E+00 0. -1.
        -13    1    3    3    0    0 -0.39894701144E+03 -0.99639467461E+02 -0.32548241500E+02  0.41248773247E+03  0.00000000000E+00 0.  1.
         22    1    1    2    0    0  0.63502283448E+03  0.10236062854E+03  0.32302060233E+03  0.71977358114E+03  0.00000000000E+00 0. -1.
<mgrwt>
<rscale>  0 0.13340106E+04</rscale>
<asrwt>0</asrwt>
<pdfrwt beam="1">  1        2 0.81663595E-01 0.13340106E+04</pdfrwt>
<pdfrwt beam="2">  1       -2 0.12894466E+00 0.13340106E+04</pdfrwt>
<totfact> 0.24879586E+01</totfact>
</mgrwt>
</event>
<event>
 6    1  0.5196787E-004  0.1087223E+04  0.7818608E-02  0.9217736E-01
         -2   -1    0    0    0  501 -0.00000000000E+00  0.00000000000E+00  0.11080899955E+03  0.11080899955E+03  0.00000000000E+00 0. -1.
          2   -1    0    0  501    0  0.00000000000E+00 -0.00000000000E+00 -0.26668716505E+04  0.26668716505E+04  0.00000000000E+00 0.  1.
         23    2    1    2    0    0 -0.89682033691E+02  0.36323085328E+03 -0.22806554455E+04  0.23131070297E+04  0.95369543079E+02 0.  0.
         13    1    3    3    0    0 -0.11473267848E+02  0.22972632852E+03 -0.12666420404E+04  0.12873569359E+04  0.00000000000E+00 0. -1.
        -13    1    3    3    0    0 -0.78208765843E+02  0.13350452476E+03 -0.10140134050E+04  0.10257500937E+04  0.00000000000E+00 0.  1.
         22    1    1    2    0    0  0.89682033691E+02 -0.36323085328E+03 -0.27540720548E+03  0.46457362040E+03  0.00000000000E+00 0. -1.
<mgrwt>
<rscale>  0 0.10872228E+04</rscale>
<asrwt>0</asrwt>
<pdfrwt beam="1">  1        2 0.41028792E+00 0.10872228E+04</pdfrwt>
<pdfrwt beam="2">  1       -2 0.17047539E-01 0.10872228E+04</pdfrwt>
<totfact> 0.78880519E+01</totfact>
</mgrwt>
</event>
<event>
 6    1  0.5196787E-004  0.1249578E+04  0.7818608E-02  0.9070534E-01
          2   -1    0    0  501    0  0.00000000000E+00  0.00000000000E+00  0.11604959635E+04  0.11604959635E+04  0.00000000000E+00 0.  1.
         -2   -1    0    0    0  501 -0.00000000000E+00 -0.00000000000E+00 -0.33637458527E+03  0.33637458527E+03  0.00000000000E+00 0. -1.
         23    2    1    2    0    0 -0.69103744010E+02  0.58654530022E+03  0.18620834451E+03  0.62753531122E+03  0.10156920107E+03 0.  0.
         13    1    3    3    0    0 -0.76874917486E+02  0.32667209018E+03  0.70303571658E+02  0.34288044509E+03  0.00000000000E+00 0.  1.
        -13    1    3    3    0    0  0.77711734761E+01  0.25987321004E+03  0.11590477286E+03  0.28465486612E+03  0.00000000000E+00 0. -1.
         22    1    1    2    0    0  0.69103744010E+02 -0.58654530022E+03  0.63791303367E+03  0.86933523751E+03  0.00000000000E+00 0.  1.
<mgrwt>
<rscale>  0 0.12495781E+04</rscale>
<asrwt>0</asrwt>
<pdfrwt beam="1">  1        2 0.17853784E+00 0.12495781E+04</pdfrwt>
<pdfrwt beam="2">  1       -2 0.51749937E-01 0.12495781E+04</pdfrwt>
<totfact> 0.69380475E+01</totfact>
</mgrwt>
</event>
<event>
 6    1  0.5196787E-004  0.1307892E+04  0.7818608E-02  0.9023330E-01
          1   -1    0    0  501    0  0.00000000000E+00  0.00000000000E+00  0.13332794350E+04  0.13332794350E+04  0.00000000000E+00 0.  1.
         -1   -1    0    0    0  501 -0.00000000000E+00 -0.00000000000E+00 -0.32074705555E+03  0.32074705555E+03  0.00000000000E+00 0. -1.
         23    2    1    2    0    0  0.50360540792E+03 -0.28721917585E+03  0.88407986381E+03  0.10602139691E+04  0.79644163798E+02 0.  0.
         11    1    3    3    0    0  0.20406711968E+03 -0.10731938424E+03  0.42225666712E+03  0.48110449228E+03  0.00000000000E+00 0.  1.
        -11    1    3    3    0    0  0.29953828824E+03 -0.17989979161E+03  0.46182319669E+03  0.57910947682E+03  0.00000000000E+00 0. -1.
         22    1    1    2    0    0 -0.50360540792E+03  0.28721917585E+03  0.12845251565E+03  0.59381252145E+03  0.00000000000E+00 0. -1.
<mgrwt>
<rscale>  0 0.13078921E+04</rscale>
<asrwt>0</asrwt>
<pdfrwt beam="1">  1        1 0.20511991E+00 0.13078921E+04</pdfrwt>
<pdfrwt beam="2">  1       -1 0.49345702E-01 0.13078921E+04</pdfrwt>
<totfact> 0.34606437E+01</totfact>
</mgrwt>
</event>
<event>
 6    1  0.7601249E-004  0.2950996E+04  0.7818608E-02  0.8257864E-01
         -2   -1    0    0    0  501 -0.00000000000E+00  0.00000000000E+00  0.15749236571E+04  0.15749236571E+04  0.00000000000E+00 0. -1.
          2   -1    0    0  501    0  0.00000000000E+00 -0.00000000000E+00 -0.13823493793E+04  0.13823493793E+04  0.00000000000E+00 0.  1.
         23    2    1    2    0    0  0.11807348696E+04  0.76370310579E+03  0.53991233962E+03  0.15088183443E+04  0.87465395333E+02 0.  0.
         11    1    3    3    0    0  0.42299284179E+03  0.27816016781E+03  0.23944496117E+03  0.56002670703E+03  0.00000000000E+00 0. -1.
        -11    1    3    3    0    0  0.75774202785E+03  0.48554293797E+03  0.30046737845E+03  0.94879163724E+03  0.00000000000E+00 0.  1.
         22    1    1    2    0    0 -0.11807348696E+04 -0.76370310579E+03 -0.34733806182E+03  0.14484546922E+04  0.00000000000E+00 0.  1.
<mgrwt>
<rscale>  0 0.29509963E+04</rscale>
<asrwt>0</asrwt>
<pdfrwt beam="1">  1        2 0.21266914E+00 0.29509963E+04</pdfrwt>
<pdfrwt beam="2">  1       -2 0.24229595E+00 0.29509963E+04</pdfrwt>
<totfact> 0.91268208E-01</totfact>
</mgrwt>
</event>
<event>
 6    1  0.5196787E-004  0.1794429E+04  0.7818608E-02  0.8709268E-01
          2   -1    0    0  501    0  0.00000000000E+00  0.00000000000E+00  0.15994633491E+04  0.15994633491E+04  0.00000000000E+00 0.  1.
         -2   -1    0    0    0  501 -0.00000000000E+00 -0.00000000000E+00 -0.50328973779E+03  0.50328973779E+03  0.00000000000E+00 0. -1.
         23    2    1    2    0    0 -0.94293221135E+02  0.52378378984E+03 -0.29606142182E+03  0.61226355068E+03  0.63036655659E+02 0.  0.
         13    1    3    3    0    0 -0.36530947729E+02  0.12417239914E+03 -0.46156242525E+02  0.13741795216E+03  0.00000000000E+00 0.  1.
        -13    1    3    3    0    0 -0.57762273406E+02  0.39961139070E+03 -0.24990517929E+03  0.47484559853E+03  0.00000000000E+00 0. -1.
         22    1    1    2    0    0  0.94293221135E+02 -0.52378378984E+03  0.13922350331E+04  0.14904895362E+04  0.00000000000E+00 0.  1.
<mgrwt>
<rscale>  0 0.17944286E+04</rscale>
<asrwt>0</asrwt>
<pdfrwt beam="1">  1        2 0.24607128E+00 0.17944286E+04</pdfrwt>
<pdfrwt beam="2">  1       -2 0.77429191E-01 0.17944286E+04</pdfrwt>
<totfact> 0.15676199E+01</totfact>
</mgrwt>
</event>
<event>
 6    1  0.5196787E-004  0.4134467E+04  0.7818608E-02  0.7977956E-01
          2   -1    0    0  501    0  0.00000000000E+00  0.00000000000E+00  0.32688723578E+04  0.32688723578E+04  0.00000000000E+00 0.  1.
         -2   -1    0    0    0  501 -0.00000000000E+00 -0.00000000000E+00 -0.13073177780E+04  0.13073177780E+04  0.00000000000E+00 0. -1.
         23    2    1    2    0    0 -0.15841903681E+04 -0.13089528337E+04  0.74294030957E+03  0.21870402070E+04  0.90376548264E+02 0.  0.
         13    1    3    3    0    0 -0.57386797495E+03 -0.45176373981E+03  0.30634706457E+03  0.79199965483E+03  0.00000000000E+00 0. -1.
        -13    1    3    3    0    0 -0.10103223931E+04 -0.85718909385E+03  0.43659324500E+03  0.13950405522E+04  0.00000000000E+00 0.  1.
         22    1    1    2    0    0  0.15841903681E+04  0.13089528337E+04  0.12186142702E+04  0.23891499289E+04  0.00000000000E+00 0.  1.
<mgrwt>
<rscale>  0 0.41344673E+04</rscale>
<asrwt>0</asrwt>
<pdfrwt beam="1">  1        2 0.50290344E+00 0.41344673E+04</pdfrwt>
<pdfrwt beam="2">  1       -2 0.20112581E+00 0.41344673E+04</pdfrwt>
<totfact> 0.11906865E-01</totfact>
</mgrwt>
</event>
<event>
 6    1  0.5196787E-004  0.2871358E+04  0.7818608E-02  0.8281451E-01
         -2   -1    0    0    0  501 -0.00000000000E+00  0.00000000000E+00  0.61061782740E+03  0.61061782740E+03  0.00000000000E+00 0. -1.
          2   -1    0    0  501    0  0.00000000000E+00 -0.00000000000E+00 -0.33755561137E+04  0.33755561137E+04  0.00000000000E+00 0.  1.
         23    2    1    2    0    0  0.11622740224E+04 -0.11049928588E+02 -0.25503125142E+04  0.28041979573E+04  0.91811000851E+02 0.  0.
         11    1    3    3    0    0  0.68355239039E+03 -0.37861778184E+02 -0.15773795798E+04  0.17195359035E+04  0.00000000000E+00 0. -1.
        -11    1    3    3    0    0  0.47872163201E+03  0.26811849596E+02 -0.97293293443E+03  0.10846620539E+04  0.00000000000E+00 0.  1.
         22    1    1    2    0    0 -0.11622740224E+04  0.11049928588E+02 -0.21462577208E+03  0.11819759837E+04  0.00000000000E+00 0. -1.
<mgrwt>
<rscale>  0 0.28713584E+04</rscale>
<asrwt>0</asrwt>
<pdfrwt beam="1">  1        2 0.51931633E+00 0.28713584E+04</pdfrwt>
<pdfrwt beam="2">  1       -2 0.93941203E-01 0.28713584E+04</pdfrwt>
<totfact> 0.81956078E-01</totfact>
</mgrwt>
</event>
<event>
 6    1  0.5196787E-004  0.2355317E+04  0.7818608E-02  0.8456424E-01
          2   -1    0    0  501    0  0.00000000000E+00  0.00000000000E+00  0.34817224501E+04  0.34817224501E+04  0.00000000000E+00 0.  1.
         -2   -1    0    0    0  501 -0.00000000000E+00 -0.00000000000E+00 -0.39833155229E+03  0.39833155229E+03  0.00000000000E+00 0. -1.
         23    2    1    2    0    0  0.33681362658E+03  0.35014680549E+03  0.33080456321E+04  0.33447821517E+04  0.91408609635E+02 0.  0.
         13    1    3    3    0    0  0.15155854055E+03  0.97656385116E+02  0.13080591354E+04  0.13204262427E+04  0.00000000000E+00 0.  1.
        -13    1    3    3    0    0  0.18525508603E+03  0.25249042037E+03  0.19999864967E+04  0.20243559090E+04  0.00000000000E+00 0. -1.
         22    1    1    2    0    0 -0.33681362658E+03 -0.35014680549E+03 -0.22465473432E+03  0.53527185065E+03  0.00000000000E+00 0. -1.
<mgrwt>
<rscale>  0 0.23553173E+04</rscale>
<asrwt>0</asrwt>
<pdfrwt beam="1">  1        2 0.53564959E+00 0.23553173E+04</pdfrwt>
<pdfrwt beam="2">  1       -2 0.61281780E-01 0.23553173E+04</pdfrwt>
<totfact> 0.18753492E+00</totfact>
</mgrwt>
</event>
<event>
 6    1  0.5196787E-004  0.6162069E+03  0.7818608E-02  0.9872341E-01
         -2   -1    0    0    0  501 -0.00000000000E+00  0.00000000000E+00  0.64539487287E+02  0.64539487287E+02  0.00000000000E+00 0. -1.
          2   -1    0    0  501    0  0.00000000000E+00 -0.00000000000E+00 -0.14708474945E+04  0.14708474945E+04  0.00000000000E+00 0.  1.
         23    2    1    2    0    0 -0.55531376902E+02 -0.29563846482E+03 -0.75597935779E+03  0.81885841435E+03  0.92403883237E+02 0.  0.
         11    1    3    3    0    0  0.12384003414E+01 -0.13601239753E+03 -0.24109968182E+03  0.27682117421E+03  0.00000000000E+00 0. -1.
        -11    1    3    3    0    0 -0.56769777243E+02 -0.15962606730E+03 -0.51487967597E+03  0.54203724014E+03  0.00000000000E+00 0.  1.
         22    1    1    2    0    0  0.55531376902E+02  0.29563846482E+03 -0.65032864946E+03  0.71652856748E+03  0.00000000000E+00 0. -1.
<mgrwt>
<rscale>  0 0.61620692E+03</rscale>
<asrwt>0</asrwt>
<pdfrwt beam="1">  1        2 0.22628423E+00 0.61620692E+03</pdfrwt>
<pdfrwt beam="2">  1       -2 0.99291517E-02 0.61620692E+03</pdfrwt>
<totfact> 0.93164501E+02</totfact>
</mgrwt>
</event>
<event>
 6    1  0.5196787E-004  0.3375019E+04  0.7818608E-02  0.8144065E-01
         -2   -1    0    0    0  501 -0.00000000000E+00  0.00000000000E+00  0.78405686156E+03  0.78405686156E+03  0.00000000000E+00 0. -1.
          2   -1    0    0  501    0  0.00000000000E+00 -0.00000000000E+00 -0.36319919248E+04  0.36319919248E+04  0.00000000000E+00 0.  1.
         23    2    1    2    0    0 -0.72593149565E+03 -0.12823534849E+04 -0.24987067442E+04  0.29016619747E+04  0.68555272137E+02 0.  0.
         13    1    3    3    0    0 -0.53227522238E+03 -0.98533615035E+03 -0.19348315645E+04  0.22355709393E+04  0.00000000000E+00 0. -1.
        -13    1    3    3    0    0 -0.19365627326E+03 -0.29701733455E+03 -0.56387517965E+03  0.66609103539E+03  0.00000000000E+00 0.  1.
         22    1    1    2    0    0  0.72593149565E+03  0.12823534849E+04 -0.34922831910E+03  0.15143868117E+04  0.00000000000E+00 0. -1.
<mgrwt>
<rscale>  0 0.33750189E+04</rscale>
<asrwt>0</asrwt>
<pdfrwt beam="1">  1        2 0.55876800E+00 0.33750189E+04</pdfrwt>
<pdfrwt beam="2">  1       -2 0.12062413E+00 0.33750189E+04</pdfrwt>
<totfact> 0.28436674E-01</totfact>
</mgrwt>
</event>
<event>
 6    1  0.5196787E-004  0.1390937E+04  0.7818608E-02  0.8960405E-01
          2   -1    0    0  501    0  0.00000000000E+00  0.00000000000E+00  0.28605555279E+03  0.28605555279E+03  0.00000000000E+00 0.  1.
         -2   -1    0    0    0  501 -0.00000000000E+00 -0.00000000000E+00 -0.16908475249E+04  0.16908475249E+04  0.00000000000E+00 0. -1.
         23    2    1    2    0    0  0.38243122059E+03  0.57012895219E+03 -0.57728188022E+03  0.90169444083E+03  0.92183701308E+02 0.  0.
         11    1    3    3    0    0  0.12357484228E+03  0.13365264563E+03 -0.11552864846E+03  0.21559369180E+03  0.00000000000E+00 0. -1.
        -11    1    3    3    0    0  0.25885637831E+03  0.43647630656E+03 -0.46175323177E+03  0.68610074904E+03  0.00000000000E+00 0.  1.
         22    1    1    2    0    0 -0.38243122059E+03 -0.57012895219E+03 -0.82751009192E+03  0.10752086369E+04  0.00000000000E+00 0.  1.
<mgrwt>
<rscale>  0 0.13909368E+04</rscale>
<asrwt>0</asrwt>
<pdfrwt beam="1">  1        2 0.44008547E-01 0.13909368E+04</pdfrwt>
<pdfrwt beam="2">  1       -2 0.26013038E+00 0.13909368E+04</pdfrwt>
<totfact> 0.62914382E+00</totfact>
</mgrwt>
</event>
<event>
 6    1  0.5196787E-004  0.2880873E+04  0.7818608E-02  0.8278591E-01
          2   -1    0    0  501    0  0.00000000000E+00  0.00000000000E+00  0.24630408016E+04  0.24630408016E+04  0.00000000000E+00 0.  1.
         -2   -1    0    0    0  501 -0.00000000000E+00 -0.00000000000E+00 -0.84239678176E+03  0.84239678176E+03  0.00000000000E+00 0. -1.
         23    2    1    2    0    0 -0.32516684401E+03 -0.10197384359E+04 -0.29249218569E+03  0.11132491574E+04  0.90399411357E+02 0.  0.
         13    1    3    3    0    0 -0.10138385992E+03 -0.28895077667E+03 -0.42715210792E+02  0.30918574939E+03  0.00000000000E+00 0. -1.
        -13    1    3    3    0    0 -0.22378298410E+03 -0.73078765925E+03 -0.24977697489E+03  0.80406340799E+03  0.00000000000E+00 0.  1.
         22    1    1    2    0    0  0.32516684401E+03  0.10197384359E+04  0.19131362055E+04  0.21921884260E+04  0.00000000000E+00 0.  1.
<mgrwt>
<rscale>  0 0.28808732E+04</rscale>
<asrwt>0</asrwt>
<pdfrwt beam="1">  1        2 0.37892935E+00 0.28808732E+04</pdfrwt>
<pdfrwt beam="2">  1       -2 0.12959951E+00 0.28808732E+04</pdfrwt>
<totfact> 0.13833554E+00</totfact>
</mgrwt>
</event>
<event>
 6    1  0.5196787E-004  0.1868531E+04  0.7818608E-02  0.8670681E-01
         -2   -1    0    0    0  501 -0.00000000000E+00  0.00000000000E+00  0.43709889100E+03  0.43709889100E+03  0.00000000000E+00 0. -1.
          2   -1    0    0  501    0  0.00000000000E+00 -0.00000000000E+00 -0.19969202870E+04  0.19969202870E+04  0.00000000000E+00 0.  1.
         23    2    1    2    0    0  0.35165691136E+03  0.15954668951E+03  0.32306007088E+03  0.51194728866E+03  0.92760376933E+02 0.  0.
         11    1    3    3    0    0  0.15749779082E+03  0.11333019026E+03  0.19331594548E+03  0.27389841349E+03  0.00000000000E+00 0. -1.
        -11    1    3    3    0    0  0.19415912055E+03  0.46216499256E+02  0.12974412540E+03  0.23804887517E+03  0.00000000000E+00 0.  1.
         22    1    1    2    0    0 -0.35165691136E+03 -0.15954668951E+03 -0.18828814669E+04  0.19220718893E+04  0.00000000000E+00 0.  1.
<mgrwt>
<rscale>  0 0.18685306E+04</rscale>
<asrwt>0</asrwt>
<pdfrwt beam="1">  1        2 0.30721851E+00 0.18685306E+04</pdfrwt>
<pdfrwt beam="2">  1       -2 0.67245983E-01 0.18685306E+04</pdfrwt>
<totfact> 0.12775842E+01</totfact>
</mgrwt>
</event>
<event>
 6    1  0.5196787E-004  0.1654650E+04  0.7818608E-02  0.8787660E-01
         -2   -1    0    0    0  501 -0.00000000000E+00  0.00000000000E+00  0.48972394061E+03  0.48972394061E+03  0.00000000000E+00 0. -1.
          2   -1    0    0  501    0  0.00000000000E+00 -0.00000000000E+00 -0.13976578909E+04  0.13976578909E+04  0.00000000000E+00 0.  1.
         23    2    1    2    0    0  0.95061331015E+02 -0.81304936304E+03 -0.33963080696E+03  0.89086068966E+03  0.90541481929E+02 0.  0.
         11    1    3    3    0    0  0.90742856349E+02 -0.39849844631E+03 -0.18076330848E+03  0.44688997682E+03  0.00000000000E+00 0. -1.
        -11    1    3    3    0    0  0.43184746658E+01 -0.41455091674E+03 -0.15886749848E+03  0.44397071284E+03  0.00000000000E+00 0.  1.
         22    1    1    2    0    0 -0.95061331015E+02  0.81304936304E+03 -0.56830314328E+03  0.99652114180E+03  0.00000000000E+00 0.  1.
<mgrwt>
<rscale>  0 0.16546498E+04</rscale>
<asrwt>0</asrwt>
<pdfrwt beam="1">  1        2 0.21502429E+00 0.16546498E+04</pdfrwt>
<pdfrwt beam="2">  1       -2 0.75342143E-01 0.16546498E+04</pdfrwt>
<totfact> 0.21910843E+01</totfact>
</mgrwt>
</event>
<event>
 6    1  0.5196787E-004  0.1157029E+04  0.7818608E-02  0.9151323E-01
          4   -1    0    0  501    0  0.00000000000E+00  0.00000000000E+00  0.67632568865E+03  0.67632568865E+03  0.00000000000E+00 0.  1.
         -4   -1    0    0    0  501 -0.00000000000E+00 -0.00000000000E+00 -0.49484908137E+03  0.49484908137E+03  0.00000000000E+00 0. -1.
         23    2    1    2    0    0  0.28564906681E+03 -0.40958207736E+03  0.37962089922E+03  0.63394667332E+03  0.91779573017E+02 0.  0.
         11    1    3    3    0    0  0.16271148666E+03 -0.23433231881E+03  0.27272287062E+03  0.39467002380E+03  0.00000000000E+00 0.  1.
        -11    1    3    3    0    0  0.12293758015E+03 -0.17524975855E+03  0.10689802860E+03  0.23927664952E+03  0.00000000000E+00 0. -1.
         22    1    1    2    0    0 -0.28564906681E+03  0.40958207736E+03 -0.19814429194E+03  0.53722809671E+03  0.00000000000E+00 0. -1.
<mgrwt>
<rscale>  0 0.11570292E+04</rscale>
<asrwt>0</asrwt>
<pdfrwt beam="1">  1        4 0.10405011E+00 0.11570292E+04</pdfrwt>
<pdfrwt beam="2">  1       -4 0.76130627E-01 0.11570292E+04</pdfrwt>
<totfact> 0.22971906E+00</totfact>
</mgrwt>
</event>
<event>
 6    1  0.8341134E-004  0.4067993E+04  0.7818608E-02  0.7990969E-01
          2   -1    0    0  501    0  0.00000000000E+00  0.00000000000E+00  0.25386757676E+04  0.25386757676E+04  0.00000000000E+00 0.  1.
         -2   -1    0    0    0  501 -0.00000000000E+00 -0.00000000000E+00 -0.16296457494E+04  0.16296457494E+04  0.00000000000E+00 0. -1.
         23    2    1    2    0    0  0.59177136167E+02 -0.12214427177E+04 -0.12096531049E+04  0.17220503910E+04  0.82296225641E+02 0.  0.
         11    1    3    3    0    0  0.62351820067E+01 -0.86867534231E+03 -0.87244627116E+03  0.12311775761E+04  0.00000000000E+00 0. -1.
        -11    1    3    3    0    0  0.52941954160E+02 -0.35276737539E+03 -0.33720683373E+03  0.49087281485E+03  0.00000000000E+00 0.  1.
         22    1    1    2    0    0 -0.59177136167E+02  0.12214427177E+04  0.21186831231E+04  0.24462711260E+04  0.00000000000E+00 0.  1.
<mgrwt>
<rscale>  0 0.40679932E+04</rscale>
<asrwt>0</asrwt>
<pdfrwt beam="1">  1        2 0.39056550E+00 0.40679932E+04</pdfrwt>
<pdfrwt beam="2">  1       -2 0.25071473E+00 0.40679932E+04</pdfrwt>
<totfact> 0.16497061E-01</totfact>
</mgrwt>
</event>
<event>
 6    1  0.5196787E-004  0.2898533E+04  0.7818608E-02  0.8273314E-01
         -2   -1    0    0    0  501 -0.00000000000E+00  0.00000000000E+00  0.18241875271E+04  0.18241875271E+04  0.00000000000E+00 0. -1.
          2   -1    0    0  501    0  0.00000000000E+00 -0.00000000000E+00 -0.11514021104E+04  0.11514021104E+04  0.00000000000E+00 0.  1.
         23    2    1    2    0    0  0.92815280687E+02  0.26786038985E+03  0.17942141906E+04  0.18188846796E+04  0.93664567955E+02 0.  0.
         11    1    3    3    0    0  0.82897532152E+02  0.10750962475E+03  0.71444851850E+03  0.72723242903E+03  0.00000000000E+00 0.  1.
        -11    1    3    3    0    0  0.99177485352E+01  0.16035076510E+03  0.10797656721E+04  0.10916522506E+04  0.00000000000E+00 0. -1.
         22    1    1    2    0    0 -0.92815280687E+02 -0.26786038985E+03 -0.11214287738E+04  0.11567049579E+04  0.00000000000E+00 0.  1.
<mgrwt>
<rscale>  0 0.28985330E+04</rscale>
<asrwt>0</asrwt>
<pdfrwt beam="1">  1        2 0.17713879E+00 0.28985330E+04</pdfrwt>
<pdfrwt beam="2">  1       -2 0.28064424E+00 0.28985330E+04</pdfrwt>
<totfact> 0.72989028E-01</totfact>
</mgrwt>
</event>
<event>
 6    1  0.5196787E-004  0.3041875E+04  0.7818608E-02  0.8231873E-01
          2   -1    0    0  501    0  0.00000000000E+00  0.00000000000E+00  0.22309628552E+04  0.22309628552E+04  0.00000000000E+00 0.  1.
         -2   -1    0    0    0  501 -0.00000000000E+00 -0.00000000000E+00 -0.10368848237E+04  0.10368848237E+04  0.00000000000E+00 0. -1.
         23    2    1    2    0    0  0.71336974776E+03  0.12313524384E+04  0.11700571876E+04  0.18445760162E+04  0.91113296622E+02 0.  0.
         11    1    3    3    0    0  0.37860257669E+03  0.69758844813E+03  0.60097562922E+03  0.99556077713E+03  0.00000000000E+00 0. -1.
        -11    1    3    3    0    0  0.33476717107E+03  0.53376399026E+03  0.56908155840E+03  0.84901523911E+03  0.00000000000E+00 0.  1.
         22    1    1    2    0    0 -0.71336974776E+03 -0.12313524384E+04  0.24020843892E+02  0.14232716626E+04  0.00000000000E+00 0. -1.
<mgrwt>
<rscale>  0 0.30418754E+04</rscale>
<asrwt>0</asrwt>
<pdfrwt beam="1">  1        2 0.34322505E+00 0.30418754E+04</pdfrwt>
<pdfrwt beam="2">  1       -2 0.15952074E+00 0.30418754E+04</pdfrwt>
<totfact> 0.10746297E+00</totfact>
</mgrwt>
</event>
<event>
 6    1  0.5196787E-004  0.2263688E+04  0.7818608E-02  0.8492378E-01
          2   -1    0    0  501    0  0.00000000000E+00  0.00000000000E+00  0.67571397585E+03  0.67571397585E+03  0.00000000000E+00 0.  1.
         -2   -1    0    0    0  501 -0.00000000000E+00 -0.00000000000E+00 -0.18958768773E+04  0.18958768773E+04  0.00000000000E+00 0. -1.
         23    2    1    2    0    0  0.19325645932E+01  0.26222959951E+03 -0.18596752174E+04  0.18804005031E+04  0.93520266260E+02 0.  0.
         11    1    3    3    0    0  0.33918434420E+02  0.20247599512E+03 -0.12209701352E+04  0.12381094701E+04  0.00000000000E+00 0. -1.
        -11    1    3    3    0    0 -0.31985869827E+02  0.59753604385E+02 -0.63870508221E+03  0.64229103305E+03  0.00000000000E+00 0.  1.
         22    1    1    2    0    0 -0.19325645932E+01 -0.26222959951E+03  0.63951231598E+03  0.69119035001E+03  0.00000000000E+00 0.  1.
<mgrwt>
<rscale>  0 0.22636877E+04</rscale>
<asrwt>0</asrwt>
<pdfrwt beam="1">  1        2 0.10395600E+00 0.22636877E+04</pdfrwt>
<pdfrwt beam="2">  1       -2 0.29167336E+00 0.22636877E+04</pdfrwt>
<totfact> 0.13925852E+00</totfact>
</mgrwt>
</event>
<event>
 6    1  0.5196787E-004  0.2469538E+04  0.7818608E-02  0.8413919E-01
         -2   -1    0    0    0  501 -0.00000000000E+00  0.00000000000E+00  0.90223027345E+03  0.90223027345E+03  0.00000000000E+00 0. -1.
          2   -1    0    0  501    0  0.00000000000E+00 -0.00000000000E+00 -0.16898731444E+04  0.16898731444E+04  0.00000000000E+00 0.  1.
         23    2    1    2    0    0 -0.90076311521E+03 -0.40796979239E+03  0.37886154611E+03  0.10628728609E+04  0.91373443156E+02 0.  0.
         11    1    3    3    0    0 -0.19471691058E+03 -0.69256106739E+02  0.44581800349E+02  0.21142048271E+03  0.00000000000E+00 0.  1.
        -11    1    3    3    0    0 -0.70604620463E+03 -0.33871368565E+03  0.33427974577E+03  0.85145237820E+03  0.00000000000E+00 0. -1.
         22    1    1    2    0    0  0.90076311521E+03  0.40796979239E+03 -0.11665044170E+04  0.15292305569E+04  0.00000000000E+00 0. -1.
<mgrwt>
<rscale>  0 0.24695382E+04</rscale>
<asrwt>0</asrwt>
<pdfrwt beam="1">  1        2 0.25998048E+00 0.24695382E+04</pdfrwt>
<pdfrwt beam="2">  1       -2 0.13880466E+00 0.24695382E+04</pdfrwt>
<totfact> 0.32628255E+00</totfact>
</mgrwt>
</event>
<event>
 6    1  0.5196787E-004  0.3314901E+04  0.7818608E-02  0.8159114E-01
          2   -1    0    0  501    0  0.00000000000E+00  0.00000000000E+00  0.41173556366E+04  0.41173556366E+04  0.00000000000E+00 0.  1.
         -2   -1    0    0    0  501 -0.00000000000E+00 -0.00000000000E+00 -0.66721015843E+03  0.66721015843E+03  0.00000000000E+00 0. -1.
         23    2    1    2    0    0  0.19655582250E+02 -0.11840553075E+04  0.55159230319E+02  0.11889705820E+04  0.90747952698E+02 0.  0.
         11    1    3    3    0    0 -0.91486876976E+01 -0.49170947324E+03 -0.18356415015E+02  0.49213703633E+03  0.00000000000E+00 0. -1.
        -11    1    3    3    0    0  0.28804269948E+02 -0.69234583428E+03  0.73515645334E+02  0.69683354563E+03  0.00000000000E+00 0.  1.
         22    1    1    2    0    0 -0.19655582250E+02  0.11840553075E+04  0.33949862478E+04  0.35955952131E+04  0.00000000000E+00 0.  1.
<mgrwt>
<rscale>  0 0.33149006E+04</rscale>
<asrwt>0</asrwt>
<pdfrwt beam="1">  1        2 0.63343931E+00 0.33149006E+04</pdfrwt>
<pdfrwt beam="2">  1       -2 0.10264772E+00 0.33149006E+04</pdfrwt>
<totfact> 0.17674803E-01</totfact>
</mgrwt>
</event>
<event>
 6    1  0.5196787E-004  0.7423053E+03  0.7818608E-02  0.9647500E-01
         -2   -1    0    0    0  501 -0.00000000000E+00  0.00000000000E+00  0.15546889646E+03  0.15546889646E+03  0.00000000000E+00 0. -1.
          2   -1    0    0  501    0  0.00000000000E+00 -0.00000000000E+00 -0.88605680926E+03  0.88605680926E+03  0.00000000000E+00 0.  1.
         23    2    1    2    0    0  0.35608790129E+03  0.48702596283E+02 -0.46485319372E+03  0.59455201829E+03  0.90736290462E+02 0.  0.
         11    1    3    3    0    0  0.12809372883E+03  0.39283885821E+02 -0.23596328119E+03  0.27134829486E+03  0.00000000000E+00 0.  1.
        -11    1    3    3    0    0  0.22799417246E+03  0.94187104617E+01 -0.22888991253E+03  0.32320372343E+03  0.00000000000E+00 0. -1.
         22    1    1    2    0    0 -0.35608790129E+03 -0.48702596283E+02 -0.26573471909E+03  0.44697368744E+03  0.00000000000E+00 0. -1.
<mgrwt>
<rscale>  0 0.74230526E+03</rscale>
<asrwt>0</asrwt>
<pdfrwt beam="1">  1        2 0.13631644E+00 0.74230526E+03</pdfrwt>
<pdfrwt beam="2">  1       -2 0.23918291E-01 0.74230526E+03</pdfrwt>
<totfact> 0.46792256E+02</totfact>
</mgrwt>
</event>
<event>
 6    1  0.5196787E-004  0.1611436E+04  0.7818608E-02  0.8813553E-01
          2   -1    0    0  501    0  0.00000000000E+00  0.00000000000E+00  0.22249621186E+04  0.22249621186E+04  0.00000000000E+00 0.  1.
         -2   -1    0    0    0  501 -0.00000000000E+00 -0.00000000000E+00 -0.29177175827E+03  0.29177175827E+03  0.00000000000E+00 0. -1.
         23    2    1    2    0    0 -0.79319041976E+03 -0.40885651855E+02  0.78192600218E+03  0.11180801310E+04  0.88725576477E+02 0.  0.
         13    1    3    3    0    0 -0.29835242414E+03 -0.17408246506E+02  0.23531882550E+03  0.38038423426E+03  0.00000000000E+00 0. -1.
        -13    1    3    3    0    0 -0.49483799562E+03 -0.23477405349E+02  0.54660717668E+03  0.73769589674E+03  0.00000000000E+00 0.  1.
         22    1    1    2    0    0  0.79319041976E+03  0.40885651855E+02  0.11512643581E+04  0.13986537459E+04  0.00000000000E+00 0.  1.
<mgrwt>
<rscale>  0 0.16114355E+04</rscale>
<asrwt>0</asrwt>
<pdfrwt beam="1">  1        2 0.34230185E+00 0.16114355E+04</pdfrwt>
<pdfrwt beam="2">  1       -2 0.44887964E-01 0.16114355E+04</pdfrwt>
<totfact> 0.22562134E+01</totfact>
</mgrwt>
</event>
<event>
 6    1  0.5196787E-004  0.2478447E+04  0.7818608E-02  0.8410704E-01
         -2   -1    0    0    0  501 -0.00000000000E+00  0.00000000000E+00  0.11998585444E+04  0.11998585444E+04  0.00000000000E+00 0. -1.
          2   -1    0    0  501    0  0.00000000000E+00 -0.00000000000E+00 -0.12798800127E+04  0.12798800127E+04  0.00000000000E+00 0.  1.
         23    2    1    2    0    0  0.46054276440E+03 -0.17415530119E+02 -0.11895121539E+04  0.12783341623E+04  0.82438629054E+02 0.  0.
         11    1    3    3    0    0  0.21338234673E+03 -0.46617828670E+02 -0.51677488468E+03  0.56103612119E+03  0.00000000000E+00 0. -1.
        -11    1    3    3    0    0  0.24716041767E+03  0.29202298551E+02 -0.67273726924E+03  0.71729804108E+03  0.00000000000E+00 0.  1.
         22    1    1    2    0    0 -0.46054276440E+03  0.17415530119E+02  0.11094906856E+04  0.12014043948E+04  0.00000000000E+00 0. -1.
<mgrwt>
<rscale>  0 0.24784471E+04</rscale>
<asrwt>0</asrwt>
<pdfrwt beam="1">  1        2 0.19690462E+00 0.24784471E+04</pdfrwt>
<pdfrwt beam="2">  1       -2 0.18459362E+00 0.24784471E+04</pdfrwt>
<totfact> 0.25591735E+00</totfact>
</mgrwt>
</event>
<event>
 6    1  0.5196787E-004  0.1374093E+04  0.7818608E-02  0.8972788E-01
          2   -1    0    0  501    0  0.00000000000E+00  0.00000000000E+00  0.12100342054E+04  0.12100342054E+04  0.00000000000E+00 0. -1.
         -2   -1    0    0    0  501 -0.00000000000E+00 -0.00000000000E+00 -0.39009874710E+03  0.39009874710E+03  0.00000000000E+00 0.  1.
         23    2    1    2    0    0 -0.29024412491E+03  0.33721706936E+03  0.10165554830E+04  0.11137005955E+04  0.94799590242E+02 0.  0.
         11    1    3    3    0    0 -0.93595993431E+02  0.12554376543E+03  0.47119839422E+03  0.49653738403E+03  0.00000000000E+00 0. -1.
        -11    1    3    3    0    0 -0.19664813148E+03  0.21167330394E+03  0.54535708881E+03  0.61716321142E+03  0.00000000000E+00 0.  1.
         22    1    1    2    0    0  0.29024412491E+03 -0.33721706936E+03 -0.19662002469E+03  0.48643235709E+03  0.00000000000E+00 0.  1.
<mgrwt>
<rscale>  0 0.13740929E+04</rscale>
<asrwt>0</asrwt>
<pdfrwt beam="1">  1        2 0.18615911E+00 0.13740929E+04</pdfrwt>
<pdfrwt beam="2">  1       -2 0.60015192E-01 0.13740929E+04</pdfrwt>
<totfact> 0.47152552E+01</totfact>
</mgrwt>
</event>
<event>
 6    1  0.5196787E-004  0.2932953E+04  0.7818608E-02  0.8263140E-01
         -2   -1    0    0    0  501 -0.00000000000E+00  0.00000000000E+00  0.23534799618E+04  0.23534799618E+04  0.00000000000E+00 0. -1.
          2   -1    0    0  501    0  0.00000000000E+00 -0.00000000000E+00 -0.91377588437E+03  0.91377588437E+03  0.00000000000E+00 0.  1.
         23    2    1    2    0    0 -0.23216388329E+03  0.97789483708E+03 -0.46689949320E+03  0.11119564339E+04  0.90959293042E+02 0.  0.
         11    1    3    3    0    0 -0.62355632961E+02  0.42859249160E+03 -0.17464724315E+03  0.46699187184E+03  0.00000000000E+00 0. -1.
        -11    1    3    3    0    0 -0.16980825033E+03  0.54930234548E+03 -0.29225225005E+03  0.64496456204E+03  0.00000000000E+00 0.  1.
         22    1    1    2    0    0  0.23216388329E+03 -0.97789483708E+03  0.19066035707E+04  0.21552994123E+04  0.00000000000E+00 0. -1.
<mgrwt>
<rscale>  0 0.29329529E+04</rscale>
<asrwt>0</asrwt>
<pdfrwt beam="1">  1        2 0.14058091E+00 0.29329529E+04</pdfrwt>
<pdfrwt beam="2">  1       -2 0.36207384E+00 0.29329529E+04</pdfrwt>
<totfact> 0.32217293E-01</totfact>
</mgrwt>
</event>
<event>
 6    1  0.5196787E-004  0.3672158E+04  0.7818608E-02  0.8074160E-01
         -2   -1    0    0    0  501 -0.00000000000E+00  0.00000000000E+00  0.24289115737E+04  0.24289115737E+04  0.00000000000E+00 0. -1.
          2   -1    0    0  501    0  0.00000000000E+00 -0.00000000000E+00 -0.13879410659E+04  0.13879410659E+04  0.00000000000E+00 0.  1.
         23    2    1    2    0    0  0.15144227160E+03  0.42271835070E+03 -0.13284274767E+04  0.14052821192E+04  0.92047314644E+02 0.  0.
         13    1    3    3    0    0  0.92303982818E+02  0.15484038692E+03 -0.44099477242E+03  0.47641574278E+03  0.00000000000E+00 0.  1.
        -13    1    3    3    0    0  0.59138288785E+02  0.26787796378E+03 -0.88743270426E+03  0.92886637644E+03  0.00000000000E+00 0. -1.
         22    1    1    2    0    0 -0.15144227160E+03 -0.42271835070E+03  0.23693979845E+04  0.24115705204E+04  0.00000000000E+00 0. -1.
<mgrwt>
<rscale>  0 0.36721580E+04</rscale>
<asrwt>0</asrwt>
<pdfrwt beam="1">  1        2 0.21352939E+00 0.36721580E+04</pdfrwt>
<pdfrwt beam="2">  1       -2 0.37367870E+00 0.36721580E+04</pdfrwt>
<totfact> 0.13091845E-01</totfact>
</mgrwt>
</event>
<event>
 6    1  0.5196787E-004  0.8417329E+03  0.7818608E-02  0.9501500E-01
         -2   -1    0    0    0  501 -0.00000000000E+00  0.00000000000E+00  0.13388589534E+03  0.13388589534E+03  0.00000000000E+00 0. -1.
          2   -1    0    0  501    0  0.00000000000E+00 -0.00000000000E+00 -0.13229815044E+04  0.13229815044E+04  0.00000000000E+00 0.  1.
         23    2    1    2    0    0 -0.17546090640E+03  0.34083868203E+03 -0.32271773512E+03  0.50946666230E+03  0.91934795360E+02 0.  0.
         11    1    3    3    0    0 -0.15607730552E+03  0.20844258008E+03 -0.21506543764E+03  0.33773003561E+03  0.00000000000E+00 0. -1.
        -11    1    3    3    0    0 -0.19383600878E+02  0.13239610195E+03 -0.10765229747E+03  0.17173662668E+03  0.00000000000E+00 0.  1.
         22    1    1    2    0    0  0.17546090640E+03 -0.34083868203E+03 -0.86637787394E+03  0.94740073744E+03  0.00000000000E+00 0.  1.
<mgrwt>
<rscale>  0 0.84173289E+03</rscale>
<asrwt>0</asrwt>
<pdfrwt beam="1">  1        2 0.20353562E+00 0.84173289E+03</pdfrwt>
<pdfrwt beam="2">  1       -2 0.20597830E-01 0.84173289E+03</pdfrwt>
<totfact> 0.32653445E+02</totfact>
</mgrwt>
</event>
<event>
 6    1  0.5196787E-004  0.3385414E+04  0.7818608E-02  0.8141496E-01
         -2   -1    0    0    0  501 -0.00000000000E+00  0.00000000000E+00  0.19943638298E+04  0.19943638298E+04  0.00000000000E+00 0. -1.
          2   -1    0    0  501    0  0.00000000000E+00 -0.00000000000E+00 -0.14366770379E+04  0.14366770379E+04  0.00000000000E+00 0.  1.
         23    2    1    2    0    0 -0.11500130171E+04  0.82528963213E+03  0.12175424813E+04  0.18692974677E+04  0.90721621996E+02 0.  0.
         13    1    3    3    0    0 -0.39821448183E+03  0.33844044273E+03  0.46072917918E+03  0.69669798576E+03  0.00000000000E+00 0. -1.
        -13    1    3    3    0    0 -0.75179853529E+03  0.48684918940E+03  0.75681330209E+03  0.11725994820E+04  0.00000000000E+00 0.  1.
         22    1    1    2    0    0  0.11500130171E+04 -0.82528963213E+03 -0.65985568942E+03  0.15617434000E+04  0.00000000000E+00 0.  1.
<mgrwt>
<rscale>  0 0.33854138E+04</rscale>
<asrwt>0</asrwt>
<pdfrwt beam="1">  1        2 0.22102724E+00 0.33854138E+04</pdfrwt>
<pdfrwt beam="2">  1       -2 0.30682521E+00 0.33854138E+04</pdfrwt>
<totfact> 0.33005538E-01</totfact>
</mgrwt>
</event>
<event>
 6    1  0.5196787E-004  0.9061650E+04  0.7818608E-02  0.7395618E-01
         -2   -1    0    0    0  501 -0.00000000000E+00  0.00000000000E+00  0.47305763398E+04  0.47305763398E+04  0.00000000000E+00 0.  1.
          2   -1    0    0  501    0  0.00000000000E+00 -0.00000000000E+00 -0.43395085120E+04  0.43395085120E+04  0.00000000000E+00 0. -1.
         23    2    1    2    0    0 -0.22636714052E+04  0.91047917084E+03 -0.36252035637E+04  0.43707640029E+04  0.91085341675E+02 0.  0.
         11    1    3    3    0    0 -0.78412678917E+03  0.36178104365E+03 -0.12940333182E+04  0.15557193106E+04  0.00000000000E+00 0.  1.
        -11    1    3    3    0    0 -0.14795446160E+04  0.54869812719E+03 -0.23311702456E+04  0.28150446923E+04  0.00000000000E+00 0. -1.
         22    1    1    2    0    0  0.22636714052E+04 -0.91047917084E+03  0.40162713915E+04  0.46993208490E+04  0.00000000000E+00 0.  1.
<mgrwt>
<rscale>  0 0.90616502E+04</rscale>
<asrwt>0</asrwt>
<pdfrwt beam="1">  1        2 0.66761669E+00 0.90616502E+04</pdfrwt>
<pdfrwt beam="2">  1       -2 0.72778098E+00 0.90616502E+04</pdfrwt>
<totfact> 0.17054771E-05</totfact>
</mgrwt>
</event>
<event>
 6    1  0.5196787E-004  0.1816016E+04  0.7818608E-02  0.8697828E-01
         -2   -1    0    0    0  501 -0.00000000000E+00  0.00000000000E+00  0.43789668087E+03  0.43789668087E+03  0.00000000000E+00 0. -1.
          2   -1    0    0  501    0  0.00000000000E+00 -0.00000000000E+00 -0.18828156973E+04  0.18828156973E+04  0.00000000000E+00 0.  1.
         23    2    1    2    0    0  0.37534775117E+03  0.67515322897E+03 -0.12012220024E+03  0.78715298216E+03  0.91992703180E+02 0.  0.
         11    1    3    3    0    0  0.32229623306E+03  0.56793426264E+03 -0.13433429105E+03  0.66668575077E+03  0.00000000000E+00 0.  1.
        -11    1    3    3    0    0  0.53051518104E+02  0.10721896633E+03  0.14212090806E+02  0.12046723140E+03  0.00000000000E+00 0. -1.
         22    1    1    2    0    0 -0.37534775117E+03 -0.67515322897E+03 -0.13247968162E+04  0.15335593960E+04  0.00000000000E+00 0.  1.
<mgrwt>
<rscale>  0 0.18160162E+04</rscale>
<asrwt>0</asrwt>
<pdfrwt beam="1">  1        2 0.28966395E+00 0.18160162E+04</pdfrwt>
<pdfrwt beam="2">  1       -2 0.67368721E-01 0.18160162E+04</pdfrwt>
<totfact> 0.14787188E+01</totfact>
</mgrwt>
</event>
<event>
 6    1  0.5245599E-004  0.2290241E+04  0.7818608E-02  0.8481779E-01
         -2   -1    0    0    0  501 -0.00000000000E+00  0.00000000000E+00  0.46171225654E+03  0.46171225654E+03  0.00000000000E+00 0. -1.
          2   -1    0    0  501    0  0.00000000000E+00 -0.00000000000E+00 -0.28400819485E+04  0.28400819485E+04  0.00000000000E+00 0.  1.
         23    2    1    2    0    0 -0.36091804443E+03  0.41521625073E+03 -0.26359748221E+04  0.26943184666E+04  0.91227009120E+02 0.  0.
         13    1    3    3    0    0 -0.30151425459E+03  0.29884626738E+03 -0.19014508283E+04  0.19482646611E+04  0.00000000000E+00 0. -1.
        -13    1    3    3    0    0 -0.59403789842E+02  0.11636998335E+03 -0.73452399383E+03  0.74605380556E+03  0.00000000000E+00 0.  1.
         22    1    1    2    0    0  0.36091804443E+03 -0.41521625073E+03  0.25760513015E+03  0.60747573840E+03  0.00000000000E+00 0. -1.
<mgrwt>
<rscale>  0 0.22902407E+04</rscale>
<asrwt>0</asrwt>
<pdfrwt beam="1">  1        2 0.43693569E+00 0.22902407E+04</pdfrwt>
<pdfrwt beam="2">  1       -2 0.71032653E-01 0.22902407E+04</pdfrwt>
<totfact> 0.35728455E+00</totfact>
</mgrwt>
</event>
<event>
 6    1  0.5196787E-004  0.9845165E+03  0.7818608E-02  0.9325692E-01
         -3   -1    0    0    0  501 -0.00000000000E+00  0.00000000000E+00  0.96855772141E+03  0.96855772141E+03  0.00000000000E+00 0. -1.
          3   -1    0    0  501    0  0.00000000000E+00 -0.00000000000E+00 -0.25018457574E+03  0.25018457574E+03  0.00000000000E+00 0.  1.
         23    2    1    2    0    0 -0.11344261328E+03 -0.31749252990E+03  0.79873881403E+03  0.87214545110E+03  0.94780070617E+02 0.  0.
         13    1    3    3    0    0 -0.89279654591E+02 -0.13084900243E+03  0.30349092741E+03  0.34234348421E+03  0.00000000000E+00 0.  1.
        -13    1    3    3    0    0 -0.24162958691E+02 -0.18664352746E+03  0.49524788662E+03  0.52980196689E+03  0.00000000000E+00 0. -1.
         22    1    1    2    0    0  0.11344261328E+03  0.31749252990E+03 -0.80365668358E+02  0.34659684606E+03  0.00000000000E+00 0.  1.
<mgrwt>
<rscale>  0 0.98451654E+03</rscale>
<asrwt>0</asrwt>
<pdfrwt beam="1">  1        3 0.38489935E-01 0.98451654E+03</pdfrwt>
<pdfrwt beam="2">  1       -3 0.14900888E+00 0.98451654E+03</pdfrwt>
<totfact> 0.57605883E+00</totfact>
</mgrwt>
</event>
<event>
 6    1  0.5196787E-004  0.1882402E+04  0.7818608E-02  0.8663666E-01
          2   -1    0    0  501    0  0.00000000000E+00  0.00000000000E+00  0.13274590086E+04  0.13274590086E+04  0.00000000000E+00 0.  1.
         -2   -1    0    0    0  501 -0.00000000000E+00 -0.00000000000E+00 -0.66733466504E+03  0.66733466504E+03  0.00000000000E+00 0. -1.
         23    2    1    2    0    0  0.21505638126E+03  0.90240297532E+03  0.17664803969E+03  0.94869152117E+03  0.90723180123E+02 0.  0.
         13    1    3    3    0    0  0.97688225916E+02  0.52437612999E+03  0.64501649680E+02  0.53728370345E+03  0.00000000000E+00 0. -1.
        -13    1    3    3    0    0  0.11736815535E+03  0.37802684534E+03  0.11214639001E+03  0.41140781771E+03  0.00000000000E+00 0.  1.
         22    1    1    2    0    0 -0.21505638126E+03 -0.90240297532E+03  0.48347630384E+03  0.10461021525E+04  0.00000000000E+00 0. -1.
<mgrwt>
<rscale>  0 0.18824021E+04</rscale>
<asrwt>0</asrwt>
<pdfrwt beam="1">  1        2 0.20422446E+00 0.18824021E+04</pdfrwt>
<pdfrwt beam="2">  1       -2 0.10266687E+00 0.18824021E+04</pdfrwt>
<totfact> 0.11595006E+01</totfact>
</mgrwt>
</event>
<event>
 6    1  0.5196787E-004  0.2298228E+04  0.7818608E-02  0.8478620E-01
         -2   -1    0    0    0  501 -0.00000000000E+00  0.00000000000E+00  0.91278083605E+03  0.91278083605E+03  0.00000000000E+00 0. -1.
          2   -1    0    0  501    0  0.00000000000E+00 -0.00000000000E+00 -0.14466372142E+04  0.14466372142E+04  0.00000000000E+00 0.  1.
         23    2    1    2    0    0 -0.51637881045E+03 -0.65725574284E+03 -0.10742408376E+04  0.13641052595E+04  0.90319402184E+02 0.  0.
         13    1    3    3    0    0 -0.21602625083E+03 -0.32397465822E+03 -0.55349644572E+03  0.67674606437E+03  0.00000000000E+00 0.  1.
        -13    1    3    3    0    0 -0.30035255963E+03 -0.33328108462E+03 -0.52074439193E+03  0.68735919515E+03  0.00000000000E+00 0. -1.
         22    1    1    2    0    0  0.51637881045E+03  0.65725574284E+03  0.54038445947E+03  0.99531279074E+03  0.00000000000E+00 0. -1.
<mgrwt>
<rscale>  0 0.22982278E+04</rscale>
<asrwt>0</asrwt>
<pdfrwt beam="1">  1        2 0.22255957E+00 0.22982278E+04</pdfrwt>
<pdfrwt beam="2">  1       -2 0.14042782E+00 0.22982278E+04</pdfrwt>
<totfact> 0.43980281E+00</totfact>
</mgrwt>
</event>
<event>
 6    1  0.5196787E-004  0.2648154E+04  0.7818608E-02  0.8352026E-01
          2   -1    0    0  501    0  0.00000000000E+00  0.00000000000E+00  0.38695584184E+04  0.38695584184E+04  0.00000000000E+00 0.  1.
         -2   -1    0    0    0  501 -0.00000000000E+00 -0.00000000000E+00 -0.45306991132E+03  0.45306991132E+03  0.00000000000E+00 0. -1.
         23    2    1    2    0    0  0.79075922696E+03  0.46006004513E+03  0.15125674418E+03  0.93165592264E+03  0.90270456858E+02 0.  0.
         11    1    3    3    0    0  0.64531369374E+03  0.38057164948E+03  0.15845821825E+03  0.76575031874E+03  0.00000000000E+00 0.  1.
        -11    1    3    3    0    0  0.14544553321E+03  0.79488395647E+02 -0.72014740758E+01  0.16590560389E+03  0.00000000000E+00 0. -1.
         22    1    1    2    0    0 -0.79075922696E+03 -0.46006004513E+03  0.32652317629E+04  0.33909724071E+04  0.00000000000E+00 0.  1.
<mgrwt>
<rscale>  0 0.26481544E+04</rscale>
<asrwt>0</asrwt>
<pdfrwt beam="1">  1        2 0.59531666E+00 0.26481544E+04</pdfrwt>
<pdfrwt beam="2">  1       -2 0.69703066E-01 0.26481544E+04</pdfrwt>
<totfact> 0.71882964E-01</totfact>
</mgrwt>
</event>
<event>
 6    1  0.5196787E-004  0.3853585E+04  0.7818608E-02  0.8034753E-01
          2   -1    0    0  501    0  0.00000000000E+00  0.00000000000E+00  0.20522260067E+04  0.20522260067E+04  0.00000000000E+00 0.  1.
         -2   -1    0    0    0  501 -0.00000000000E+00 -0.00000000000E+00 -0.18090253504E+04  0.18090253504E+04  0.00000000000E+00 0. -1.
         23    2    1    2    0    0  0.11473237983E+04  0.15365986357E+04  0.29767314146E+03  0.19428002847E+04  0.91522576566E+02 0.  0.
         13    1    3    3    0    0  0.13149260489E+03  0.16348928507E+03  0.60738032441E+02  0.21842197705E+03  0.00000000000E+00 0. -1.
        -13    1    3    3    0    0  0.10158311934E+04  0.13731093506E+04  0.23693510902E+03  0.17243783077E+04  0.00000000000E+00 0.  1.
         22    1    1    2    0    0 -0.11473237983E+04 -0.15365986357E+04 -0.54472485110E+02  0.19184510723E+04  0.00000000000E+00 0.  1.
<mgrwt>
<rscale>  0 0.38535848E+04</rscale>
<asrwt>0</asrwt>
<pdfrwt beam="1">  1        2 0.31572708E+00 0.38535848E+04</pdfrwt>
<pdfrwt beam="2">  1       -2 0.27831159E+00 0.38535848E+04</pdfrwt>
<totfact> 0.21510996E-01</totfact>
</mgrwt>
</event>
<event>
 6    1  0.5196787E-004  0.9869122E+03  0.7818608E-02  0.9323017E-01
          2   -1    0    0  501    0  0.00000000000E+00  0.00000000000E+00  0.21228982574E+04  0.21228982574E+04  0.00000000000E+00 0.  1.
         -2   -1    0    0    0  501 -0.00000000000E+00 -0.00000000000E+00 -0.11470117308E+03  0.11470117308E+03  0.00000000000E+00 0. -1.
         23    2    1    2    0    0  0.92847293400E+01  0.17735854267E+03  0.20462684385E+04  0.20559632918E+04  0.90709844461E+02 0.  0.
         11    1    3    3    0    0  0.38061992953E+01 -0.10551389448E+02  0.94926593481E+02  0.95587013356E+02  0.00000000000E+00 0.  1.
        -11    1    3    3    0    0  0.54785300446E+01  0.18790993212E+03  0.19513418450E+04  0.19603762784E+04  0.00000000000E+00 0. -1.
         22    1    1    2    0    0 -0.92847293400E+01 -0.17735854267E+03 -0.38071354218E+02  0.18163613867E+03  0.00000000000E+00 0. -1.
<mgrwt>
<rscale>  0 0.98691220E+03</rscale>
<asrwt>0</asrwt>
<pdfrwt beam="1">  1        2 0.32659970E+00 0.98691220E+03</pdfrwt>
<pdfrwt beam="2">  1       -2 0.17646336E-01 0.98691220E+03</pdfrwt>
<totfact> 0.15244154E+02</totfact>
</mgrwt>
</event>
<event>
 6    1  0.5196787E-004  0.1356103E+04  0.7818608E-02  0.8986221E-01
          2   -1    0    0  501    0  0.00000000000E+00  0.00000000000E+00  0.98058508563E+03  0.98058508563E+03  0.00000000000E+00 0.  1.
         -2   -1    0    0    0  501 -0.00000000000E+00 -0.00000000000E+00 -0.46885685188E+03  0.46885685188E+03  0.00000000000E+00 0. -1.
         23    2    1    2    0    0  0.54978470073E+03 -0.35125456129E+03  0.44154382456E+03  0.79326449559E+03  0.93083978073E+02 0.  0.
         11    1    3    3    0    0  0.20315081275E+03 -0.80286898653E+02  0.13063454200E+03  0.25452234161E+03  0.00000000000E+00 0. -1.
        -11    1    3    3    0    0  0.34663388798E+03 -0.27096766264E+03  0.31090928256E+03  0.53874215398E+03  0.00000000000E+00 0.  1.
         22    1    1    2    0    0 -0.54978470073E+03  0.35125456129E+03  0.70184409192E+02  0.65617744191E+03  0.00000000000E+00 0. -1.
<mgrwt>
<rscale>  0 0.13561033E+04</rscale>
<asrwt>0</asrwt>
<pdfrwt beam="1">  1        2 0.15085924E+00 0.13561033E+04</pdfrwt>
<pdfrwt beam="2">  1       -2 0.72131824E-01 0.13561033E+04</pdfrwt>
<totfact> 0.44071347E+01</totfact>
</mgrwt>
</event>
<event>
 6    1  0.5196787E-004  0.6438012E+03  0.7818608E-02  0.9818481E-01
         -2   -1    0    0    0  501 -0.00000000000E+00  0.00000000000E+00  0.44342630106E+02  0.44342630106E+02  0.00000000000E+00 0. -1.
          2   -1    0    0  501    0  0.00000000000E+00 -0.00000000000E+00 -0.23368028654E+04  0.23368028654E+04  0.00000000000E+00 0.  1.
         23    2    1    2    0    0 -0.65107092379E+02 -0.30569830696E+03 -0.13241566986E+04  0.13636475213E+04  0.91941348287E+02 0.  0.
         13    1    3    3    0    0  0.14859353134E+02 -0.89956076704E+02 -0.28115768169E+03  0.29557154478E+03  0.00000000000E+00 0. -1.
        -13    1    3    3    0    0 -0.79966445514E+02 -0.21574223026E+03 -0.10429990169E+04  0.10680759765E+04  0.00000000000E+00 0.  1.
         22    1    1    2    0    0  0.65107092379E+02  0.30569830696E+03 -0.96830353669E+03  0.10174979742E+04  0.00000000000E+00 0. -1.
<mgrwt>
<rscale>  0 0.64380117E+03</rscale>
<asrwt>0</asrwt>
<pdfrwt beam="1">  1        2 0.35950823E+00 0.64380117E+03</pdfrwt>
<pdfrwt beam="2">  1       -2 0.68219412E-02 0.64380117E+03</pdfrwt>
<totfact> 0.57067263E+02</totfact>
</mgrwt>
</event>
<event>
 6    1  0.5196787E-004  0.4717430E+04  0.7818608E-02  0.7873639E-01
          2   -1    0    0  501    0  0.00000000000E+00  0.00000000000E+00  0.32392558103E+04  0.32392558103E+04  0.00000000000E+00 0. -1.
         -2   -1    0    0    0  501 -0.00000000000E+00 -0.00000000000E+00 -0.17175353804E+04  0.17175353804E+04  0.00000000000E+00 0.  1.
         23    2    1    2    0    0 -0.18964096556E+04  0.10530493028E+04 -0.20995483003E+03  0.21811864599E+04  0.90614161246E+02 0.  0.
         11    1    3    3    0    0 -0.13137352107E+04  0.69901793405E+03 -0.17664405760E+03  0.14985757902E+04  0.00000000000E+00 0. -1.
        -11    1    3    3    0    0 -0.58267444493E+03  0.35403136874E+03 -0.33310772428E+02  0.68261066970E+03  0.00000000000E+00 0.  1.
         22    1    1    2    0    0  0.18964096556E+04 -0.10530493028E+04  0.17316752599E+04  0.27756047308E+04  0.00000000000E+00 0. -1.
<mgrwt>
<rscale>  0 0.47174300E+04</rscale>
<asrwt>0</asrwt>
<pdfrwt beam="1">  1        2 0.49834705E+00 0.47174300E+04</pdfrwt>
<pdfrwt beam="2">  1       -2 0.26423621E+00 0.47174300E+04</pdfrwt>
<totfact> 0.47774576E-02</totfact>
</mgrwt>
</event>
<event>
 6    1  0.5196787E-004  0.3730536E+04  0.7818608E-02  0.8061228E-01
          2   -1    0    0  501    0  0.00000000000E+00  0.00000000000E+00  0.14061304449E+04  0.14061304449E+04  0.00000000000E+00 0.  1.
         -2   -1    0    0    0  501 -0.00000000000E+00 -0.00000000000E+00 -0.24743263457E+04  0.24743263457E+04  0.00000000000E+00 0. -1.
         23    2    1    2    0    0 -0.10022087430E+04  0.11607393995E+04  0.56809721333E+03  0.16378704548E+04  0.90259983848E+02 0.  0.
         13    1    3    3    0    0 -0.82528565003E+03  0.96472991127E+03  0.43381809802E+03  0.13416401708E+04  0.00000000000E+00 0.  1.
        -13    1    3    3    0    0 -0.17692309299E+03  0.19600948821E+03  0.13427911530E+03  0.29623028391E+03  0.00000000000E+00 0. -1.
         22    1    1    2    0    0  0.10022087430E+04 -0.11607393995E+04 -0.16362931142E+04  0.22425863358E+04  0.00000000000E+00 0. -1.
<mgrwt>
<rscale>  0 0.37305365E+04</rscale>
<asrwt>0</asrwt>
<pdfrwt beam="1">  1        2 0.21632776E+00 0.37305365E+04</pdfrwt>
<pdfrwt beam="2">  1       -2 0.38066559E+00 0.37305365E+04</pdfrwt>
<totfact> 0.11467932E-01</totfact>
</mgrwt>
</event>
<event>
 6    1  0.5196787E-004  0.2735163E+04  0.7818608E-02  0.8323685E-01
         -2   -1    0    0    0  501 -0.00000000000E+00  0.00000000000E+00  0.81619330273E+03  0.81619330273E+03  0.00000000000E+00 0. -1.
          2   -1    0    0  501    0  0.00000000000E+00 -0.00000000000E+00 -0.22914660654E+04  0.22914660654E+04  0.00000000000E+00 0.  1.
         23    2    1    2    0    0  0.76075187050E+03  0.10063843922E+04 -0.13338527218E+04  0.18381899587E+04  0.90698883056E+02 0.  0.
         13    1    3    3    0    0  0.51952455113E+03  0.65489206381E+03 -0.82695779181E+03  0.11758607757E+04  0.00000000000E+00 0.  1.
        -13    1    3    3    0    0  0.24122731936E+03  0.35149232844E+03 -0.50689493003E+03  0.66232918300E+03  0.00000000000E+00 0. -1.
         22    1    1    2    0    0 -0.76075187050E+03 -0.10063843922E+04 -0.14142004082E+03  0.12694694094E+04  0.00000000000E+00 0. -1.
<mgrwt>
<rscale>  0 0.27351631E+04</rscale>
<asrwt>0</asrwt>
<pdfrwt beam="1">  1        2 0.35253324E+00 0.27351631E+04</pdfrwt>
<pdfrwt beam="2">  1       -2 0.12556820E+00 0.27351631E+04</pdfrwt>
<totfact> 0.19008775E+00</totfact>
</mgrwt>
</event>
<event>
 6    1  0.5196787E-004  0.2716546E+04  0.7818608E-02  0.8329656E-01
          2   -1    0    0  501    0  0.00000000000E+00  0.00000000000E+00  0.15518970482E+04  0.15518970482E+04  0.00000000000E+00 0.  1.
         -2   -1    0    0    0  501 -0.00000000000E+00 -0.00000000000E+00 -0.11888068011E+04  0.11888068011E+04  0.00000000000E+00 0. -1.
         23    2    1    2    0    0 -0.87629954528E+03 -0.36340720885E+03  0.11602789554E+04  0.15015607869E+04  0.92042653553E+02 0.  0.
         13    1    3    3    0    0 -0.75624200954E+03 -0.28765664125E+03  0.10205612627E+04  0.13023799795E+04  0.00000000000E+00 0. -1.
        -13    1    3    3    0    0 -0.12005753573E+03 -0.75750567596E+02  0.13971769272E+03  0.19918080740E+03  0.00000000000E+00 0.  1.
         22    1    1    2    0    0  0.87629954528E+03  0.36340720885E+03 -0.79718870825E+03  0.12391430624E+04  0.00000000000E+00 0. -1.
<mgrwt>
<rscale>  0 0.27165462E+04</rscale>
<asrwt>0</asrwt>
<pdfrwt beam="1">  1        2 0.23875339E+00 0.27165462E+04</pdfrwt>
<pdfrwt beam="2">  1       -2 0.18289335E+00 0.27165462E+04</pdfrwt>
<totfact> 0.18009641E+00</totfact>
</mgrwt>
</event>
<event>
 6    1  0.5196787E-004  0.1770779E+04  0.7818608E-02  0.8721995E-01
          2   -1    0    0  501    0  0.00000000000E+00  0.00000000000E+00  0.23181422861E+04  0.23181422861E+04  0.00000000000E+00 0.  1.
         -2   -1    0    0    0  501 -0.00000000000E+00 -0.00000000000E+00 -0.33816482693E+03  0.33816482693E+03  0.00000000000E+00 0. -1.
         23    2    1    2    0    0 -0.28896129323E+02 -0.80076063329E+03  0.15493271941E+04  0.17466301215E+04  0.90826476782E+02 0.  0.
         11    1    3    3    0    0 -0.16617411378E+02 -0.63797876081E+03  0.13063661662E+04  0.14539207674E+04  0.00000000000E+00 0.  1.
        -11    1    3    3    0    0 -0.12278717945E+02 -0.16278187248E+03  0.24296102787E+03  0.29270935412E+03  0.00000000000E+00 0. -1.
         22    1    1    2    0    0  0.28896129323E+02  0.80076063329E+03  0.43065026511E+03  0.90967699155E+03  0.00000000000E+00 0. -1.
<mgrwt>
<rscale>  0 0.17707786E+04</rscale>
<asrwt>0</asrwt>
<pdfrwt beam="1">  1        2 0.35663726E+00 0.17707786E+04</pdfrwt>
<pdfrwt beam="2">  1       -2 0.52025359E-01 0.17707786E+04</pdfrwt>
<totfact> 0.14623258E+01</totfact>
</mgrwt>
</event>
<event>
 6    1  0.5196787E-004  0.3834889E+04  0.7818608E-02  0.8038709E-01
         -2   -1    0    0    0  501 -0.00000000000E+00  0.00000000000E+00  0.19859107038E+04  0.19859107038E+04  0.00000000000E+00 0. -1.
          2   -1    0    0  501    0  0.00000000000E+00 -0.00000000000E+00 -0.18513383686E+04  0.18513383686E+04  0.00000000000E+00 0.  1.
         23    2    1    2    0    0  0.82758582763E+03  0.37438761650E+03  0.17557916476E+04  0.19789120608E+04  0.90687623778E+02 0.  0.
         13    1    3    3    0    0  0.20719236711E+03  0.51878152565E+02  0.41910081847E+03  0.47038868582E+03  0.00000000000E+00 0. -1.
        -13    1    3    3    0    0  0.62039346052E+03  0.32250946394E+03  0.13366908291E+04  0.15085233750E+04  0.00000000000E+00 0.  1.
         22    1    1    2    0    0 -0.82758582763E+03 -0.37438761650E+03 -0.16212193124E+04  0.18583370115E+04  0.00000000000E+00 0.  1.
<mgrwt>
<rscale>  0 0.38348886E+04</rscale>
<asrwt>0</asrwt>
<pdfrwt beam="1">  1        2 0.28482129E+00 0.38348886E+04</pdfrwt>
<pdfrwt beam="2">  1       -2 0.30552472E+00 0.38348886E+04</pdfrwt>
<totfact> 0.18993274E-01</totfact>
</mgrwt>
</event>
<event>
 6    1  0.5196787E-004  0.5009240E+04  0.7818608E-02  0.7827083E-01
         -2   -1    0    0    0  501 -0.00000000000E+00  0.00000000000E+00  0.19404284202E+04  0.19404284202E+04  0.00000000000E+00 0. -1.
          2   -1    0    0  501    0  0.00000000000E+00 -0.00000000000E+00 -0.32328543581E+04  0.32328543581E+04  0.00000000000E+00 0.  1.
         23    2    1    2    0    0  0.18843782016E+04  0.14516968123E+04 -0.14536251449E+04  0.27891078632E+04  0.88270998316E+02 0.  0.
         13    1    3    3    0    0  0.18406174778E+03  0.14010756202E+03 -0.17280488901E+03  0.28873930386E+03  0.00000000000E+00 0.  1.
        -13    1    3    3    0    0  0.17003164538E+04  0.13115892503E+04 -0.12808202558E+04  0.25003685593E+04  0.00000000000E+00 0. -1.
         22    1    1    2    0    0 -0.18843782016E+04 -0.14516968123E+04  0.16119920699E+03  0.23841749151E+04  0.00000000000E+00 0. -1.
<mgrwt>
<rscale>  0 0.50092405E+04</rscale>
<asrwt>0</asrwt>
<pdfrwt beam="1">  1        2 0.49736221E+00 0.50092405E+04</pdfrwt>
<pdfrwt beam="2">  1       -2 0.29852745E+00 0.50092405E+04</pdfrwt>
<totfact> 0.29101446E-02</totfact>
</mgrwt>
</event>
<event>
 6    1  0.5196787E-004  0.9725248E+03  0.7818608E-02  0.9339203E-01
         -2   -1    0    0    0  501 -0.00000000000E+00  0.00000000000E+00  0.21161642512E+03  0.21161642512E+03  0.00000000000E+00 0. -1.
          2   -1    0    0  501    0  0.00000000000E+00 -0.00000000000E+00 -0.11173571332E+04  0.11173571332E+04  0.00000000000E+00 0.  1.
         23    2    1    2    0    0 -0.46104312160E+03  0.73749124648E+02 -0.29362179358E+03  0.55911041537E+03  0.91602431950E+02 0.  0.
         11    1    3    3    0    0 -0.13894621949E+03  0.57430954685E+02 -0.65053760729E+02  0.16381806449E+03  0.00000000000E+00 0. -1.
        -11    1    3    3    0    0 -0.32209690211E+03  0.16318169963E+02 -0.22856803286E+03  0.39529235088E+03  0.00000000000E+00 0.  1.
         22    1    1    2    0    0  0.46104312160E+03 -0.73749124648E+02 -0.61211891445E+03  0.76986314290E+03  0.00000000000E+00 0.  1.
<mgrwt>
<rscale>  0 0.97252480E+03</rscale>
<asrwt>0</asrwt>
<pdfrwt beam="1">  1        2 0.17190110E+00 0.97252480E+03</pdfrwt>
<pdfrwt beam="2">  1       -2 0.32556373E-01 0.97252480E+03</pdfrwt>
<totfact> 0.18657786E+02</totfact>
</mgrwt>
</event>
<event>
 6    1  0.5196787E-004  0.3802846E+04  0.7818608E-02  0.8045544E-01
          2   -1    0    0  501    0  0.00000000000E+00  0.00000000000E+00  0.20181218540E+04  0.20181218540E+04  0.00000000000E+00 0.  1.
         -2   -1    0    0    0  501 -0.00000000000E+00 -0.00000000000E+00 -0.17914720409E+04  0.17914720409E+04  0.00000000000E+00 0. -1.
         23    2    1    2    0    0  0.16202720931E+04  0.99070832243E+03  0.18104712464E+03  0.19098928023E+04  0.90154417764E+02 0.  0.
         11    1    3    3    0    0  0.42863877587E+03  0.28655226164E+03  0.83595823576E+02  0.52233290204E+03  0.00000000000E+00 0.  1.
        -11    1    3    3    0    0  0.11916333172E+04  0.70415606079E+03  0.97451301065E+02  0.13875599002E+04  0.00000000000E+00 0. -1.
         22    1    1    2    0    0 -0.16202720931E+04 -0.99070832243E+03  0.45602688463E+02  0.18997010925E+04  0.00000000000E+00 0. -1.
<mgrwt>
<rscale>  0 0.38028457E+04</rscale>
<asrwt>0</asrwt>
<pdfrwt beam="1">  1        2 0.31048029E+00 0.38028457E+04</pdfrwt>
<pdfrwt beam="2">  1       -2 0.27561108E+00 0.38028457E+04</pdfrwt>
<totfact> 0.23439645E-01</totfact>
</mgrwt>
</event>
<event>
 6    1  0.5196787E-004  0.4166291E+04  0.7818608E-02  0.7971815E-01
         -2   -1    0    0    0  501 -0.00000000000E+00  0.00000000000E+00  0.23881547464E+04  0.23881547464E+04  0.00000000000E+00 0. -1.
          2   -1    0    0  501    0  0.00000000000E+00 -0.00000000000E+00 -0.18170916641E+04  0.18170916641E+04  0.00000000000E+00 0.  1.
         23    2    1    2    0    0 -0.27688561585E+03  0.54513884608E+03 -0.17232726664E+04  0.18308373191E+04  0.91948901997E+02 0.  0.
         13    1    3    3    0    0 -0.10567640722E+03  0.30138292489E+03 -0.94492089258E+03  0.99743403977E+03  0.00000000000E+00 0. -1.
        -13    1    3    3    0    0 -0.17120920863E+03  0.24375592118E+03 -0.77835177383E+03  0.83340327936E+03  0.00000000000E+00 0.  1.
         22    1    1    2    0    0  0.27688561585E+03 -0.54513884608E+03  0.22943357487E+04  0.23744090914E+04  0.00000000000E+00 0. -1.
<mgrwt>
<rscale>  0 0.41662914E+04</rscale>
<asrwt>0</asrwt>
<pdfrwt beam="1">  1        2 0.27955257E+00 0.41662914E+04</pdfrwt>
<pdfrwt beam="2">  1       -2 0.36740842E+00 0.41662914E+04</pdfrwt>
<totfact> 0.79241793E-02</totfact>
</mgrwt>
</event>
<event>
 6    1  0.5196787E-004  0.1636113E+04  0.7818608E-02  0.8798665E-01
          2   -1    0    0  501    0  0.00000000000E+00  0.00000000000E+00  0.24897876739E+03  0.24897876739E+03  0.00000000000E+00 0.  1.
         -2   -1    0    0    0  501 -0.00000000000E+00 -0.00000000000E+00 -0.26878450861E+04  0.26878450861E+04  0.00000000000E+00 0. -1.
         23    2    1    2    0    0  0.39000389590E+03 -0.69899791321E+03 -0.94107202928E+03  0.12385633155E+04  0.87871501035E+02 0.  0.
         11    1    3    3    0    0  0.15368789610E+03 -0.32634492556E+03 -0.47903615309E+03  0.59966375229E+03  0.00000000000E+00 0. -1.
        -11    1    3    3    0    0  0.23631599980E+03 -0.37265298765E+03 -0.46203587619E+03  0.63889956320E+03  0.00000000000E+00 0.  1.
         22    1    1    2    0    0 -0.39000389590E+03  0.69899791321E+03 -0.14977942895E+04  0.16982605380E+04  0.00000000000E+00 0.  1.
<mgrwt>
<rscale>  0 0.16361129E+04</rscale>
<asrwt>0</asrwt>
<pdfrwt beam="1">  1        2 0.38304426E-01 0.16361129E+04</pdfrwt>
<pdfrwt beam="2">  1       -2 0.41351463E+00 0.16361129E+04</pdfrwt>
<totfact> 0.78788978E-01</totfact>
</mgrwt>
</event>
<event>
 6    1  0.5196787E-004  0.1080311E+04  0.7818608E-02  0.9224597E-01
         -2   -1    0    0    0  501 -0.00000000000E+00  0.00000000000E+00  0.27376824861E+03  0.27376824861E+03  0.00000000000E+00 0. -1.
          2   -1    0    0  501    0  0.00000000000E+00 -0.00000000000E+00 -0.10657489641E+04  0.10657489641E+04  0.00000000000E+00 0.  1.
         23    2    1    2    0    0 -0.39199194610E+03 -0.24861755403E+02  0.53978726133E+02  0.40682049375E+03  0.91177950003E+02 0.  0.
         11    1    3    3    0    0 -0.22629386191E+03  0.16649029087E+02 -0.24623961316E+01  0.22691885224E+03  0.00000000000E+00 0. -1.
        -11    1    3    3    0    0 -0.16569808419E+03 -0.41510784489E+02  0.56441122265E+02  0.17990164150E+03  0.00000000000E+00 0.  1.
         22    1    1    2    0    0  0.39199194610E+03  0.24861755403E+02 -0.84595944163E+03  0.93269671896E+03  0.00000000000E+00 0.  1.
<mgrwt>
<rscale>  0 0.10803115E+04</rscale>
<asrwt>0</asrwt>
<pdfrwt beam="1">  1        2 0.16396138E+00 0.10803115E+04</pdfrwt>
<pdfrwt beam="2">  1       -2 0.42118193E-01 0.10803115E+04</pdfrwt>
<totfact> 0.12143364E+02</totfact>
</mgrwt>
</event>
<event>
 6    1  0.5196787E-004  0.1433705E+04  0.7818608E-02  0.8929776E-01
         -2   -1    0    0    0  501 -0.00000000000E+00  0.00000000000E+00  0.14176584489E+03  0.14176584489E+03  0.00000000000E+00 0. -1.
          2   -1    0    0  501    0  0.00000000000E+00 -0.00000000000E+00 -0.36248329273E+04  0.36248329273E+04  0.00000000000E+00 0.  1.
         23    2    1    2    0    0 -0.33834545213E+02 -0.25535807887E+03 -0.34979163022E+04  0.35085812840E+04  0.91496692073E+02 0.  0.
         13    1    3    3    0    0  0.26451330281E+02 -0.29677302614E+02 -0.51866263102E+03  0.52018394821E+03  0.00000000000E+00 0. -1.
        -13    1    3    3    0    0 -0.60285875494E+02 -0.22568077626E+03 -0.29792536712E+04  0.29883973358E+04  0.00000000000E+00 0.  1.
         22    1    1    2    0    0  0.33834545213E+02  0.25535807887E+03  0.14849219736E+02  0.25801748821E+03  0.00000000000E+00 0. -1.
<mgrwt>
<rscale>  0 0.14337050E+04</rscale>
<asrwt>0</asrwt>
<pdfrwt beam="1">  1        2 0.55766656E+00 0.14337050E+04</pdfrwt>
<pdfrwt beam="2">  1       -2 0.21810132E-01 0.14337050E+04</pdfrwt>
<totfact> 0.12014704E+01</totfact>
</mgrwt>
</event>
<event>
 6    1  0.5196787E-004  0.3595414E+04  0.7818608E-02  0.8091543E-01
          2   -1    0    0  501    0  0.00000000000E+00  0.00000000000E+00  0.26375297552E+04  0.26375297552E+04  0.00000000000E+00 0.  1.
         -2   -1    0    0    0  501 -0.00000000000E+00 -0.00000000000E+00 -0.12252945432E+04  0.12252945432E+04  0.00000000000E+00 0. -1.
         23    2    1    2    0    0  0.42045539902E+03  0.24966154727E+03 -0.11507827677E+04  0.12535763617E+04  0.89660947927E+02 0.  0.
         13    1    3    3    0    0  0.29370676725E+03  0.21870172600E+03 -0.87220887061E+03  0.94596111128E+03  0.00000000000E+00 0.  1.
        -13    1    3    3    0    0  0.12674863177E+03  0.30959821269E+02 -0.27857389704E+03  0.30761525044E+03  0.00000000000E+00 0. -1.
         22    1    1    2    0    0 -0.42045539902E+03 -0.24966154727E+03  0.25630179797E+04  0.26092479366E+04  0.00000000000E+00 0.  1.
<mgrwt>
<rscale>  0 0.35954142E+04</rscale>
<asrwt>0</asrwt>
<pdfrwt beam="1">  1        2 0.40577381E+00 0.35954142E+04</pdfrwt>
<pdfrwt beam="2">  1       -2 0.18850685E+00 0.35954142E+04</pdfrwt>
<totfact> 0.37398254E-01</totfact>
</mgrwt>
</event>
<event>
 6    1  0.5196787E-004  0.8142457E+03  0.7818608E-02  0.9539623E-01
          4   -1    0    0  501    0  0.00000000000E+00  0.00000000000E+00  0.39930892963E+03  0.39930892963E+03  0.00000000000E+00 0.  1.
         -4   -1    0    0    0  501 -0.00000000000E+00 -0.00000000000E+00 -0.41508970784E+03  0.41508970784E+03  0.00000000000E+00 0. -1.
         23    2    1    2    0    0 -0.23851560844E+03 -0.18656906610E+03 -0.27286068575E+03  0.41717352402E+03  0.88786729958E+02 0.  0.
         11    1    3    3    0    0 -0.14587848635E+03 -0.92018024895E+02 -0.99713177379E+02  0.19922491669E+03  0.00000000000E+00 0. -1.
        -11    1    3    3    0    0 -0.92637122093E+02 -0.94551041207E+02 -0.17314750837E+03  0.21794860733E+03  0.00000000000E+00 0.  1.
         22    1    1    2    0    0  0.23851560844E+03  0.18656906610E+03  0.25707990753E+03  0.39722511345E+03  0.00000000000E+00 0.  1.
<mgrwt>
<rscale>  0 0.81424573E+03</rscale>
<asrwt>0</asrwt>
<pdfrwt beam="1">  1        4 0.61432143E-01 0.81424573E+03</pdfrwt>
<pdfrwt beam="2">  1       -4 0.63859955E-01 0.81424573E+03</pdfrwt>
<totfact> 0.11350288E+01</totfact>
</mgrwt>
</event>
<event>
 6    1  0.5196787E-004  0.1073724E+04  0.7818608E-02  0.9231187E-01
         -2   -1    0    0    0  501 -0.00000000000E+00  0.00000000000E+00  0.16793182154E+03  0.16793182154E+03  0.00000000000E+00 0. -1.
          2   -1    0    0  501    0  0.00000000000E+00 -0.00000000000E+00 -0.17162976929E+04  0.17162976929E+04  0.00000000000E+00 0.  1.
         23    2    1    2    0    0  0.30017869839E+03 -0.84003992843E+02 -0.15384590809E+04  0.15723608462E+04  0.91095362862E+02 0.  0.
         11    1    3    3    0    0  0.13199309882E+03 -0.32316155953E+02 -0.46033579003E+03  0.47997453230E+03  0.00000000000E+00 0. -1.
        -11    1    3    3    0    0  0.16818559957E+03 -0.51687836890E+02 -0.10781232909E+04  0.10923863139E+04  0.00000000000E+00 0.  1.
         22    1    1    2    0    0 -0.30017869839E+03  0.84003992843E+02 -0.99067904922E+01  0.31186866831E+03  0.00000000000E+00 0. -1.
<mgrwt>
<rscale>  0 0.10737244E+04</rscale>
<asrwt>0</asrwt>
<pdfrwt beam="1">  1        2 0.26404582E+00 0.10737244E+04</pdfrwt>
<pdfrwt beam="2">  1       -2 0.25835663E-01 0.10737244E+04</pdfrwt>
<totfact> 0.12906725E+02</totfact>
</mgrwt>
</event>
<event>
 6    1  0.5196787E-004  0.1327378E+04  0.7818608E-02  0.9008131E-01
          2   -1    0    0  501    0  0.00000000000E+00  0.00000000000E+00  0.83815740717E+03  0.83815740717E+03  0.00000000000E+00 0.  1.
         -2   -1    0    0    0  501 -0.00000000000E+00 -0.00000000000E+00 -0.52553753461E+03  0.52553753461E+03  0.00000000000E+00 0. -1.
         23    2    1    2    0    0  0.50999111681E+02 -0.30635170800E+03 -0.44184923615E+03  0.54780529583E+03  0.91693054658E+02 0.  0.
         13    1    3    3    0    0  0.20062217943E+01 -0.28940422753E+02 -0.72663468296E+01  0.29906066128E+02  0.00000000000E+00 0. -1.
        -13    1    3    3    0    0  0.48992889886E+02 -0.27741128525E+03 -0.43458288932E+03  0.51789922970E+03  0.00000000000E+00 0.  1.
         22    1    1    2    0    0 -0.50999111681E+02  0.30635170800E+03  0.75446910870E+03  0.81588964595E+03  0.00000000000E+00 0.  1.
<mgrwt>
<rscale>  0 0.13273781E+04</rscale>
<asrwt>0</asrwt>
<pdfrwt beam="1">  1        2 0.12894729E+00 0.13273781E+04</pdfrwt>
<pdfrwt beam="2">  1       -2 0.80851929E-01 0.13273781E+04</pdfrwt>
<totfact> 0.42734743E+01</totfact>
</mgrwt>
</event>
<event>
 6    1  0.5196787E-004  0.1280621E+04  0.7818608E-02  0.9045076E-01
          2   -1    0    0  501    0  0.00000000000E+00  0.00000000000E+00  0.20553135766E+04  0.20553135766E+04  0.00000000000E+00 0.  1.
         -2   -1    0    0    0  501 -0.00000000000E+00 -0.00000000000E+00 -0.19948159546E+03  0.19948159546E+03  0.00000000000E+00 0. -1.
         23    2    1    2    0    0  0.24532044233E+02  0.46527281434E+03  0.16811657953E+03  0.50394855120E+03  0.92845812963E+02 0.  0.
         11    1    3    3    0    0  0.74313438242E+01  0.42181123012E+01 -0.63977499151E+01  0.10674668444E+02  0.00000000000E+00 0. -1.
        -11    1    3    3    0    0  0.17100700409E+02  0.46105470204E+03  0.17451432944E+03  0.49327388275E+03  0.00000000000E+00 0.  1.
         22    1    1    2    0    0 -0.24532044233E+02 -0.46527281434E+03  0.16877154016E+04  0.17508466208E+04  0.00000000000E+00 0.  1.
<mgrwt>
<rscale>  0 0.12806205E+04</rscale>
<asrwt>0</asrwt>
<pdfrwt beam="1">  1        2 0.31620207E+00 0.12806205E+04</pdfrwt>
<pdfrwt beam="2">  1       -2 0.30689478E-01 0.12806205E+04</pdfrwt>
<totfact> 0.60104215E+01</totfact>
</mgrwt>
</event>
<event>
 6    1  0.5196787E-004  0.1838082E+04  0.7818608E-02  0.8686306E-01
         -2   -1    0    0    0  501 -0.00000000000E+00  0.00000000000E+00  0.11992977883E+04  0.11992977883E+04  0.00000000000E+00 0. -1.
          2   -1    0    0  501    0  0.00000000000E+00 -0.00000000000E+00 -0.70427596834E+03  0.70427596834E+03  0.00000000000E+00 0.  1.
         23    2    1    2    0    0  0.37706611041E+03 -0.12938352111E+02 -0.61718280499E+03  0.72911840188E+03  0.91393526052E+02 0.  0.
         13    1    3    3    0    0  0.19191466278E+03  0.38678593636E+02 -0.32353606695E+03  0.37815718692E+03  0.00000000000E+00 0.  1.
        -13    1    3    3    0    0  0.18515144763E+03 -0.51616945747E+02 -0.29364673804E+03  0.35096121496E+03  0.00000000000E+00 0. -1.
         22    1    1    2    0    0 -0.37706611041E+03  0.12938352111E+02  0.11122046250E+04  0.11744553548E+04  0.00000000000E+00 0. -1.
<mgrwt>
<rscale>  0 0.18380823E+04</rscale>
<asrwt>0</asrwt>
<pdfrwt beam="1">  1        2 0.10835015E+00 0.18380823E+04</pdfrwt>
<pdfrwt beam="2">  1       -2 0.18450735E+00 0.18380823E+04</pdfrwt>
<totfact> 0.64568524E+00</totfact>
</mgrwt>
</event>
<event>
 6    1  0.5196787E-004  0.6470965E+03  0.7818608E-02  0.9812243E-01
          2   -1    0    0  501    0  0.00000000000E+00  0.00000000000E+00  0.74175467106E+03  0.74175467106E+03  0.00000000000E+00 0.  1.
         -2   -1    0    0    0  501 -0.00000000000E+00 -0.00000000000E+00 -0.14112949536E+03  0.14112949536E+03  0.00000000000E+00 0. -1.
         23    2    1    2    0    0  0.10768913047E+03  0.27337121068E+03  0.14600891777E+03  0.34158507200E+03  0.95042041731E+02 0.  0.
         13    1    3    3    0    0  0.26720451829E+02  0.18721364762E+03  0.10584345516E+03  0.21671587252E+03  0.00000000000E+00 0. -1.
        -13    1    3    3    0    0  0.80968678639E+02  0.86157563058E+02  0.40165462614E+02  0.12486919948E+03  0.00000000000E+00 0.  1.
         22    1    1    2    0    0 -0.10768913047E+03 -0.27337121068E+03  0.45461625793E+03  0.54129909442E+03  0.00000000000E+00 0.  1.
<mgrwt>
<rscale>  0 0.64709648E+03</rscale>
<asrwt>0</asrwt>
<pdfrwt beam="1">  1        2 0.11411610E+00 0.64709648E+03</pdfrwt>
<pdfrwt beam="2">  1       -2 0.21712230E-01 0.64709648E+03</pdfrwt>
<totfact> 0.70617066E+02</totfact>
</mgrwt>
</event>
<event>
 6    1  0.5196787E-004  0.4699521E+04  0.7818608E-02  0.7876608E-01
          2   -1    0    0  501    0  0.00000000000E+00  0.00000000000E+00  0.30726219823E+04  0.30726219823E+04  0.00000000000E+00 0.  1.
         -2   -1    0    0    0  501 -0.00000000000E+00 -0.00000000000E+00 -0.17969583681E+04  0.17969583681E+04  0.00000000000E+00 0. -1.
         23    2    1    2    0    0  0.11192937336E+04  0.15027399345E+04 -0.82947964256E+03  0.20513053631E+04  0.93655979176E+02 0.  0.
         11    1    3    3    0    0  0.51343379859E+03  0.70800058218E+03 -0.33758155351E+03  0.93746487676E+03  0.00000000000E+00 0.  1.
        -11    1    3    3    0    0  0.60585993497E+03  0.79473935229E+03 -0.49189808906E+03  0.11138404863E+04  0.00000000000E+00 0. -1.
         22    1    1    2    0    0 -0.11192937336E+04 -0.15027399345E+04  0.21051432568E+04  0.28182749874E+04  0.00000000000E+00 0. -1.
<mgrwt>
<rscale>  0 0.46995207E+04</rscale>
<asrwt>0</asrwt>
<pdfrwt beam="1">  1        2 0.47271107E+00 0.46995207E+04</pdfrwt>
<pdfrwt beam="2">  1       -2 0.27645513E+00 0.46995207E+04</pdfrwt>
<totfact> 0.51667265E-02</totfact>
</mgrwt>
</event>
<event>
 6    1  0.6445828E-004  0.5225311E+04  0.7818608E-02  0.7794661E-01
         -2   -1    0    0    0  501 -0.00000000000E+00  0.00000000000E+00  0.21399408877E+04  0.21399408877E+04  0.00000000000E+00 0. -1.
          2   -1    0    0  501    0  0.00000000000E+00 -0.00000000000E+00 -0.31897929027E+04  0.31897929027E+04  0.00000000000E+00 0.  1.
         23    2    1    2    0    0 -0.50927327973E+03  0.97533322831E+02  0.20859967862E+04  0.21513034032E+04  0.88609919795E+02 0.  0.
         13    1    3    3    0    0 -0.40982289084E+03  0.52458087294E+02  0.15376724028E+04  0.15922132618E+04  0.00000000000E+00 0. -1.
        -13    1    3    3    0    0 -0.99450388886E+02  0.45075235537E+02  0.54832438343E+03  0.55909014137E+03  0.00000000000E+00 0.  1.
         22    1    1    2    0    0  0.50927327973E+03 -0.97533322831E+02 -0.31358488012E+04  0.31784303873E+04  0.00000000000E+00 0.  1.
<mgrwt>
<rscale>  0 0.52253108E+04</rscale>
<asrwt>0</asrwt>
<pdfrwt beam="1">  1        2 0.49073737E+00 0.52253108E+04</pdfrwt>
<pdfrwt beam="2">  1       -2 0.32922168E+00 0.52253108E+04</pdfrwt>
<totfact> 0.19749904E-02</totfact>
</mgrwt>
</event>
<event>
 6    1  0.5196787E-004  0.6061008E+04  0.7818608E-02  0.7682883E-01
         -2   -1    0    0    0  501 -0.00000000000E+00  0.00000000000E+00  0.27186710993E+04  0.27186710993E+04  0.00000000000E+00 0. -1.
          2   -1    0    0  501    0  0.00000000000E+00 -0.00000000000E+00 -0.33781039013E+04  0.33781039013E+04  0.00000000000E+00 0.  1.
         23    2    1    2    0    0 -0.72550637211E+03  0.40592664983E+03 -0.32605012101E+04  0.33660804360E+04  0.92159749939E+02 0.  0.
         13    1    3    3    0    0 -0.43594560821E+03  0.21685501148E+03 -0.17478767384E+04  0.18144276679E+04  0.00000000000E+00 0. -1.
        -13    1    3    3    0    0 -0.28956076389E+03  0.18907163835E+03 -0.15126244717E+04  0.15516527681E+04  0.00000000000E+00 0.  1.
         22    1    1    2    0    0  0.72550637211E+03 -0.40592664983E+03  0.26010684082E+04  0.27306945646E+04  0.00000000000E+00 0. -1.
<mgrwt>
<rscale>  0 0.60610077E+04</rscale>
<asrwt>0</asrwt>
<pdfrwt beam="1">  1        2 0.51970829E+00 0.60610077E+04</pdfrwt>
<pdfrwt beam="2">  1       -2 0.41825709E+00 0.60610077E+04</pdfrwt>
<totfact> 0.37244964E-03</totfact>
</mgrwt>
</event>
<event>
 6    1  0.5196787E-004  0.2157737E+04  0.7818608E-02  0.8536228E-01
          2   -1    0    0  501    0  0.00000000000E+00  0.00000000000E+00  0.31716774661E+04  0.31716774661E+04  0.00000000000E+00 0.  1.
         -2   -1    0    0    0  501 -0.00000000000E+00 -0.00000000000E+00 -0.36698462991E+03  0.36698462991E+03  0.00000000000E+00 0. -1.
         23    2    1    2    0    0 -0.69164816705E+03 -0.32997601849E+03  0.16368142999E+03  0.78871616793E+03  0.89555699252E+02 0.  0.
         11    1    3    3    0    0 -0.67981471526E+03 -0.31546514104E+03  0.17084140515E+03  0.76866968719E+03  0.00000000000E+00 0. -1.
        -11    1    3    3    0    0 -0.11833451789E+02 -0.14510877446E+02 -0.71599751623E+01  0.20046480734E+02  0.00000000000E+00 0.  1.
         22    1    1    2    0    0  0.69164816705E+03  0.32997601849E+03  0.26410114062E+04  0.27499459281E+04  0.00000000000E+00 0.  1.
<mgrwt>
<rscale>  0 0.21577367E+04</rscale>
<asrwt>0</asrwt>
<pdfrwt beam="1">  1        2 0.48795036E+00 0.21577367E+04</pdfrwt>
<pdfrwt beam="2">  1       -2 0.56459176E-01 0.21577367E+04</pdfrwt>
<totfact> 0.36609883E+00</totfact>
</mgrwt>
</event>
<event>
 6    1  0.5196787E-004  0.5784707E+04  0.7818608E-02  0.7717684E-01
         -2   -1    0    0    0  501 -0.00000000000E+00  0.00000000000E+00  0.30322214018E+04  0.30322214018E+04  0.00000000000E+00 0. -1.
          2   -1    0    0  501    0  0.00000000000E+00 -0.00000000000E+00 -0.27589375719E+04  0.27589375719E+04  0.00000000000E+00 0.  1.
         23    2    1    2    0    0  0.21006060515E+04  0.10896735115E+04  0.18003250105E+04  0.29748157928E+04  0.91786233059E+02 0.  0.
         11    1    3    3    0    0  0.11505522054E+04  0.60850025624E+03  0.10458979814E+04  0.16697142051E+04  0.00000000000E+00 0. -1.
        -11    1    3    3    0    0  0.95005384614E+03  0.48117325523E+03  0.75442702902E+03  0.13051015877E+04  0.00000000000E+00 0.  1.
         22    1    1    2    0    0 -0.21006060515E+04 -0.10896735115E+04 -0.15270411806E+04  0.28163431809E+04  0.00000000000E+00 0.  1.
<mgrwt>
<rscale>  0 0.57847073E+04</rscale>
<asrwt>0</asrwt>
<pdfrwt beam="1">  1        2 0.42445194E+00 0.57847073E+04</pdfrwt>
<pdfrwt beam="2">  1       -2 0.46649560E+00 0.57847073E+04</pdfrwt>
<totfact> 0.45563617E-03</totfact>
</mgrwt>
</event>
<event>
 6    1  0.5196787E-004  0.2436262E+04  0.7818608E-02  0.8426051E-01
         -2   -1    0    0    0  501 -0.00000000000E+00  0.00000000000E+00  0.77298820571E+03  0.77298820571E+03  0.00000000000E+00 0. -1.
          2   -1    0    0  501    0  0.00000000000E+00 -0.00000000000E+00 -0.19196189756E+04  0.19196189756E+04  0.00000000000E+00 0.  1.
         23    2    1    2    0    0  0.17472619677E+03  0.63853269111E+03 -0.17020851908E+04  0.18284411931E+04  0.88599992339E+02 0.  0.
         13    1    3    3    0    0  0.15964022363E+03  0.44830679934E+03 -0.12632292758E+04  0.13498933997E+04  0.00000000000E+00 0. -1.
        -13    1    3    3    0    0  0.15085973144E+02  0.19022589177E+03 -0.43885591495E+03  0.47854779340E+03  0.00000000000E+00 0.  1.
         22    1    1    2    0    0 -0.17472619677E+03 -0.63853269111E+03  0.55545442088E+03  0.86416598819E+03  0.00000000000E+00 0. -1.
<mgrwt>
<rscale>  0 0.24362617E+04</rscale>
<asrwt>0</asrwt>
<pdfrwt beam="1">  1        2 0.29532600E+00 0.24362617E+04</pdfrwt>
<pdfrwt beam="2">  1       -2 0.11892126E+00 0.24362617E+04</pdfrwt>
<totfact> 0.36056304E+00</totfact>
</mgrwt>
</event>
<event>
 6    1  0.5196787E-004  0.2864007E+04  0.7818608E-02  0.8283668E-01
          2   -1    0    0  501    0  0.00000000000E+00  0.00000000000E+00  0.78892379080E+03  0.78892379080E+03  0.00000000000E+00 0.  1.
         -2   -1    0    0    0  501 -0.00000000000E+00 -0.00000000000E+00 -0.25992803393E+04  0.25992803393E+04  0.00000000000E+00 0. -1.
         23    2    1    2    0    0  0.35099210740E+02  0.99912098541E+03 -0.21166502119E+04  0.23425988000E+04  0.89923968859E+02 0.  0.
         13    1    3    3    0    0 -0.14910934826E+02  0.44318681984E+03 -0.10138472054E+04  0.11065816957E+04  0.00000000000E+00 0.  1.
        -13    1    3    3    0    0  0.50010145565E+02  0.55593416557E+03 -0.11028030065E+04  0.12360171044E+04  0.00000000000E+00 0. -1.
         22    1    1    2    0    0 -0.35099210740E+02 -0.99912098541E+03  0.30629366341E+03  0.10456053301E+04  0.00000000000E+00 0.  1.
<mgrwt>
<rscale>  0 0.28640071E+04</rscale>
<asrwt>0</asrwt>
<pdfrwt beam="1">  1        2 0.12137289E+00 0.28640071E+04</pdfrwt>
<pdfrwt beam="2">  1       -2 0.39988928E+00 0.28640071E+04</pdfrwt>
<totfact> 0.22571006E-01</totfact>
</mgrwt>
</event>
<event>
 6    1  0.5196787E-004  0.3113487E+04  0.7818608E-02  0.8212046E-01
         -2   -1    0    0    0  501 -0.00000000000E+00  0.00000000000E+00  0.22525723656E+04  0.22525723656E+04  0.00000000000E+00 0. -1.
          2   -1    0    0  501    0  0.00000000000E+00 -0.00000000000E+00 -0.10758588048E+04  0.10758588048E+04  0.00000000000E+00 0.  1.
         23    2    1    2    0    0 -0.51624636149E+03 -0.45513307821E+03 -0.90230894007E+03  0.11384560602E+04  0.90908486790E+02 0.  0.
         13    1    3    3    0    0 -0.33795726007E+03 -0.29849281256E+03 -0.65968402995E+03  0.79905950226E+03  0.00000000000E+00 0.  1.
        -13    1    3    3    0    0 -0.17828910142E+03 -0.15664026565E+03 -0.24262491012E+03  0.33939655790E+03  0.00000000000E+00 0. -1.
         22    1    1    2    0    0  0.51624636149E+03  0.45513307821E+03  0.20790225009E+04  0.21899751103E+04  0.00000000000E+00 0. -1.
<mgrwt>
<rscale>  0 0.31134867E+04</rscale>
<asrwt>0</asrwt>
<pdfrwt beam="1">  1        2 0.16551674E+00 0.31134867E+04</pdfrwt>
<pdfrwt beam="2">  1       -2 0.34654959E+00 0.31134867E+04</pdfrwt>
<totfact> 0.31272000E-01</totfact>
</mgrwt>
</event>
<event>
 6    1  0.5196787E-004  0.1808325E+04  0.7818608E-02  0.8701885E-01
         -2   -1    0    0    0  501 -0.00000000000E+00  0.00000000000E+00  0.10576813258E+04  0.10576813258E+04  0.00000000000E+00 0. -1.
          2   -1    0    0  501    0  0.00000000000E+00 -0.00000000000E+00 -0.77292655955E+03  0.77292655955E+03  0.00000000000E+00 0.  1.
         23    2    1    2    0    0  0.42554163976E+03  0.54989596022E+03 -0.43875502880E+03  0.82714504211E+03  0.90507961880E+02 0.  0.
         13    1    3    3    0    0  0.40571816202E+03  0.48417590609E+03 -0.40746252837E+03  0.75170422844E+03  0.00000000000E+00 0.  1.
        -13    1    3    3    0    0  0.19823477736E+02  0.65720054129E+02 -0.31292500429E+02  0.75440813671E+02  0.00000000000E+00 0. -1.
         22    1    1    2    0    0 -0.42554163976E+03 -0.54989596022E+03  0.72350979501E+03  0.10034628432E+04  0.00000000000E+00 0. -1.
<mgrwt>
<rscale>  0 0.18083252E+04</rscale>
<asrwt>0</asrwt>
<pdfrwt beam="1">  1        2 0.11891178E+00 0.18083252E+04</pdfrwt>
<pdfrwt beam="2">  1       -2 0.16272020E+00 0.18083252E+04</pdfrwt>
<totfact> 0.81775817E+00</totfact>
</mgrwt>
</event>
<event>
 6    1  0.5196787E-004  0.4154731E+04  0.7818608E-02  0.7974040E-01
         -2   -1    0    0    0  501 -0.00000000000E+00  0.00000000000E+00  0.17199375954E+04  0.17199375954E+04  0.00000000000E+00 0. -1.
          2   -1    0    0  501    0  0.00000000000E+00 -0.00000000000E+00 -0.25090719194E+04  0.25090719194E+04  0.00000000000E+00 0.  1.
         23    2    1    2    0    0  0.17774310731E+04  0.10441647171E+04 -0.14309519470E+03  0.20687068201E+04  0.97624263022E+02 0.  0.
         11    1    3    3    0    0  0.11955725213E+04  0.64919861598E+03 -0.87961667094E+02  0.13633010495E+04  0.00000000000E+00 0. -1.
        -11    1    3    3    0    0  0.58185855181E+03  0.39496610114E+03 -0.55133527609E+02  0.70540577063E+03  0.00000000000E+00 0.  1.
         22    1    1    2    0    0 -0.17774310731E+04 -0.10441647171E+04 -0.64603912935E+03  0.21603026947E+04  0.00000000000E+00 0.  1.
<mgrwt>
<rscale>  0 0.41547309E+04</rscale>
<asrwt>0</asrwt>
<pdfrwt beam="1">  1        2 0.38601107E+00 0.41547309E+04</pdfrwt>
<pdfrwt beam="2">  1       -2 0.26460578E+00 0.41547309E+04</pdfrwt>
<totfact> 0.14010869E-01</totfact>
</mgrwt>
</event>
<event>
 6    1  0.5196787E-004  0.5037583E+04  0.7818608E-02  0.7822736E-01
         -2   -1    0    0    0  501 -0.00000000000E+00  0.00000000000E+00  0.20811216669E+04  0.20811216669E+04  0.00000000000E+00 0. -1.
          2   -1    0    0  501    0  0.00000000000E+00 -0.00000000000E+00 -0.30485049003E+04  0.30485049003E+04  0.00000000000E+00 0.  1.
         23    2    1    2    0    0 -0.53755347197E+03 -0.23671122350E+04 -0.11650722519E+04  0.26942077087E+04  0.95800611211E+02 0.  0.
         11    1    3    3    0    0 -0.50834271838E+03 -0.21039372072E+04 -0.10367771868E+04  0.23999731303E+04  0.00000000000E+00 0. -1.
        -11    1    3    3    0    0 -0.29210753591E+02 -0.26317502775E+03 -0.12829506511E+03  0.29423457834E+03  0.00000000000E+00 0.  1.
         22    1    1    2    0    0  0.53755347197E+03  0.23671122350E+04  0.19768901849E+03  0.24354188585E+04  0.00000000000E+00 0.  1.
<mgrwt>
<rscale>  0 0.50375826E+04</rscale>
<asrwt>0</asrwt>
<pdfrwt beam="1">  1        2 0.46900075E+00 0.50375826E+04</pdfrwt>
<pdfrwt beam="2">  1       -2 0.32017256E+00 0.50375826E+04</pdfrwt>
<totfact> 0.28119129E-02</totfact>
</mgrwt>
</event>
<event>
 6    1  0.5196787E-004  0.3897529E+04  0.7818608E-02  0.8025543E-01
          2   -1    0    0  501    0  0.00000000000E+00  0.00000000000E+00  0.37046048584E+04  0.37046048584E+04  0.00000000000E+00 0.  1.
         -2   -1    0    0    0  501 -0.00000000000E+00 -0.00000000000E+00 -0.10251252566E+04  0.10251252566E+04  0.00000000000E+00 0. -1.
         23    2    1    2    0    0 -0.16179474049E+04  0.10685252580E+04  0.15646443026E+04  0.24931349848E+04  0.90056796349E+02 0.  0.
         11    1    3    3    0    0 -0.90674508640E+03  0.54586398332E+03  0.86288498424E+03  0.13655492067E+04  0.00000000000E+00 0.  1.
        -11    1    3    3    0    0 -0.71120231851E+03  0.52266127472E+03  0.70175931841E+03  0.11275857781E+04  0.00000000000E+00 0. -1.
         22    1    1    2    0    0  0.16179474049E+04 -0.10685252580E+04  0.11148352992E+04  0.22365951302E+04  0.00000000000E+00 0.  1.
<mgrwt>
<rscale>  0 0.38975295E+04</rscale>
<asrwt>0</asrwt>
<pdfrwt beam="1">  1        2 0.56993920E+00 0.38975295E+04</pdfrwt>
<pdfrwt beam="2">  1       -2 0.15771158E+00 0.38975295E+04</pdfrwt>
<totfact> 0.12037888E-01</totfact>
</mgrwt>
</event>
<event>
 6    1  0.5196787E-004  0.1372140E+04  0.7818608E-02  0.8974235E-01
          2   -1    0    0  501    0  0.00000000000E+00  0.00000000000E+00  0.97747145846E+03  0.97747145846E+03  0.00000000000E+00 0. -1.
         -2   -1    0    0    0  501 -0.00000000000E+00 -0.00000000000E+00 -0.48154058837E+03  0.48154058837E+03  0.00000000000E+00 0.  1.
         23    2    1    2    0    0 -0.52328457257E+03 -0.97625437784E+02 -0.20538708316E+03  0.57855515319E+03  0.95837056286E+02 0.  0.
         11    1    3    3    0    0 -0.14158946091E+03 -0.67398748901E+02 -0.42592247855E+02  0.16249389642E+03  0.00000000000E+00 0.  1.
        -11    1    3    3    0    0 -0.38169511166E+03 -0.30226688882E+02 -0.16279483530E+03  0.41606125677E+03  0.00000000000E+00 0. -1.
         22    1    1    2    0    0  0.52328457257E+03  0.97625437784E+02  0.70131795325E+03  0.88045689364E+03  0.00000000000E+00 0. -1.
<mgrwt>
<rscale>  0 0.13721402E+04</rscale>
<asrwt>0</asrwt>
<pdfrwt beam="1">  1        2 0.15038022E+00 0.13721402E+04</pdfrwt>
<pdfrwt beam="2">  1       -2 0.74083168E-01 0.13721402E+04</pdfrwt>
<totfact> 0.41696886E+01</totfact>
</mgrwt>
</event>
<event>
 6    1  0.5196787E-004  0.2918822E+04  0.7818608E-02  0.8267299E-01
          2   -1    0    0  501    0  0.00000000000E+00  0.00000000000E+00  0.20966936160E+04  0.20966936160E+04  0.00000000000E+00 0.  1.
         -2   -1    0    0    0  501 -0.00000000000E+00 -0.00000000000E+00 -0.10158278790E+04  0.10158278790E+04  0.00000000000E+00 0. -1.
         23    2    1    2    0    0 -0.57295154598E+03  0.12332756105E+04  0.11016896141E+04  0.17524936133E+04  0.90948628993E+02 0.  0.
         13    1    3    3    0    0 -0.12665368438E+03  0.25089704217E+03  0.27492745740E+03  0.39316102092E+03  0.00000000000E+00 0.  1.
        -13    1    3    3    0    0 -0.44629786160E+03  0.98237856833E+03  0.82676215673E+03  0.13593325923E+04  0.00000000000E+00 0. -1.
         22    1    1    2    0    0  0.57295154598E+03 -0.12332756105E+04 -0.20823877146E+02  0.13600278818E+04  0.00000000000E+00 0. -1.
<mgrwt>
<rscale>  0 0.29188216E+04</rscale>
<asrwt>0</asrwt>
<pdfrwt beam="1">  1        2 0.32256825E+00 0.29188216E+04</pdfrwt>
<pdfrwt beam="2">  1       -2 0.15628121E+00 0.29188216E+04</pdfrwt>
<totfact> 0.13653512E+00</totfact>
</mgrwt>
</event>
<event>
 6    1  0.5196787E-004  0.2660561E+04  0.7818608E-02  0.8347916E-01
          2   -1    0    0  501    0  0.00000000000E+00  0.00000000000E+00  0.10156466834E+04  0.10156466834E+04  0.00000000000E+00 0.  1.
         -2   -1    0    0    0  501 -0.00000000000E+00 -0.00000000000E+00 -0.17423839938E+04  0.17423839938E+04  0.00000000000E+00 0. -1.
         23    2    1    2    0    0  0.93328586933E+03  0.25157034092E+03  0.58143710493E+03  0.11314912674E+04  0.88843857360E+02 0.  0.
         13    1    3    3    0    0  0.34754071679E+03  0.58544435675E+02  0.18139278487E+03  0.39637777836E+03  0.00000000000E+00 0. -1.
        -13    1    3    3    0    0  0.58574515255E+03  0.19302590525E+03  0.40004432006E+03  0.73511348909E+03  0.00000000000E+00 0.  1.
         22    1    1    2    0    0 -0.93328586933E+03 -0.25157034092E+03 -0.13081744153E+04  0.16265394097E+04  0.00000000000E+00 0. -1.
<mgrwt>
<rscale>  0 0.26605612E+04</rscale>
<asrwt>0</asrwt>
<pdfrwt beam="1">  1        2 0.15625334E+00 0.26605612E+04</pdfrwt>
<pdfrwt beam="2">  1       -2 0.26805908E+00 0.26605612E+04</pdfrwt>
<totfact> 0.10789615E+00</totfact>
</mgrwt>
</event>
<event>
 6    1  0.5196787E-004  0.5104211E+04  0.7818608E-02  0.7812630E-01
         -2   -1    0    0    0  501 -0.00000000000E+00  0.00000000000E+00  0.18865542297E+04  0.18865542297E+04  0.00000000000E+00 0. -1.
          2   -1    0    0  501    0  0.00000000000E+00 -0.00000000000E+00 -0.34524548182E+04  0.34524548182E+04  0.00000000000E+00 0.  1.
         23    2    1    2    0    0  0.23683546669E+03  0.11447539329E+04 -0.31551132791E+04  0.33661558903E+04  0.98554899022E+02 0.  0.
         13    1    3    3    0    0  0.14448739765E+03  0.58620663434E+03 -0.15026295603E+04  0.16193858162E+04  0.00000000000E+00 0.  1.
        -13    1    3    3    0    0  0.92348069036E+02  0.55854729859E+03 -0.16524837188E+04  0.17467700741E+04  0.00000000000E+00 0. -1.
         22    1    1    2    0    0 -0.23683546669E+03 -0.11447539329E+04  0.15892126907E+04  0.19728531576E+04  0.00000000000E+00 0. -1.
<mgrwt>
<rscale>  0 0.51042113E+04</rscale>
<asrwt>0</asrwt>
<pdfrwt beam="1">  1        2 0.53114690E+00 0.51042113E+04</pdfrwt>
<pdfrwt beam="2">  1       -2 0.29023911E+00 0.51042113E+04</pdfrwt>
<totfact> 0.23060331E-02</totfact>
</mgrwt>
</event>
<event>
 6    1  0.5818336E-004  0.3969496E+04  0.7818608E-02  0.8010729E-01
          1   -1    0    0  501    0  0.00000000000E+00  0.00000000000E+00  0.26119935378E+04  0.26119935378E+04  0.00000000000E+00 0.  1.
         -1   -1    0    0    0  501 -0.00000000000E+00 -0.00000000000E+00 -0.15081298303E+04  0.15081298303E+04  0.00000000000E+00 0. -1.
         23    2    1    2    0    0  0.77960354125E+03  0.65671360165E+03  0.23186030702E+04  0.25343597807E+04  0.89469910231E+02 0.  0.
         11    1    3    3    0    0  0.53413153768E+03  0.44940318500E+03  0.14814841237E+04  0.16376980585E+04  0.00000000000E+00 0.  1.
        -11    1    3    3    0    0  0.24547200356E+03  0.20731041665E+03  0.83711894647E+03  0.89666172213E+03  0.00000000000E+00 0. -1.
         22    1    1    2    0    0 -0.77960354125E+03 -0.65671360165E+03 -0.12147393626E+04  0.15857635874E+04  0.00000000000E+00 0. -1.
<mgrwt>
<rscale>  0 0.39694964E+04</rscale>
<asrwt>0</asrwt>
<pdfrwt beam="1">  1        1 0.40184516E+00 0.39694964E+04</pdfrwt>
<pdfrwt beam="2">  1       -1 0.23201997E+00 0.39694964E+04</pdfrwt>
<totfact> 0.81266021E-02</totfact>
</mgrwt>
</event>
<event>
 6    1  0.5196787E-004  0.3476791E+04  0.7818608E-02  0.8119312E-01
          2   -1    0    0  501    0  0.00000000000E+00  0.00000000000E+00  0.43980103009E+04  0.43980103009E+04  0.00000000000E+00 0.  1.
         -2   -1    0    0    0  501 -0.00000000000E+00 -0.00000000000E+00 -0.68713318580E+03  0.68713318580E+03  0.00000000000E+00 0. -1.
         23    2    1    2    0    0 -0.85764505021E+03  0.13686041960E+04  0.92138542467E+03  0.18618072696E+04  0.93502571166E+02 0.  0.
         13    1    3    3    0    0 -0.45697052294E+03  0.80112885254E+03  0.55557992336E+03  0.10767072715E+04  0.00000000000E+00 0. -1.
        -13    1    3    3    0    0 -0.40067452727E+03  0.56747534349E+03  0.36580550132E+03  0.78509999813E+03  0.00000000000E+00 0.  1.
         22    1    1    2    0    0  0.85764505021E+03 -0.13686041960E+04  0.27894916905E+04  0.32233362171E+04  0.00000000000E+00 0.  1.
<mgrwt>
<rscale>  0 0.34767910E+04</rscale>
<asrwt>0</asrwt>
<pdfrwt beam="1">  1        2 0.67661695E+00 0.34767910E+04</pdfrwt>
<pdfrwt beam="2">  1       -2 0.10571280E+00 0.34767910E+04</pdfrwt>
<totfact> 0.91393276E-02</totfact>
</mgrwt>
</event>
<event>
 6    1  0.5196787E-004  0.1234633E+04  0.7818608E-02  0.9083071E-01
         -2   -1    0    0    0  501 -0.00000000000E+00  0.00000000000E+00  0.23148080947E+03  0.23148080947E+03  0.00000000000E+00 0. -1.
          2   -1    0    0  501    0  0.00000000000E+00 -0.00000000000E+00 -0.16462698832E+04  0.16462698832E+04  0.00000000000E+00 0.  1.
         23    2    1    2    0    0  0.51447734000E+03 -0.25733603172E+03 -0.10375041623E+04  0.11898170687E+04  0.91329095071E+02 0.  0.
         13    1    3    3    0    0  0.26668031095E+03 -0.17295597777E+03 -0.62672478418E+03  0.70272050888E+03  0.00000000000E+00 0. -1.
        -13    1    3    3    0    0  0.24779702905E+03 -0.84380053953E+02 -0.41077937816E+03  0.48709655987E+03  0.00000000000E+00 0.  1.
         22    1    1    2    0    0 -0.51447734000E+03  0.25733603172E+03 -0.37728491141E+03  0.68793362396E+03  0.00000000000E+00 0.  1.
<mgrwt>
<rscale>  0 0.12346334E+04</rscale>
<asrwt>0</asrwt>
<pdfrwt beam="1">  1        2 0.25327229E+00 0.12346334E+04</pdfrwt>
<pdfrwt beam="2">  1       -2 0.35612432E-01 0.12346334E+04</pdfrwt>
<totfact> 0.76629185E+01</totfact>
</mgrwt>
</event>
<event>
 6    1  0.5196787E-004  0.1267350E+04  0.7818608E-02  0.9055866E-01
         -2   -1    0    0    0  501 -0.00000000000E+00  0.00000000000E+00  0.59617098478E+03  0.59617098478E+03  0.00000000000E+00 0. -1.
          2   -1    0    0  501    0  0.00000000000E+00 -0.00000000000E+00 -0.67353792563E+03  0.67353792563E+03  0.00000000000E+00 0.  1.
         23    2    1    2    0    0  0.31575601812E+03  0.50815378973E+03  0.15981783190E+03  0.62614170069E+03  0.92679841142E+02 0.  0.
         13    1    3    3    0    0  0.12163269882E+03  0.13708145089E+03  0.79317807621E+02  0.19969264435E+03  0.00000000000E+00 0. -1.
        -13    1    3    3    0    0  0.19412331930E+03  0.37107233884E+03  0.80500024281E+02  0.42644905635E+03  0.00000000000E+00 0.  1.
         22    1    1    2    0    0 -0.31575601812E+03 -0.50815378973E+03 -0.23718477275E+03  0.64356720972E+03  0.00000000000E+00 0.  1.
<mgrwt>
<rscale>  0 0.12673496E+04</rscale>
<asrwt>0</asrwt>
<pdfrwt beam="1">  1        2 0.10362122E+00 0.12673496E+04</pdfrwt>
<pdfrwt beam="2">  1       -2 0.91718613E-01 0.12673496E+04</pdfrwt>
<totfact> 0.42757606E+01</totfact>
</mgrwt>
</event>
<event>
 6    1  0.5196787E-004  0.3068032E+04  0.7818608E-02  0.8224566E-01
          2   -1    0    0  501    0  0.00000000000E+00  0.00000000000E+00  0.11103060001E+04  0.11103060001E+04  0.00000000000E+00 0.  1.
         -2   -1    0    0    0  501 -0.00000000000E+00 -0.00000000000E+00 -0.21194202031E+04  0.21194202031E+04  0.00000000000E+00 0. -1.
         23    2    1    2    0    0 -0.69627425726E+02  0.58875532728E+03 -0.19927949100E+04  0.20812016944E+04  0.93210116121E+02 0.  0.
         11    1    3    3    0    0 -0.15265158260E+02  0.40789820390E+03 -0.12602402291E+04  0.13246959669E+04  0.00000000000E+00 0.  1.
        -11    1    3    3    0    0 -0.54362267465E+02  0.18085712338E+03 -0.73255468091E+03  0.75650572748E+03  0.00000000000E+00 0. -1.
         22    1    1    2    0    0  0.69627425726E+02 -0.58875532728E+03  0.98368070706E+03  0.11485245088E+04  0.00000000000E+00 0.  1.
<mgrwt>
<rscale>  0 0.30680319E+04</rscale>
<asrwt>0</asrwt>
<pdfrwt beam="1">  1        2 0.17081631E+00 0.30680319E+04</pdfrwt>
<pdfrwt beam="2">  1       -2 0.32606464E+00 0.30680319E+04</pdfrwt>
<totfact> 0.40127617E-01</totfact>
</mgrwt>
</event>
<event>
 6    1  0.5196787E-004  0.8866093E+03  0.7818608E-02  0.9442477E-01
         -2   -1    0    0    0  501 -0.00000000000E+00  0.00000000000E+00  0.30976000573E+03  0.30976000573E+03  0.00000000000E+00 0.  1.
          2   -1    0    0  501    0  0.00000000000E+00 -0.00000000000E+00 -0.63442343646E+03  0.63442343646E+03  0.00000000000E+00 0. -1.
         23    2    1    2    0    0 -0.15885043203E+03  0.18110673049E+03 -0.55415676814E+03  0.61146689691E+03  0.93642590562E+02 0.  0.
         11    1    3    3    0    0 -0.11922725251E+03  0.12078279015E+03 -0.27519625275E+03  0.32332119891E+03  0.00000000000E+00 0. -1.
        -11    1    3    3    0    0 -0.39623179514E+02  0.60323940343E+02 -0.27896051539E+03  0.28814569800E+03  0.00000000000E+00 0.  1.
         22    1    1    2    0    0  0.15885043203E+03 -0.18110673049E+03  0.22949333741E+03  0.33271654528E+03  0.00000000000E+00 0.  1.
<mgrwt>
<rscale>  0 0.88660929E+03</rscale>
<asrwt>0</asrwt>
<pdfrwt beam="1">  1        2 0.97603606E-01 0.88660929E+03</pdfrwt>
<pdfrwt beam="2">  1       -2 0.47655385E-01 0.88660929E+03</pdfrwt>
<totfact> 0.19402820E+02</totfact>
</mgrwt>
</event>
<event>
 6    1  0.5550532E-004  0.4133988E+04  0.7818608E-02  0.7978049E-01
          1   -1    0    0  501    0  0.00000000000E+00  0.00000000000E+00  0.24813125905E+04  0.24813125905E+04  0.00000000000E+00 0.  1.
         -1   -1    0    0    0  501 -0.00000000000E+00 -0.00000000000E+00 -0.17218563130E+04  0.17218563130E+04  0.00000000000E+00 0. -1.
         23    2    1    2    0    0  0.16650960483E+04 -0.11064377214E+04 -0.14996904282E+03  0.20068529666E+04  0.90657787192E+02 0.  0.
         11    1    3    3    0    0  0.81466186126E+03 -0.59394992154E+03 -0.87169636365E+02  0.10119530636E+04  0.00000000000E+00 0.  1.
        -11    1    3    3    0    0  0.85043418705E+03 -0.51248779987E+03 -0.62799406460E+02  0.99489990299E+03  0.00000000000E+00 0. -1.
         22    1    1    2    0    0 -0.16650960483E+04  0.11064377214E+04  0.90942532033E+03  0.21963159369E+04  0.00000000000E+00 0.  1.
<mgrwt>
<rscale>  0 0.41339878E+04</rscale>
<asrwt>0</asrwt>
<pdfrwt beam="1">  1        1 0.38174040E+00 0.41339878E+04</pdfrwt>
<pdfrwt beam="2">  1       -1 0.26490097E+00 0.41339878E+04</pdfrwt>
<totfact> 0.60254325E-02</totfact>
</mgrwt>
</event>
<event>
 6    1  0.5196787E-004  0.9360913E+03  0.7818608E-02  0.9381557E-01
         -2   -1    0    0    0  501 -0.00000000000E+00  0.00000000000E+00  0.29481307113E+03  0.29481307113E+03  0.00000000000E+00 0. -1.
          2   -1    0    0  501    0  0.00000000000E+00 -0.00000000000E+00 -0.74306998519E+03  0.74306998519E+03  0.00000000000E+00 0.  1.
         23    2    1    2    0    0  0.55369048364E+01 -0.76074223551E+02 -0.73342538000E+03  0.74268990130E+03  0.88642860212E+02 0.  0.
         11    1    3    3    0    0 -0.17193666690E+02 -0.22558031215E+01 -0.27228145877E+02  0.32281306508E+02  0.00000000000E+00 0.  1.
        -11    1    3    3    0    0  0.22730571526E+02 -0.73818420430E+02 -0.70619723412E+03  0.71040859479E+03  0.00000000000E+00 0. -1.
         22    1    1    2    0    0 -0.55369048364E+01  0.76074223551E+02  0.28516846593E+03  0.29519315501E+03  0.00000000000E+00 0. -1.
<mgrwt>
<rscale>  0 0.93609133E+03</rscale>
<asrwt>0</asrwt>
<pdfrwt beam="1">  1        2 0.11431846E+00 0.93609133E+03</pdfrwt>
<pdfrwt beam="2">  1       -2 0.45355858E-01 0.93609133E+03</pdfrwt>
<totfact> 0.17518009E+02</totfact>
</mgrwt>
</event>
<event>
 6    1  0.5196787E-004  0.1664029E+04  0.7818608E-02  0.8782150E-01
          2   -1    0    0  501    0  0.00000000000E+00  0.00000000000E+00  0.24447219601E+04  0.24447219601E+04  0.00000000000E+00 0.  1.
         -2   -1    0    0    0  501 -0.00000000000E+00 -0.00000000000E+00 -0.28316010663E+03  0.28316010663E+03  0.00000000000E+00 0. -1.
         23    2    1    2    0    0 -0.56429322473E+03 -0.62043589980E+01  0.20806743603E+04  0.21577872289E+04  0.91512809179E+02 0.  0.
         13    1    3    3    0    0 -0.19318019388E+03 -0.11435463715E+02  0.56073553110E+03  0.59318942420E+03  0.00000000000E+00 0.  1.
        -13    1    3    3    0    0 -0.37111303085E+03  0.52311047170E+01  0.15199388292E+04  0.15645978047E+04  0.00000000000E+00 0. -1.
         22    1    1    2    0    0  0.56429322473E+03  0.62043589980E+01  0.80887493204E+02  0.57009483781E+03  0.00000000000E+00 0. -1.
<mgrwt>
<rscale>  0 0.16640285E+04</rscale>
<asrwt>0</asrwt>
<pdfrwt beam="1">  1        2 0.37611106E+00 0.16640285E+04</pdfrwt>
<pdfrwt beam="2">  1       -2 0.43563095E-01 0.16640285E+04</pdfrwt>
<totfact> 0.17893012E+01</totfact>
</mgrwt>
</event>
<event>
 6    1  0.5196787E-004  0.1248999E+04  0.7818608E-02  0.9071017E-01
         -4   -1    0    0    0  501 -0.00000000000E+00  0.00000000000E+00  0.90897713610E+03  0.90897713610E+03  0.00000000000E+00 0.  1.
          4   -1    0    0  501    0  0.00000000000E+00 -0.00000000000E+00 -0.42905350566E+03  0.42905350566E+03  0.00000000000E+00 0. -1.
         23    2    1    2    0    0  0.44553798685E+03  0.32771961816E+03  0.54408424728E+03  0.78123549936E+03  0.91635099590E+02 0.  0.
         11    1    3    3    0    0  0.20294607729E+03  0.13072645399E+03  0.17814854417E+03  0.30002236558E+03  0.00000000000E+00 0. -1.
        -11    1    3    3    0    0  0.24259190956E+03  0.19699316417E+03  0.36593570311E+03  0.48121313378E+03  0.00000000000E+00 0.  1.
         22    1    1    2    0    0 -0.44553798685E+03 -0.32771961816E+03 -0.64160616836E+02  0.55679514240E+03  0.00000000000E+00 0. -1.
<mgrwt>
<rscale>  0 0.12489993E+04</rscale>
<asrwt>0</asrwt>
<pdfrwt beam="1">  1        4 0.66008232E-01 0.12489993E+04</pdfrwt>
<pdfrwt beam="2">  1       -4 0.13984264E+00 0.12489993E+04</pdfrwt>
<totfact> 0.14990659E+00</totfact>
</mgrwt>
</event>
<event>
 6    1  0.5196787E-004  0.2027236E+04  0.7818608E-02  0.8593992E-01
         -2   -1    0    0    0  501 -0.00000000000E+00  0.00000000000E+00  0.93719406681E+03  0.93719406681E+03  0.00000000000E+00 0. -1.
          2   -1    0    0  501    0  0.00000000000E+00 -0.00000000000E+00 -0.10962738732E+04  0.10962738732E+04  0.00000000000E+00 0.  1.
         23    2    1    2    0    0  0.21857202775E+03  0.76553295609E+03  0.54642964098E+03  0.96972078092E+03  0.89210998353E+02 0.  0.
         11    1    3    3    0    0  0.31341287736E+02  0.17528214030E+03  0.84041967468E+02  0.19689885048E+03  0.00000000000E+00 0. -1.
        -11    1    3    3    0    0  0.18723074001E+03  0.59025081579E+03  0.46238767351E+03  0.77282193043E+03  0.00000000000E+00 0.  1.
         22    1    1    2    0    0 -0.21857202775E+03 -0.76553295609E+03 -0.70550944736E+03  0.10637471591E+04  0.00000000000E+00 0.  1.
<mgrwt>
<rscale>  0 0.20272359E+04</rscale>
<asrwt>0</asrwt>
<pdfrwt beam="1">  1        2 0.16865752E+00 0.20272359E+04</pdfrwt>
<pdfrwt beam="2">  1       -2 0.14418370E+00 0.20272359E+04</pdfrwt>
<totfact> 0.67524882E+00</totfact>
</mgrwt>
</event>
<event>
 6    1  0.5196787E-004  0.1654993E+04  0.7818608E-02  0.8787458E-01
         -2   -1    0    0    0  501 -0.00000000000E+00  0.00000000000E+00  0.37748780689E+03  0.37748780689E+03  0.00000000000E+00 0. -1.
          2   -1    0    0  501    0  0.00000000000E+00 -0.00000000000E+00 -0.18139669523E+04  0.18139669523E+04  0.00000000000E+00 0.  1.
         23    2    1    2    0    0 -0.33739987535E+03  0.47785991285E+03  0.49976582616E+02  0.59403828138E+03  0.90526508491E+02 0.  0.
         13    1    3    3    0    0 -0.13124086169E+03  0.11630168238E+03  0.24427506053E+02  0.17705069374E+03  0.00000000000E+00 0. -1.
        -13    1    3    3    0    0 -0.20615901366E+03  0.36155823047E+03  0.25549076563E+02  0.41698758764E+03  0.00000000000E+00 0.  1.
         22    1    1    2    0    0  0.33739987535E+03 -0.47785991285E+03 -0.14864557280E+04  0.15974164778E+04  0.00000000000E+00 0.  1.
<mgrwt>
<rscale>  0 0.16549929E+04</rscale>
<asrwt>0</asrwt>
<pdfrwt beam="1">  1        2 0.27907183E+00 0.16549929E+04</pdfrwt>
<pdfrwt beam="2">  1       -2 0.58075049E-01 0.16549929E+04</pdfrwt>
<totfact> 0.22453987E+01</totfact>
</mgrwt>
</event>
<event>
 6    1  0.5196787E-004  0.2086950E+04  0.7818608E-02  0.8567014E-01
          2   -1    0    0  501    0  0.00000000000E+00  0.00000000000E+00  0.16204432018E+04  0.16204432018E+04  0.00000000000E+00 0. -1.
         -2   -1    0    0    0  501 -0.00000000000E+00 -0.00000000000E+00 -0.67193983200E+03  0.67193983200E+03  0.00000000000E+00 0.  1.
         23    2    1    2    0    0  0.67109195763E+03  0.29846444347E+03 -0.33586088123E+03  0.81284358893E+03  0.92014829806E+02 0.  0.
         13    1    3    3    0    0  0.10863586906E+03  0.13050575769E+02 -0.45823442369E+02  0.11862486014E+03  0.00000000000E+00 0. -1.
        -13    1    3    3    0    0  0.56245608857E+03  0.28541386771E+03 -0.29003743886E+03  0.69421872878E+03  0.00000000000E+00 0.  1.
         22    1    1    2    0    0 -0.67109195763E+03 -0.29846444347E+03  0.12843642510E+04  0.14795394448E+04  0.00000000000E+00 0. -1.
<mgrwt>
<rscale>  0 0.20869502E+04</rscale>
<asrwt>0</asrwt>
<pdfrwt beam="1">  1        2 0.24929895E+00 0.20869502E+04</pdfrwt>
<pdfrwt beam="2">  1       -2 0.10337536E+00 0.20869502E+04</pdfrwt>
<totfact> 0.76473336E+00</totfact>
</mgrwt>
</event>
<event>
 6    1  0.5196787E-004  0.1609007E+04  0.7818608E-02  0.8815034E-01
          1   -1    0    0  501    0  0.00000000000E+00  0.00000000000E+00  0.34823082950E+04  0.34823082950E+04  0.00000000000E+00 0.  1.
         -1   -1    0    0    0  501 -0.00000000000E+00 -0.00000000000E+00 -0.18586113630E+03  0.18586113630E+03  0.00000000000E+00 0. -1.
         23    2    1    2    0    0 -0.61525077539E+02 -0.50214381504E+03  0.30721799262E+04  0.31147893289E+04  0.87688758965E+02 0.  0.
         11    1    3    3    0    0 -0.16262853079E+02 -0.11543961246E+03  0.50701916640E+03  0.52024918992E+03  0.00000000000E+00 0. -1.
        -11    1    3    3    0    0 -0.45262224460E+02 -0.38670420258E+03  0.25651607598E+04  0.25945401390E+04  0.00000000000E+00 0.  1.
         22    1    1    2    0    0  0.61525077539E+02  0.50214381504E+03  0.22426723252E+03  0.55338010240E+03  0.00000000000E+00 0. -1.
<mgrwt>
<rscale>  0 0.16090069E+04</rscale>
<asrwt>0</asrwt>
<pdfrwt beam="1">  1        1 0.53573969E+00 0.16090069E+04</pdfrwt>
<pdfrwt beam="2">  1       -1 0.28594024E-01 0.16090069E+04</pdfrwt>
<totfact> 0.27719031E+00</totfact>
</mgrwt>
</event>
<event>
 6    1  0.5196787E-004  0.1523655E+04  0.7818608E-02  0.8868873E-01
         -2   -1    0    0    0  501 -0.00000000000E+00  0.00000000000E+00  0.36899793164E+03  0.36899793164E+03  0.00000000000E+00 0. -1.
          2   -1    0    0  501    0  0.00000000000E+00 -0.00000000000E+00 -0.15728576624E+04  0.15728576624E+04  0.00000000000E+00 0.  1.
         23    2    1    2    0    0 -0.51531625917E+03 -0.34008320746E+02 -0.13131340852E+04  0.14139841159E+04  0.91227963986E+02 0.  0.
         13    1    3    3    0    0 -0.12762567128E+03 -0.35562494536E+02 -0.41813648448E+03  0.43862412455E+03  0.00000000000E+00 0. -1.
        -13    1    3    3    0    0 -0.38769058789E+03  0.15541737905E+01 -0.89499760077E+03  0.97535999138E+03  0.00000000000E+00 0.  1.
         22    1    1    2    0    0  0.51531625917E+03  0.34008320746E+02  0.10927435449E+03  0.52787147811E+03  0.00000000000E+00 0. -1.
<mgrwt>
<rscale>  0 0.15236551E+04</rscale>
<asrwt>0</asrwt>
<pdfrwt beam="1">  1        2 0.24197810E+00 0.15236551E+04</pdfrwt>
<pdfrwt beam="2">  1       -2 0.56768912E-01 0.15236551E+04</pdfrwt>
<totfact> 0.32411421E+01</totfact>
</mgrwt>
</event>
<event>
 6    1  0.5196787E-004  0.5338338E+03  0.7818608E-02  0.1005307E+00
          2   -1    0    0  501    0  0.00000000000E+00  0.00000000000E+00  0.41701227039E+03  0.41701227039E+03  0.00000000000E+00 0.  1.
         -2   -1    0    0    0  501 -0.00000000000E+00 -0.00000000000E+00 -0.17084543993E+03  0.17084543993E+03  0.00000000000E+00 0. -1.
         23    2    1    2    0    0  0.10240505992E+03  0.10331483686E+03 -0.10952301006E+03  0.20357133993E+03  0.91023342584E+02 0.  0.
         11    1    3    3    0    0  0.76237731829E+01  0.44302258842E+02 -0.73674831767E+02  0.86306389636E+02  0.00000000000E+00 0.  1.
        -11    1    3    3    0    0  0.94781286742E+02  0.59012578021E+02 -0.35848178291E+02  0.11726495030E+03  0.00000000000E+00 0. -1.
         22    1    1    2    0    0 -0.10240505992E+03 -0.10331483686E+03  0.35568984052E+03  0.38428637038E+03  0.00000000000E+00 0.  1.
<mgrwt>
<rscale>  0 0.53383385E+03</rscale>
<asrwt>0</asrwt>
<pdfrwt beam="1">  1        2 0.64155733E-01 0.53383385E+03</pdfrwt>
<pdfrwt beam="2">  1       -2 0.26283914E-01 0.53383385E+03</pdfrwt>
<totfact> 0.99501764E+02</totfact>
</mgrwt>
</event>
<event>
 6    1  0.5196787E-004  0.1272073E+04  0.7818608E-02  0.9052010E-01
         -2   -1    0    0    0  501 -0.00000000000E+00  0.00000000000E+00  0.25382591419E+04  0.25382591419E+04  0.00000000000E+00 0. -1.
          2   -1    0    0  501    0  0.00000000000E+00 -0.00000000000E+00 -0.15937788073E+03  0.15937788073E+03  0.00000000000E+00 0.  1.
         23    2    1    2    0    0 -0.24208805810E+03 -0.37343551878E+03  0.21497322367E+04  0.21970673571E+04  0.87724386466E+02 0.  0.
         13    1    3    3    0    0 -0.79180916230E+02 -0.19900993906E+03  0.10800309457E+04  0.11010637661E+04  0.00000000000E+00 0.  1.
        -13    1    3    3    0    0 -0.16290714187E+03 -0.17442557972E+03  0.10697012909E+04  0.10960035910E+04  0.00000000000E+00 0. -1.
         22    1    1    2    0    0  0.24208805810E+03  0.37343551878E+03  0.22914902451E+03  0.50056966547E+03  0.00000000000E+00 0.  1.
<mgrwt>
<rscale>  0 0.12720729E+04</rscale>
<asrwt>0</asrwt>
<pdfrwt beam="1">  1        2 0.24519676E-01 0.12720729E+04</pdfrwt>
<pdfrwt beam="2">  1       -2 0.39050138E+00 0.12720729E+04</pdfrwt>
<totfact> 0.19156019E+00</totfact>
</mgrwt>
</event>
<event>
 6    1  0.5196787E-004  0.3332243E+04  0.7818608E-02  0.8154739E-01
         -2   -1    0    0    0  501 -0.00000000000E+00  0.00000000000E+00  0.77378241837E+03  0.77378241837E+03  0.00000000000E+00 0. -1.
          2   -1    0    0  501    0  0.00000000000E+00 -0.00000000000E+00 -0.35875209626E+04  0.35875209626E+04  0.00000000000E+00 0.  1.
         23    2    1    2    0    0  0.20521531862E+03  0.81031210289E+03 -0.32923747867E+04  0.33980735622E+04  0.91941107898E+02 0.  0.
         11    1    3    3    0    0  0.12810421139E+03  0.64279341449E+03 -0.24955153583E+04  0.25801532835E+04  0.00000000000E+00 0.  1.
        -11    1    3    3    0    0  0.77111107224E+02  0.16751868840E+03 -0.79685942837E+03  0.81792027876E+03  0.00000000000E+00 0. -1.
         22    1    1    2    0    0 -0.20521531862E+03 -0.81031210289E+03  0.47863624246E+03  0.96322981873E+03  0.00000000000E+00 0. -1.
<mgrwt>
<rscale>  0 0.33322429E+04</rscale>
<asrwt>0</asrwt>
<pdfrwt beam="1">  1        2 0.55192632E+00 0.33322429E+04</pdfrwt>
<pdfrwt beam="2">  1       -2 0.11904345E+00 0.33322429E+04</pdfrwt>
<totfact> 0.31751429E-01</totfact>
</mgrwt>
</event>
<event>
 6    1  0.5196787E-004  0.3802139E+04  0.7818608E-02  0.8045696E-01
          2   -1    0    0  501    0  0.00000000000E+00  0.00000000000E+00  0.12656867378E+04  0.12656867378E+04  0.00000000000E+00 0.  1.
         -2   -1    0    0    0  501 -0.00000000000E+00 -0.00000000000E+00 -0.28554191654E+04  0.28554191654E+04  0.00000000000E+00 0. -1.
         23    2    1    2    0    0  0.74699708657E+03 -0.56902935794E+03 -0.25853472515E+04  0.27525124883E+04  0.10249648782E+03 0.  0.
         11    1    3    3    0    0  0.60844806340E+03 -0.46012018519E+03 -0.22074884983E+04  0.23355781085E+04  0.00000000000E+00 0. -1.
        -11    1    3    3    0    0  0.13854902316E+03 -0.10890917275E+03 -0.37785875320E+03  0.41693437985E+03  0.00000000000E+00 0.  1.
         22    1    1    2    0    0 -0.74699708657E+03  0.56902935794E+03  0.99561482397E+03  0.13685934149E+04  0.00000000000E+00 0.  1.
<mgrwt>
<rscale>  0 0.38021395E+04</rscale>
<asrwt>0</asrwt>
<pdfrwt beam="1">  1        2 0.19472104E+00 0.38021395E+04</pdfrwt>
<pdfrwt beam="2">  1       -2 0.43929525E+00 0.38021395E+04</pdfrwt>
<totfact> 0.56683805E-02</totfact>
</mgrwt>
</event>
<event>
 6    1  0.5196787E-004  0.6188224E+03  0.7818608E-02  0.9867107E-01
          1   -1    0    0  501    0  0.00000000000E+00  0.00000000000E+00  0.39815603171E+03  0.39815603171E+03  0.00000000000E+00 0. -1.
         -1   -1    0    0    0  501 -0.00000000000E+00 -0.00000000000E+00 -0.24044664906E+03  0.24044664906E+03  0.00000000000E+00 0.  1.
         23    2    1    2    0    0  0.23584458620E+03  0.18942257243E+03  0.93646103407E+02  0.32939775918E+03  0.90717756154E+02 0.  0.
         11    1    3    3    0    0  0.14308769949E+02  0.54556420757E+02  0.18873777541E+02  0.59475738095E+02  0.00000000000E+00 0. -1.
        -11    1    3    3    0    0  0.22153581626E+03  0.13486615167E+03  0.74772325866E+02  0.26992202108E+03  0.00000000000E+00 0.  1.
         22    1    1    2    0    0 -0.23584458620E+03 -0.18942257243E+03  0.64063279248E+02  0.30920492159E+03  0.00000000000E+00 0. -1.
<mgrwt>
<rscale>  0 0.61882238E+03</rscale>
<asrwt>0</asrwt>
<pdfrwt beam="1">  1        1 0.61254774E-01 0.61882238E+03</pdfrwt>
<pdfrwt beam="2">  1       -1 0.36991792E-01 0.61882238E+03</pdfrwt>
<totfact> 0.42900928E+02</totfact>
</mgrwt>
</event>
<event>
 6    1  0.5196787E-004  0.2685264E+04  0.7818608E-02  0.8339802E-01
          2   -1    0    0  501    0  0.00000000000E+00  0.00000000000E+00  0.13311675849E+04  0.13311675849E+04  0.00000000000E+00 0.  1.
         -2   -1    0    0    0  501 -0.00000000000E+00 -0.00000000000E+00 -0.13541955821E+04  0.13541955821E+04  0.00000000000E+00 0. -1.
         23    2    1    2    0    0 -0.12323556051E+04  0.19958411171E+03 -0.50172605984E+03  0.13483194168E+04  0.87761355671E+02 0.  0.
         11    1    3    3    0    0 -0.30914130137E+03  0.84453703968E+02 -0.10957677218E+03  0.33868546076E+03  0.00000000000E+00 0.  1.
        -11    1    3    3    0    0 -0.92321430369E+03  0.11513040774E+03 -0.39214928766E+03  0.10096339560E+04  0.00000000000E+00 0. -1.
         22    1    1    2    0    0  0.12323556051E+04 -0.19958411171E+03  0.47869806261E+03  0.13370437503E+04  0.00000000000E+00 0. -1.
<mgrwt>
<rscale>  0 0.26852644E+04</rscale>
<asrwt>0</asrwt>
<pdfrwt beam="1">  1        2 0.20479502E+00 0.26852644E+04</pdfrwt>
<pdfrwt beam="2">  1       -2 0.20833778E+00 0.26852644E+04</pdfrwt>
<totfact> 0.16346117E+00</totfact>
</mgrwt>
</event>
<event>
 6    1  0.5196787E-004  0.3288202E+04  0.7818608E-02  0.8165904E-01
          2   -1    0    0  501    0  0.00000000000E+00  0.00000000000E+00  0.67525905885E+03  0.67525905885E+03  0.00000000000E+00 0.  1.
         -2   -1    0    0    0  501 -0.00000000000E+00 -0.00000000000E+00 -0.40030081947E+04  0.40030081947E+04  0.00000000000E+00 0. -1.
         23    2    1    2    0    0 -0.12661240029E+04  0.93264752386E+03 -0.98842794611E+03  0.18595219612E+04  0.89054617929E+02 0.  0.
         11    1    3    3    0    0 -0.99045064456E+03  0.76275477190E+03 -0.81314301796E+03  0.14913044253E+04  0.00000000000E+00 0.  1.
        -11    1    3    3    0    0 -0.27567335834E+03  0.16989275196E+03 -0.17528492816E+03  0.36821753585E+03  0.00000000000E+00 0. -1.
         22    1    1    2    0    0  0.12661240029E+04 -0.93264752386E+03 -0.23393211897E+04  0.28187452924E+04  0.00000000000E+00 0.  1.
<mgrwt>
<rscale>  0 0.32882017E+04</rscale>
<asrwt>0</asrwt>
<pdfrwt beam="1">  1        2 0.10388601E+00 0.32882017E+04</pdfrwt>
<pdfrwt beam="2">  1       -2 0.61584741E+00 0.32882017E+04</pdfrwt>
<totfact> 0.15684028E-02</totfact>
</mgrwt>
</event>
<event>
 6    1  0.5196787E-004  0.1604283E+04  0.7818608E-02  0.8817921E-01
         -2   -1    0    0    0  501 -0.00000000000E+00  0.00000000000E+00  0.64983772118E+03  0.64983772118E+03  0.00000000000E+00 0. -1.
          2   -1    0    0  501    0  0.00000000000E+00 -0.00000000000E+00 -0.99014084318E+03  0.99014084318E+03  0.00000000000E+00 0.  1.
         23    2    1    2    0    0 -0.20389962270E+03  0.18860971965E+03 -0.93712826376E+03  0.98168612759E+03  0.91376079356E+02 0.  0.
         11    1    3    3    0    0 -0.12919124334E+03  0.76904850478E+02 -0.38197534960E+03  0.41049957501E+03  0.00000000000E+00 0.  1.
        -11    1    3    3    0    0 -0.74708379355E+02  0.11170486917E+03 -0.55515291416E+03  0.57118655258E+03  0.00000000000E+00 0. -1.
         22    1    1    2    0    0  0.20389962270E+03 -0.18860971965E+03  0.59682514176E+03  0.65829243677E+03  0.00000000000E+00 0. -1.
<mgrwt>
<rscale>  0 0.16042829E+04</rscale>
<asrwt>0</asrwt>
<pdfrwt beam="1">  1        2 0.15232936E+00 0.16042829E+04</pdfrwt>
<pdfrwt beam="2">  1       -2 0.99975034E-01 0.16042829E+04</pdfrwt>
<totfact> 0.20255222E+01</totfact>
</mgrwt>
</event>
<event>
 6    1  0.5196787E-004  0.4470501E+04  0.7818608E-02  0.7915822E-01
         -2   -1    0    0    0  501 -0.00000000000E+00  0.00000000000E+00  0.27640659501E+04  0.27640659501E+04  0.00000000000E+00 0. -1.
          2   -1    0    0  501    0  0.00000000000E+00 -0.00000000000E+00 -0.18076066368E+04  0.18076066368E+04  0.00000000000E+00 0.  1.
         23    2    1    2    0    0  0.29143818361E+03  0.14683108079E+04 -0.12178165830E+04  0.19319096209E+04  0.91239847497E+02 0.  0.
         11    1    3    3    0    0  0.12293090179E+03  0.47076342228E+03 -0.43642024776E+03  0.65359990745E+03  0.00000000000E+00 0.  1.
        -11    1    3    3    0    0  0.16850728183E+03  0.99754738567E+03 -0.78139633526E+03  0.12783097134E+04  0.00000000000E+00 0. -1.
         22    1    1    2    0    0 -0.29143818361E+03 -0.14683108079E+04  0.21742758963E+04  0.26397629660E+04  0.00000000000E+00 0. -1.
<mgrwt>
<rscale>  0 0.44705006E+04</rscale>
<asrwt>0</asrwt>
<pdfrwt beam="1">  1        2 0.27809333E+00 0.44705006E+04</pdfrwt>
<pdfrwt beam="2">  1       -2 0.42524091E+00 0.44705006E+04</pdfrwt>
<totfact> 0.32873577E-02</totfact>
</mgrwt>
</event>
<event>
 6    1  0.5196787E-004  0.2817597E+04  0.7818608E-02  0.8297826E-01
         -2   -1    0    0    0  501 -0.00000000000E+00  0.00000000000E+00  0.15410714778E+04  0.15410714778E+04  0.00000000000E+00 0. -1.
          2   -1    0    0  501    0  0.00000000000E+00 -0.00000000000E+00 -0.12878783197E+04  0.12878783197E+04  0.00000000000E+00 0.  1.
         23    2    1    2    0    0 -0.44383287137E+03  0.49267062210E+03 -0.11197368168E+04  0.13042699375E+04  0.87164049881E+02 0.  0.
         11    1    3    3    0    0 -0.24214418981E+03  0.20685299644E+03 -0.50773113559E+03  0.59934370510E+03  0.00000000000E+00 0. -1.
        -11    1    3    3    0    0 -0.20168868155E+03  0.28581762566E+03 -0.61200568117E+03  0.70492623245E+03  0.00000000000E+00 0.  1.
         22    1    1    2    0    0  0.44383287137E+03 -0.49267062210E+03  0.13729299748E+04  0.15246798600E+04  0.00000000000E+00 0. -1.
<mgrwt>
<rscale>  0 0.28175965E+04</rscale>
<asrwt>0</asrwt>
<pdfrwt beam="1">  1        2 0.19813513E+00 0.28175965E+04</pdfrwt>
<pdfrwt beam="2">  1       -2 0.23708792E+00 0.28175965E+04</pdfrwt>
<totfact> 0.11275003E+00</totfact>
</mgrwt>
</event>
<event>
 6    1  0.5196787E-004  0.3433451E+04  0.7818608E-02  0.8129745E-01
         -2   -1    0    0    0  501 -0.00000000000E+00  0.00000000000E+00  0.87352906437E+03  0.87352906437E+03  0.00000000000E+00 0. -1.
          2   -1    0    0  501    0  0.00000000000E+00 -0.00000000000E+00 -0.33738388930E+04  0.33738388930E+04  0.00000000000E+00 0.  1.
         23    2    1    2    0    0 -0.35862891826E+03  0.14406737769E+04 -0.23143387157E+04  0.27511257019E+04  0.91505761683E+02 0.  0.
         11    1    3    3    0    0 -0.27585173237E+02  0.17265615916E+03 -0.22780672572E+03  0.28717067288E+03  0.00000000000E+00 0.  1.
        -11    1    3    3    0    0 -0.33104374502E+03  0.12680176177E+04 -0.20865319899E+04  0.24639550290E+04  0.00000000000E+00 0. -1.
         22    1    1    2    0    0  0.35862891826E+03 -0.14406737769E+04 -0.18597111299E+03  0.14962422555E+04  0.00000000000E+00 0. -1.
<mgrwt>
<rscale>  0 0.34334509E+04</rscale>
<asrwt>0</asrwt>
<pdfrwt beam="1">  1        2 0.51905214E+00 0.34334509E+04</pdfrwt>
<pdfrwt beam="2">  1       -2 0.13438909E+00 0.34334509E+04</pdfrwt>
<totfact> 0.32711385E-01</totfact>
</mgrwt>
</event>
<event>
 6    1  0.5196787E-004  0.1445024E+04  0.7818608E-02  0.8921857E-01
         -2   -1    0    0    0  501 -0.00000000000E+00  0.00000000000E+00  0.27353739206E+03  0.27353739206E+03  0.00000000000E+00 0. -1.
          2   -1    0    0  501    0  0.00000000000E+00 -0.00000000000E+00 -0.19084184549E+04  0.19084184549E+04  0.00000000000E+00 0.  1.
         23    2    1    2    0    0  0.64402421837E+03 -0.29551404944E+03 -0.10100154601E+04  0.12372057378E+04  0.91929651216E+02 0.  0.
         13    1    3    3    0    0  0.41317966110E+03 -0.19154840379E+03 -0.57049173294E+03  0.72997879469E+03  0.00000000000E+00 0. -1.
        -13    1    3    3    0    0  0.23084455727E+03 -0.10396564565E+03 -0.43952372714E+03  0.50722694311E+03  0.00000000000E+00 0.  1.
         22    1    1    2    0    0 -0.64402421837E+03  0.29551404944E+03 -0.62486560281E+03  0.94475010920E+03  0.00000000000E+00 0.  1.
<mgrwt>
<rscale>  0 0.14450243E+04</rscale>
<asrwt>0</asrwt>
<pdfrwt beam="1">  1        2 0.29360284E+00 0.14450243E+04</pdfrwt>
<pdfrwt beam="2">  1       -2 0.42082676E-01 0.14450243E+04</pdfrwt>
<totfact> 0.39010734E+01</totfact>
</mgrwt>
</event>
<event>
 6    1  0.5196787E-004  0.1330864E+04  0.7818608E-02  0.9005442E-01
         -2   -1    0    0    0  501 -0.00000000000E+00  0.00000000000E+00  0.51842014895E+03  0.51842014895E+03  0.00000000000E+00 0. -1.
          2   -1    0    0  501    0  0.00000000000E+00 -0.00000000000E+00 -0.85413240584E+03  0.85413240584E+03  0.00000000000E+00 0.  1.
         23    2    1    2    0    0 -0.58786890496E+03 -0.13174740123E+03  0.11519726030E+03  0.62004566456E+03  0.90768883477E+02 0.  0.
         11    1    3    3    0    0 -0.32912606576E+03 -0.11640847472E+03  0.83180316803E+02  0.35887862190E+03  0.00000000000E+00 0. -1.
        -11    1    3    3    0    0 -0.25874283920E+03 -0.15338926514E+02  0.32016943500E+02  0.26116704266E+03  0.00000000000E+00 0.  1.
         22    1    1    2    0    0  0.58786890496E+03  0.13174740123E+03 -0.45090951719E+03  0.75250689023E+03  0.00000000000E+00 0.  1.
<mgrwt>
<rscale>  0 0.13308636E+04</rscale>
<asrwt>0</asrwt>
<pdfrwt beam="1">  1        2 0.13140498E+00 0.13308636E+04</pdfrwt>
<pdfrwt beam="2">  1       -2 0.79756948E-01 0.13308636E+04</pdfrwt>
<totfact> 0.42935834E+01</totfact>
</mgrwt>
</event>
<event>
 6    1  0.5196787E-004  0.2649585E+04  0.7818608E-02  0.8351551E-01
         -2   -1    0    0    0  501 -0.00000000000E+00  0.00000000000E+00  0.14749855441E+04  0.14749855441E+04  0.00000000000E+00 0. -1.
          2   -1    0    0  501    0  0.00000000000E+00 -0.00000000000E+00 -0.11898928836E+04  0.11898928836E+04  0.00000000000E+00 0.  1.
         23    2    1    2    0    0  0.70181400646E+03  0.11152918560E+04  0.22634253859E+02  0.13212626943E+04  0.93829495355E+02 0.  0.
         13    1    3    3    0    0  0.43630241478E+03  0.76948583049E+03  0.32538623070E+02  0.88517060641E+03  0.00000000000E+00 0.  1.
        -13    1    3    3    0    0  0.26551159168E+03  0.34580602554E+03 -0.99043692106E+01  0.43609208792E+03  0.00000000000E+00 0. -1.
         22    1    1    2    0    0 -0.70181400646E+03 -0.11152918560E+04  0.26245840659E+03  0.13436157334E+04  0.00000000000E+00 0. -1.
<mgrwt>
<rscale>  0 0.26495847E+04</rscale>
<asrwt>0</asrwt>
<pdfrwt beam="1">  1        2 0.18306044E+00 0.26495847E+04</pdfrwt>
<pdfrwt beam="2">  1       -2 0.22692085E+00 0.26495847E+04</pdfrwt>
<totfact> 0.15123612E+00</totfact>
</mgrwt>
</event>
<event>
 6    1  0.5196787E-004  0.4037732E+04  0.7818608E-02  0.7996978E-01
          2   -1    0    0  501    0  0.00000000000E+00  0.00000000000E+00  0.26891671817E+04  0.26891671817E+04  0.00000000000E+00 0.  1.
         -2   -1    0    0    0  501 -0.00000000000E+00 -0.00000000000E+00 -0.15156436080E+04  0.15156436080E+04  0.00000000000E+00 0. -1.
         23    2    1    2    0    0  0.84654354590E+03  0.24295485369E+03  0.24777055230E+04  0.26311038307E+04  0.89552625941E+02 0.  0.
         13    1    3    3    0    0  0.42168356021E+03  0.89530381235E+02  0.13080794338E+04  0.13772815686E+04  0.00000000000E+00 0. -1.
        -13    1    3    3    0    0  0.42485998569E+03  0.15342447245E+03  0.11696260893E+04  0.12538222621E+04  0.00000000000E+00 0.  1.
         22    1    1    2    0    0 -0.84654354590E+03 -0.24295485369E+03 -0.13041819493E+04  0.15737069590E+04  0.00000000000E+00 0. -1.
<mgrwt>
<rscale>  0 0.40377316E+04</rscale>
<asrwt>0</asrwt>
<pdfrwt beam="1">  1        2 0.41371803E+00 0.40377316E+04</pdfrwt>
<pdfrwt beam="2">  1       -2 0.23317594E+00 0.40377316E+04</pdfrwt>
<totfact> 0.17311454E-01</totfact>
</mgrwt>
</event>
<event>
 6    1  0.5196787E-004  0.1197945E+04  0.7818608E-02  0.9114657E-01
         -2   -1    0    0    0  501 -0.00000000000E+00  0.00000000000E+00  0.56898604281E+03  0.56898604281E+03  0.00000000000E+00 0. -1.
          2   -1    0    0  501    0  0.00000000000E+00 -0.00000000000E+00 -0.63053917756E+03  0.63053917756E+03  0.00000000000E+00 0.  1.
         23    2    1    2    0    0  0.17273691100E+03 -0.52373835797E+03 -0.25542283886E+03  0.61495241037E+03  0.93732237698E+02 0.  0.
         11    1    3    3    0    0  0.71596374289E+02 -0.95733350306E+02 -0.58303530990E+02  0.13300457473E+03  0.00000000000E+00 0. -1.
        -11    1    3    3    0    0  0.10114053671E+03 -0.42800500766E+03 -0.19711930787E+03  0.48194783564E+03  0.00000000000E+00 0.  1.
         22    1    1    2    0    0 -0.17273691100E+03  0.52373835797E+03  0.19386970410E+03  0.58457281000E+03  0.00000000000E+00 0. -1.
<mgrwt>
<rscale>  0 0.11979449E+04</rscale>
<asrwt>0</asrwt>
<pdfrwt beam="1">  1        2 0.97006027E-01 0.11979449E+04</pdfrwt>
<pdfrwt beam="2">  1       -2 0.87536314E-01 0.11979449E+04</pdfrwt>
<totfact> 0.51922112E+01</totfact>
</mgrwt>
</event>
<event>
 6    1  0.5196787E-004  0.8494535E+03  0.7818608E-02  0.9491071E-01
          2   -1    0    0  501    0  0.00000000000E+00  0.00000000000E+00  0.10307619740E+04  0.10307619740E+04  0.00000000000E+00 0.  1.
         -2   -1    0    0    0  501 -0.00000000000E+00 -0.00000000000E+00 -0.17500916471E+03  0.17500916471E+03  0.00000000000E+00 0. -1.
         23    2    1    2    0    0  0.24908989337E+03  0.23353039699E+03  0.86392999745E+02  0.36404865603E+03  0.92116514534E+02 0.  0.
         11    1    3    3    0    0  0.96581876016E+02  0.62114812243E+02 -0.98261588625E+01  0.11525129966E+03  0.00000000000E+00 0.  1.
        -11    1    3    3    0    0  0.15250801736E+03  0.17141558475E+03  0.96219158607E+02  0.24879735637E+03  0.00000000000E+00 0. -1.
         22    1    1    2    0    0 -0.24908989337E+03 -0.23353039699E+03  0.76935980959E+03  0.84172248271E+03  0.00000000000E+00 0.  1.
<mgrwt>
<rscale>  0 0.84945345E+03</rscale>
<asrwt>0</asrwt>
<pdfrwt beam="1">  1        2 0.15857876E+00 0.84945345E+03</pdfrwt>
<pdfrwt beam="2">  1       -2 0.26924487E-01 0.84945345E+03</pdfrwt>
<totfact> 0.30241320E+02</totfact>
</mgrwt>
</event>
<event>
 6    1  0.5196787E-004  0.3452746E+04  0.7818608E-02  0.8125081E-01
          2   -1    0    0  501    0  0.00000000000E+00  0.00000000000E+00  0.28476624804E+04  0.28476624804E+04  0.00000000000E+00 0. -1.
         -2   -1    0    0    0  501 -0.00000000000E+00 -0.00000000000E+00 -0.10465999326E+04  0.10465999326E+04  0.00000000000E+00 0.  1.
         23    2    1    2    0    0 -0.76351749509E+03 -0.15293903089E+04  0.63892275928E+03  0.18272446167E+04  0.92773459669E+02 0.  0.
         11    1    3    3    0    0 -0.27014530952E+03 -0.44600241325E+03  0.19901903057E+03  0.55812652277E+03  0.00000000000E+00 0. -1.
        -11    1    3    3    0    0 -0.49337218557E+03 -0.10833878956E+04  0.43990372871E+03  0.12691180940E+04  0.00000000000E+00 0.  1.
         22    1    1    2    0    0  0.76351749509E+03  0.15293903089E+04  0.11621397885E+04  0.20670177963E+04  0.00000000000E+00 0. -1.
<mgrwt>
<rscale>  0 0.34527458E+04</rscale>
<asrwt>0</asrwt>
<pdfrwt beam="1">  1        2 0.43810192E+00 0.34527458E+04</pdfrwt>
<pdfrwt beam="2">  1       -2 0.16101538E+00 0.34527458E+04</pdfrwt>
<totfact> 0.44154876E-01</totfact>
</mgrwt>
</event>
<event>
 6    1  0.5196787E-004  0.2427934E+04  0.7818608E-02  0.8429119E-01
          2   -1    0    0  501    0  0.00000000000E+00  0.00000000000E+00  0.85285914450E+03  0.85285914450E+03  0.00000000000E+00 0.  1.
         -2   -1    0    0    0  501 -0.00000000000E+00 -0.00000000000E+00 -0.17279705804E+04  0.17279705804E+04  0.00000000000E+00 0. -1.
         23    2    1    2    0    0 -0.48393412846E+03 -0.91596808478E+03 -0.11074022816E+04  0.15191570776E+04  0.91151741860E+02 0.  0.
         13    1    3    3    0    0 -0.36810954763E+03 -0.60902874414E+03 -0.74229835666E+03  0.10283129390E+04  0.00000000000E+00 0.  1.
        -13    1    3    3    0    0 -0.11582458083E+03 -0.30693934064E+03 -0.36510392496E+03  0.49084413858E+03  0.00000000000E+00 0. -1.
         22    1    1    2    0    0  0.48393412846E+03  0.91596808478E+03  0.23229084573E+03  0.10616726473E+04  0.00000000000E+00 0.  1.
<mgrwt>
<rscale>  0 0.24279337E+04</rscale>
<asrwt>0</asrwt>
<pdfrwt beam="1">  1        2 0.13120910E+00 0.24279337E+04</pdfrwt>
<pdfrwt beam="2">  1       -2 0.26584163E+00 0.24279337E+04</pdfrwt>
<totfact> 0.14564820E+00</totfact>
</mgrwt>
</event>
<event>
 6    1  0.6568628E-004  0.2820604E+04  0.7818608E-02  0.8296900E-01
          2   -1    0    0  501    0  0.00000000000E+00  0.00000000000E+00  0.27303539303E+04  0.27303539303E+04  0.00000000000E+00 0.  1.
         -2   -1    0    0    0  501 -0.00000000000E+00 -0.00000000000E+00 -0.72845912154E+03  0.72845912154E+03  0.00000000000E+00 0. -1.
         23    2    1    2    0    0  0.29629879550E+03  0.10956610550E+04  0.20254933530E+04  0.23235496397E+04  0.89406273483E+02 0.  0.
         11    1    3    3    0    0  0.13761293964E+03  0.50984234385E+03  0.85182014320E+03  0.10022345499E+04  0.00000000000E+00 0.  1.
        -11    1    3    3    0    0  0.15868585586E+03  0.58581871113E+03  0.11736732098E+04  0.13213150898E+04  0.00000000000E+00 0. -1.
         22    1    1    2    0    0 -0.29629879550E+03 -0.10956610550E+04 -0.23598544203E+02  0.11352634121E+04  0.00000000000E+00 0. -1.
<mgrwt>
<rscale>  0 0.28206036E+04</rscale>
<asrwt>0</asrwt>
<pdfrwt beam="1">  1        2 0.42005445E+00 0.28206036E+04</pdfrwt>
<pdfrwt beam="2">  1       -2 0.11207063E+00 0.28206036E+04</pdfrwt>
<totfact> 0.13887759E+00</totfact>
</mgrwt>
</event>
<event>
 6    1  0.5196787E-004  0.2707721E+04  0.7818608E-02  0.8332504E-01
         -2   -1    0    0    0  501 -0.00000000000E+00  0.00000000000E+00  0.50648774496E+03  0.50648774496E+03  0.00000000000E+00 0. -1.
          2   -1    0    0  501    0  0.00000000000E+00 -0.00000000000E+00 -0.36189180600E+04  0.36189180600E+04  0.00000000000E+00 0.  1.
         23    2    1    2    0    0  0.36204744625E+03  0.74489313844E+03  0.70056450327E+02  0.83691585473E+03  0.97857552781E+02 0.  0.
         11    1    3    3    0    0  0.29452481863E+03  0.51575232542E+03  0.69990220516E+02  0.59803341122E+03  0.00000000000E+00 0. -1.
        -11    1    3    3    0    0  0.67522627620E+02  0.22914081302E+03  0.66229811678E-01  0.23888244351E+03  0.00000000000E+00 0.  1.
         22    1    1    2    0    0 -0.36204744625E+03 -0.74489313844E+03 -0.31824867654E+04  0.32884899502E+04  0.00000000000E+00 0.  1.
<mgrwt>
<rscale>  0 0.27077206E+04</rscale>
<asrwt>0</asrwt>
<pdfrwt beam="1">  1        2 0.55675664E+00 0.27077206E+04</pdfrwt>
<pdfrwt beam="2">  1       -2 0.77921190E-01 0.27077206E+04</pdfrwt>
<totfact> 0.86054064E-01</totfact>
</mgrwt>
</event>
<event>
 6    1  0.5196787E-004  0.1421996E+04  0.7818608E-02  0.8938049E-01
          1   -1    0    0  501    0  0.00000000000E+00  0.00000000000E+00  0.48846815622E+03  0.48846815622E+03  0.00000000000E+00 0. -1.
         -1   -1    0    0    0  501 -0.00000000000E+00 -0.00000000000E+00 -0.10349045585E+04  0.10349045585E+04  0.00000000000E+00 0.  1.
         23    2    1    2    0    0 -0.42745648558E+03  0.20792176472E+03  0.28835599095E+03  0.56273290339E+03  0.86997906498E+02 0.  0.
         13    1    3    3    0    0 -0.35049570483E+03  0.13754561726E+03  0.24828961845E+03  0.45101415783E+03  0.00000000000E+00 0. -1.
        -13    1    3    3    0    0 -0.76960780752E+02  0.70376147461E+02  0.40066372498E+02  0.11171874556E+03  0.00000000000E+00 0.  1.
         22    1    1    2    0    0  0.42745648558E+03 -0.20792176472E+03 -0.83479239322E+03  0.96063981132E+03  0.00000000000E+00 0.  1.
<mgrwt>
<rscale>  0 0.14219957E+04</rscale>
<asrwt>0</asrwt>
<pdfrwt beam="1">  1        1 0.75148949E-01 0.14219957E+04</pdfrwt>
<pdfrwt beam="2">  1       -1 0.15921608E+00 0.14219957E+04</pdfrwt>
<totfact> 0.13200282E+01</totfact>
</mgrwt>
</event>
<event>
 6    1  0.5196787E-004  0.4740976E+04  0.7818608E-02  0.7869756E-01
         -2   -1    0    0    0  501 -0.00000000000E+00  0.00000000000E+00  0.19826079846E+04  0.19826079846E+04  0.00000000000E+00 0. -1.
          2   -1    0    0  501    0  0.00000000000E+00 -0.00000000000E+00 -0.28342531244E+04  0.28342531244E+04  0.00000000000E+00 0.  1.
         23    2    1    2    0    0  0.12053670117E+04 -0.20183124076E+04 -0.72749500931E+03  0.24627353981E+04  0.96550737814E+02 0.  0.
         13    1    3    3    0    0  0.85813037092E+03 -0.14716840506E+04 -0.48578149617E+03  0.17715036947E+04  0.00000000000E+00 0.  1.
        -13    1    3    3    0    0  0.34723664079E+03 -0.54662835700E+03 -0.24171351314E+03  0.69123170343E+03  0.00000000000E+00 0. -1.
         22    1    1    2    0    0 -0.12053670117E+04  0.20183124076E+04 -0.12415013053E+03  0.23541257109E+04  0.00000000000E+00 0. -1.
<mgrwt>
<rscale>  0 0.47409758E+04</rscale>
<asrwt>0</asrwt>
<pdfrwt beam="1">  1        2 0.43603894E+00 0.47409758E+04</pdfrwt>
<pdfrwt beam="2">  1       -2 0.30501662E+00 0.47409758E+04</pdfrwt>
<totfact> 0.48492737E-02</totfact>
</mgrwt>
</event>
<event>
 6    1  0.5196787E-004  0.4008152E+04  0.7818608E-02  0.8002904E-01
          2   -1    0    0  501    0  0.00000000000E+00  0.00000000000E+00  0.18563225990E+04  0.18563225990E+04  0.00000000000E+00 0.  1.
         -2   -1    0    0    0  501 -0.00000000000E+00 -0.00000000000E+00 -0.21635903098E+04  0.21635903098E+04  0.00000000000E+00 0. -1.
         23    2    1    2    0    0  0.18503455919E+04  0.68010174355E+02  0.61255551207E+03  0.19524316018E+04  0.91436923809E+02 0.  0.
         11    1    3    3    0    0  0.15493998946E+04  0.38285013511E+02  0.48250031114E+03  0.16232413024E+04  0.00000000000E+00 0. -1.
        -11    1    3    3    0    0  0.30094569733E+03  0.29725160844E+02  0.13005520093E+03  0.32919029939E+03  0.00000000000E+00 0.  1.
         22    1    1    2    0    0 -0.18503455919E+04 -0.68010174355E+02 -0.91982322281E+03  0.20674813070E+04  0.00000000000E+00 0. -1.
<mgrwt>
<rscale>  0 0.40081525E+04</rscale>
<asrwt>0</asrwt>
<pdfrwt beam="1">  1        2 0.28558809E+00 0.40081525E+04</pdfrwt>
<pdfrwt beam="2">  1       -2 0.33286005E+00 0.40081525E+04</pdfrwt>
<totfact> 0.12611004E-01</totfact>
</mgrwt>
</event>
<event>
 6    1  0.5196787E-004  0.2524100E+04  0.7818608E-02  0.8394450E-01
          2   -1    0    0  501    0  0.00000000000E+00  0.00000000000E+00  0.12379777585E+04  0.12379777585E+04  0.00000000000E+00 0.  1.
         -2   -1    0    0    0  501 -0.00000000000E+00 -0.00000000000E+00 -0.12865906012E+04  0.12865906012E+04  0.00000000000E+00 0. -1.
         23    2    1    2    0    0 -0.60701813193E+02 -0.10971746246E+04 -0.64218202961E+03  0.12756483275E+04  0.86046670072E+02 0.  0.
         11    1    3    3    0    0 -0.31608472131E+02 -0.78030663060E+03 -0.49868912102E+03  0.92658964633E+03  0.00000000000E+00 0. -1.
        -11    1    3    3    0    0 -0.29093341062E+02 -0.31686799400E+03 -0.14349290859E+03  0.34905868121E+03  0.00000000000E+00 0.  1.
         22    1    1    2    0    0  0.60701813193E+02  0.10971746246E+04  0.59356918695E+03  0.12489200321E+04  0.00000000000E+00 0.  1.
<mgrwt>
<rscale>  0 0.25241003E+04</rscale>
<asrwt>0</asrwt>
<pdfrwt beam="1">  1        2 0.19045812E+00 0.25241003E+04</pdfrwt>
<pdfrwt beam="2">  1       -2 0.19793701E+00 0.25241003E+04</pdfrwt>
<totfact> 0.21961968E+00</totfact>
</mgrwt>
</event>
<event>
 6    1  0.5196787E-004  0.3813943E+04  0.7818608E-02  0.8043169E-01
         -2   -1    0    0    0  501 -0.00000000000E+00  0.00000000000E+00  0.19658028750E+04  0.19658028750E+04  0.00000000000E+00 0. -1.
          2   -1    0    0  501    0  0.00000000000E+00 -0.00000000000E+00 -0.18499011175E+04  0.18499011175E+04  0.00000000000E+00 0.  1.
         23    2    1    2    0    0 -0.20993728932E+03  0.17165953074E+04  0.85939832078E+03  0.19332693311E+04  0.90508109298E+02 0.  0.
         11    1    3    3    0    0 -0.16458195119E+03  0.11781954439E+04  0.63160796553E+03  0.13469076972E+04  0.00000000000E+00 0. -1.
        -11    1    3    3    0    0 -0.45355338131E+02  0.53839986349E+03  0.22779035524E+03  0.58636163385E+03  0.00000000000E+00 0.  1.
         22    1    1    2    0    0  0.20993728932E+03 -0.17165953074E+04 -0.74349656333E+03  0.18824346614E+04  0.00000000000E+00 0. -1.
<mgrwt>
<rscale>  0 0.38139433E+04</rscale>
<asrwt>0</asrwt>
<pdfrwt beam="1">  1        2 0.28460017E+00 0.38139433E+04</pdfrwt>
<pdfrwt beam="2">  1       -2 0.30243121E+00 0.38139433E+04</pdfrwt>
<totfact> 0.19912547E-01</totfact>
</mgrwt>
</event>
<event>
 6    1  0.5196787E-004  0.2074051E+04  0.7818608E-02  0.8572761E-01
          2   -1    0    0  501    0  0.00000000000E+00  0.00000000000E+00  0.65279859190E+03  0.65279859190E+03  0.00000000000E+00 0.  1.
         -2   -1    0    0    0  501 -0.00000000000E+00 -0.00000000000E+00 -0.16474017032E+04  0.16474017032E+04  0.00000000000E+00 0. -1.
         23    2    1    2    0    0 -0.15121901448E+03 -0.95110265173E+03 -0.91871416603E+03  0.13341658358E+04  0.92191724635E+02 0.  0.
         13    1    3    3    0    0 -0.13564474746E+03 -0.60105199084E+03 -0.61288872923E+03  0.86907743477E+03  0.00000000000E+00 0.  1.
        -13    1    3    3    0    0 -0.15574267018E+02 -0.35005066089E+03 -0.30582543680E+03  0.46508840104E+03  0.00000000000E+00 0. -1.
         22    1    1    2    0    0  0.15121901448E+03  0.95110265173E+03 -0.75888945246E+02  0.96603445926E+03  0.00000000000E+00 0.  1.
<mgrwt>
<rscale>  0 0.20740506E+04</rscale>
<asrwt>0</asrwt>
<pdfrwt beam="1">  1        2 0.10043055E+00 0.20740506E+04</pdfrwt>
<pdfrwt beam="2">  1       -2 0.25344642E+00 0.20740506E+04</pdfrwt>
<totfact> 0.25273671E+00</totfact>
</mgrwt>
</event>
<event>
 6    1  0.5196787E-004  0.3898368E+04  0.7818608E-02  0.8025369E-01
         -2   -1    0    0    0  501 -0.00000000000E+00  0.00000000000E+00  0.25816772381E+04  0.25816772381E+04  0.00000000000E+00 0. -1.
          2   -1    0    0  501    0  0.00000000000E+00 -0.00000000000E+00 -0.14716469780E+04  0.14716469780E+04  0.00000000000E+00 0.  1.
         23    2    1    2    0    0 -0.73337417043E+03 -0.10757495639E+04  0.20620298493E+04  0.24404454185E+04  0.93444869693E+02 0.  0.
         11    1    3    3    0    0 -0.56480464642E+03 -0.86990613447E+03  0.15838260349E+04  0.18932104690E+04  0.00000000000E+00 0. -1.
        -11    1    3    3    0    0 -0.16856952401E+03 -0.20584342938E+03  0.47820381440E+03  0.54723494950E+03  0.00000000000E+00 0.  1.
         22    1    1    2    0    0  0.73337417043E+03  0.10757495639E+04 -0.95199958916E+03  0.16128787976E+04  0.00000000000E+00 0.  1.
<mgrwt>
<rscale>  0 0.38983676E+04</rscale>
<asrwt>0</asrwt>
<pdfrwt beam="1">  1        2 0.22640723E+00 0.38983676E+04</pdfrwt>
<pdfrwt beam="2">  1       -2 0.39718111E+00 0.38983676E+04</pdfrwt>
<totfact> 0.81085097E-02</totfact>
</mgrwt>
</event>
<event>
 6    1  0.5196787E-004  0.3380394E+04  0.7818608E-02  0.8142735E-01
          2   -1    0    0  501    0  0.00000000000E+00  0.00000000000E+00  0.35293696346E+04  0.35293696346E+04  0.00000000000E+00 0.  1.
         -2   -1    0    0    0  501 -0.00000000000E+00 -0.00000000000E+00 -0.80942652681E+03  0.80942652681E+03  0.00000000000E+00 0. -1.
         23    2    1    2    0    0  0.30777757648E+03 -0.10787428270E+04  0.29816172428E+04  0.31868905766E+04  0.88414034621E+02 0.  0.
         11    1    3    3    0    0 -0.87619116858E-01 -0.23971673581E+02  0.10155498598E+03  0.10434588631E+03  0.00000000000E+00 0. -1.
        -11    1    3    3    0    0  0.30786519559E+03 -0.10547711534E+04  0.28800622568E+04  0.30825446903E+04  0.00000000000E+00 0.  1.
         22    1    1    2    0    0 -0.30777757648E+03  0.10787428270E+04 -0.26167413498E+03  0.11519055848E+04  0.00000000000E+00 0. -1.
<mgrwt>
<rscale>  0 0.33803937E+04</rscale>
<asrwt>0</asrwt>
<pdfrwt beam="1">  1        2 0.54297994E+00 0.33803937E+04</pdfrwt>
<pdfrwt beam="2">  1       -2 0.12452716E+00 0.33803937E+04</pdfrwt>
<totfact> 0.31088901E-01</totfact>
</mgrwt>
</event>
<event>
 6    1  0.5196787E-004  0.5625928E+04  0.7818608E-02  0.7738595E-01
         -2   -1    0    0    0  501 -0.00000000000E+00  0.00000000000E+00  0.19008995190E+04  0.19008995190E+04  0.00000000000E+00 0. -1.
          2   -1    0    0  501    0  0.00000000000E+00 -0.00000000000E+00 -0.41626431708E+04  0.41626431708E+04  0.00000000000E+00 0.  1.
         23    2    1    2    0    0 -0.19024220157E+04  0.13567095228E+04 -0.28177146065E+04  0.36616738430E+04  0.92029742317E+02 0.  0.
         11    1    3    3    0    0 -0.13290513749E+04  0.93172926338E+03 -0.18932404820E+04  0.24937635213E+04  0.00000000000E+00 0. -1.
        -11    1    3    3    0    0 -0.57337064074E+03  0.42498025942E+03 -0.92447412447E+03  0.11679103216E+04  0.00000000000E+00 0.  1.
         22    1    1    2    0    0  0.19024220157E+04 -0.13567095228E+04  0.55597095469E+03  0.24018688468E+04  0.00000000000E+00 0. -1.
<mgrwt>
<rscale>  0 0.56259280E+04</rscale>
<asrwt>0</asrwt>
<pdfrwt beam="1">  1        2 0.64040664E+00 0.56259280E+04</pdfrwt>
<pdfrwt beam="2">  1       -2 0.29244608E+00 0.56259280E+04</pdfrwt>
<totfact> 0.60932519E-03</totfact>
</mgrwt>
</event>
<event>
 6    1  0.5196787E-004  0.1449549E+04  0.7818608E-02  0.8918713E-01
          2   -1    0    0  501    0  0.00000000000E+00  0.00000000000E+00  0.11022443227E+04  0.11022443227E+04  0.00000000000E+00 0.  1.
         -2   -1    0    0    0  501 -0.00000000000E+00 -0.00000000000E+00 -0.47657156461E+03  0.47657156461E+03  0.00000000000E+00 0. -1.
         23    2    1    2    0    0 -0.16922518395E+03  0.17981440397E+03 -0.42424477434E+03  0.50025332181E+03  0.96433265373E+02 0.  0.
         11    1    3    3    0    0 -0.57997825571E+01  0.55068871071E+02 -0.57604850717E+02  0.79903296959E+02  0.00000000000E+00 0.  1.
        -11    1    3    3    0    0 -0.16342540140E+03  0.12474553289E+03 -0.36663992363E+03  0.42035002486E+03  0.00000000000E+00 0. -1.
         22    1    1    2    0    0  0.16922518395E+03 -0.17981440397E+03  0.10499175324E+04  0.10785625655E+04  0.00000000000E+00 0.  1.
<mgrwt>
<rscale>  0 0.14495493E+04</rscale>
<asrwt>0</asrwt>
<pdfrwt beam="1">  1        2 0.16957605E+00 0.14495493E+04</pdfrwt>
<pdfrwt beam="2">  1       -2 0.73318702E-01 0.14495493E+04</pdfrwt>
<totfact> 0.35367854E+01</totfact>
</mgrwt>
</event>
<event>
 6    1  0.5196787E-004  0.1098836E+04  0.7818608E-02  0.9206327E-01
          2   -1    0    0  501    0  0.00000000000E+00  0.00000000000E+00  0.12677617320E+04  0.12677617320E+04  0.00000000000E+00 0.  1.
         -2   -1    0    0    0  501 -0.00000000000E+00 -0.00000000000E+00 -0.23810471637E+03  0.23810471637E+03  0.00000000000E+00 0. -1.
         23    2    1    2    0    0  0.41312965745E+03 -0.34422968079E+03  0.39294263526E+03  0.67245455190E+03  0.92849462904E+02 0.  0.
         11    1    3    3    0    0  0.98549475455E+02 -0.84550288430E+02  0.14698417429E+03  0.19612520970E+03  0.00000000000E+00 0. -1.
        -11    1    3    3    0    0  0.31458018200E+03 -0.25967939236E+03  0.24595846097E+03  0.47632934221E+03  0.00000000000E+00 0.  1.
         22    1    1    2    0    0 -0.41312965745E+03  0.34422968079E+03  0.63671438039E+03  0.83341189648E+03  0.00000000000E+00 0.  1.
<mgrwt>
<rscale>  0 0.10988358E+04</rscale>
<asrwt>0</asrwt>
<pdfrwt beam="1">  1        2 0.19504026E+00 0.10988358E+04</pdfrwt>
<pdfrwt beam="2">  1       -2 0.36631495E-01 0.10988358E+04</pdfrwt>
<totfact> 0.12020961E+02</totfact>
</mgrwt>
</event>
<event>
 6    1  0.5196787E-004  0.2859902E+04  0.7818608E-02  0.8284909E-01
          2   -1    0    0  501    0  0.00000000000E+00  0.00000000000E+00  0.27006255382E+04  0.27006255382E+04  0.00000000000E+00 0.  1.
         -2   -1    0    0    0  501 -0.00000000000E+00 -0.00000000000E+00 -0.75714298118E+03  0.75714298118E+03  0.00000000000E+00 0. -1.
         23    2    1    2    0    0  0.47936689726E+03  0.11794574132E+04  0.17560446229E+04  0.21708942477E+04  0.90425136146E+02 0.  0.
         13    1    3    3    0    0  0.21717589059E+03  0.63914187720E+03  0.96649386026E+03  0.11788884971E+04  0.00000000000E+00 0. -1.
        -13    1    3    3    0    0  0.26219100667E+03  0.54031553604E+03  0.78955076267E+03  0.99200575063E+03  0.00000000000E+00 0.  1.
         22    1    1    2    0    0 -0.47936689726E+03 -0.11794574132E+04  0.18743793404E+03  0.12868742716E+04  0.00000000000E+00 0. -1.
<mgrwt>
<rscale>  0 0.28599019E+04</rscale>
<asrwt>0</asrwt>
<pdfrwt beam="1">  1        2 0.41548085E+00 0.28599019E+04</pdfrwt>
<pdfrwt beam="2">  1       -2 0.11648354E+00 0.28599019E+04</pdfrwt>
<totfact> 0.13123965E+00</totfact>
</mgrwt>
</event>
<event>
 6    1  0.5196787E-004  0.2092616E+04  0.7818608E-02  0.8564503E-01
          2   -1    0    0  501    0  0.00000000000E+00  0.00000000000E+00  0.12388906709E+04  0.12388906709E+04  0.00000000000E+00 0.  1.
         -2   -1    0    0    0  501 -0.00000000000E+00 -0.00000000000E+00 -0.88366226921E+03  0.88366226921E+03  0.00000000000E+00 0. -1.
         23    2    1    2    0    0  0.46778348316E+03 -0.12968819925E+03  0.11158218921E+04  0.12202542790E+04  0.91222773204E+02 0.  0.
         11    1    3    3    0    0  0.23588104703E+03 -0.82593814759E+02  0.46775729757E+03  0.53033809595E+03  0.00000000000E+00 0. -1.
        -11    1    3    3    0    0  0.23190243613E+03 -0.47094384495E+02  0.64806459452E+03  0.68991618303E+03  0.00000000000E+00 0.  1.
         22    1    1    2    0    0 -0.46778348316E+03  0.12968819925E+03 -0.76059349043E+03  0.90229866111E+03  0.00000000000E+00 0. -1.
<mgrwt>
<rscale>  0 0.20926165E+04</rscale>
<asrwt>0</asrwt>
<pdfrwt beam="1">  1        2 0.19059857E+00 0.20926165E+04</pdfrwt>
<pdfrwt beam="2">  1       -2 0.13594804E+00 0.20926165E+04</pdfrwt>
<totfact> 0.64174906E+00</totfact>
</mgrwt>
</event>
<event>
 6    1  0.5847175E-004  0.4014422E+04  0.7818608E-02  0.8001644E-01
         -2   -1    0    0    0  501 -0.00000000000E+00  0.00000000000E+00  0.14706077391E+04  0.14706077391E+04  0.00000000000E+00 0. -1.
          2   -1    0    0  501    0  0.00000000000E+00 -0.00000000000E+00 -0.27396122722E+04  0.27396122722E+04  0.00000000000E+00 0.  1.
         23    2    1    2    0    0  0.89863447006E+03 -0.15514309673E+04  0.30917630191E+03  0.18216772118E+04  0.91847271241E+02 0.  0.
         11    1    3    3    0    0  0.35784238214E+03 -0.54999090590E+03  0.14184321633E+03  0.67131264329E+03  0.00000000000E+00 0.  1.
        -11    1    3    3    0    0  0.54079208793E+03 -0.10014400614E+04  0.16733308558E+03  0.11503645685E+04  0.00000000000E+00 0. -1.
         22    1    1    2    0    0 -0.89863447006E+03  0.15514309673E+04 -0.15781808350E+04  0.23885427995E+04  0.00000000000E+00 0.  1.
<mgrwt>
<rscale>  0 0.40144215E+04</rscale>
<asrwt>0</asrwt>
<pdfrwt beam="1">  1        2 0.42147881E+00 0.40144215E+04</pdfrwt>
<pdfrwt beam="2">  1       -2 0.22624734E+00 0.40144215E+04</pdfrwt>
<totfact> 0.17880159E-01</totfact>
</mgrwt>
</event>
<event>
 6    1  0.5196787E-004  0.6891814E+03  0.7818608E-02  0.9735914E-01
          1   -1    0    0  501    0  0.00000000000E+00  0.00000000000E+00  0.84702339392E+03  0.84702339392E+03  0.00000000000E+00 0. -1.
         -1   -1    0    0    0  501 -0.00000000000E+00 -0.00000000000E+00 -0.14018826861E+03  0.14018826861E+03  0.00000000000E+00 0.  1.
         23    2    1    2    0    0 -0.36137398662E+02  0.24050992946E+03  0.69679728243E+03  0.74379494979E+03  0.92485332810E+02 0.  0.
         11    1    3    3    0    0 -0.51164324171E+02  0.17465526595E+03  0.40075074694E+03  0.44014021762E+03  0.00000000000E+00 0. -1.
        -11    1    3    3    0    0  0.15026925508E+02  0.65854663505E+02  0.29604653549E+03  0.30365473217E+03  0.00000000000E+00 0.  1.
         22    1    1    2    0    0  0.36137398662E+02 -0.24050992946E+03  0.10037842878E+02  0.24341671274E+03  0.00000000000E+00 0.  1.
<mgrwt>
<rscale>  0 0.68918138E+03</rscale>
<asrwt>0</asrwt>
<pdfrwt beam="1">  1        1 0.13031129E+00 0.68918138E+03</pdfrwt>
<pdfrwt beam="2">  1       -1 0.21567426E-01 0.68918138E+03</pdfrwt>
<totfact> 0.36701954E+02</totfact>
</mgrwt>
</event>
<event>
 6    1  0.5196787E-004  0.3474877E+04  0.7818608E-02  0.8119770E-01
          2   -1    0    0  501    0  0.00000000000E+00  0.00000000000E+00  0.68718203400E+03  0.68718203400E+03  0.00000000000E+00 0.  1.
         -2   -1    0    0    0  501 -0.00000000000E+00 -0.00000000000E+00 -0.43928577506E+04  0.43928577506E+04  0.00000000000E+00 0. -1.
         23    2    1    2    0    0 -0.41589448749E+03  0.14627013261E+04 -0.30791669529E+04  0.34353584705E+04  0.89192504643E+02 0.  0.
         13    1    3    3    0    0 -0.15013019386E+03  0.67248094873E+03 -0.13477663769E+04  0.15136855381E+04  0.00000000000E+00 0. -1.
        -13    1    3    3    0    0 -0.26576429363E+03  0.79022037734E+03 -0.17314005760E+04  0.19216729324E+04  0.00000000000E+00 0.  1.
         22    1    1    2    0    0  0.41589448749E+03 -0.14627013261E+04 -0.62650876369E+03  0.16446813141E+04  0.00000000000E+00 0.  1.
<mgrwt>
<rscale>  0 0.34748772E+04</rscale>
<asrwt>0</asrwt>
<pdfrwt beam="1">  1        2 0.10572032E+00 0.34748772E+04</pdfrwt>
<pdfrwt beam="2">  1       -2 0.67582425E+00 0.34748772E+04</pdfrwt>
<totfact> 0.94597624E-03</totfact>
</mgrwt>
</event>
<event>
 6    1  0.5196787E-004  0.1392015E+04  0.7818608E-02  0.8959619E-01
         -2   -1    0    0    0  501 -0.00000000000E+00  0.00000000000E+00  0.52840219743E+03  0.52840219743E+03  0.00000000000E+00 0. -1.
          2   -1    0    0  501    0  0.00000000000E+00 -0.00000000000E+00 -0.91677536144E+03  0.91677536144E+03  0.00000000000E+00 0.  1.
         23    2    1    2    0    0 -0.37497551993E+03  0.57495226177E+03 -0.29761674409E+03  0.75278065562E+03  0.83224066578E+02 0.  0.
         11    1    3    3    0    0 -0.14922997725E+03  0.18060487851E+03 -0.69676446587E+02  0.24442282108E+03  0.00000000000E+00 0. -1.
        -11    1    3    3    0    0 -0.22574554267E+03  0.39434738326E+03 -0.22794029751E+03  0.50835783455E+03  0.00000000000E+00 0.  1.
         22    1    1    2    0    0  0.37497551993E+03 -0.57495226177E+03 -0.90756419918E+02  0.69239690324E+03  0.00000000000E+00 0. -1.
<mgrwt>
<rscale>  0 0.13920145E+04</rscale>
<asrwt>0</asrwt>
<pdfrwt beam="1">  1        2 0.14104236E+00 0.13920145E+04</pdfrwt>
<pdfrwt beam="2">  1       -2 0.81292646E-01 0.13920145E+04</pdfrwt>
<totfact> 0.37103186E+01</totfact>
</mgrwt>
</event>
<event>
 6    1  0.5196787E-004  0.2579696E+04  0.7818608E-02  0.8375131E-01
          2   -1    0    0  501    0  0.00000000000E+00  0.00000000000E+00  0.11982758779E+04  0.11982758779E+04  0.00000000000E+00 0.  1.
         -2   -1    0    0    0  501 -0.00000000000E+00 -0.00000000000E+00 -0.13884182325E+04  0.13884182325E+04  0.00000000000E+00 0. -1.
         23    2    1    2    0    0 -0.92701754059E+03 -0.70383122866E+03 -0.64890288061E+03  0.13356141212E+04  0.89722980862E+02 0.  0.
         11    1    3    3    0    0 -0.30761234710E+03 -0.25501568911E+03 -0.26781311029E+03  0.48102205752E+03  0.00000000000E+00 0. -1.
        -11    1    3    3    0    0 -0.61940519349E+03 -0.44881553955E+03 -0.38108977033E+03  0.85459206368E+03  0.00000000000E+00 0.  1.
         22    1    1    2    0    0  0.92701754059E+03  0.70383122866E+03  0.45876052608E+03  0.12510799892E+04  0.00000000000E+00 0. -1.
<mgrwt>
<rscale>  0 0.25796962E+04</rscale>
<asrwt>0</asrwt>
<pdfrwt beam="1">  1        2 0.18435014E+00 0.25796962E+04</pdfrwt>
<pdfrwt beam="2">  1       -2 0.21360280E+00 0.25796962E+04</pdfrwt>
<totfact> 0.18262285E+00</totfact>
</mgrwt>
</event>
<event>
 6    1  0.5196787E-004  0.2839002E+03  0.7818608E-02  0.1093578E+00
          2   -1    0    0  501    0  0.00000000000E+00  0.00000000000E+00  0.38519443292E+03  0.38519443292E+03  0.00000000000E+00 0.  1.
         -2   -1    0    0    0  501 -0.00000000000E+00 -0.00000000000E+00 -0.52310810884E+02  0.52310810884E+02  0.00000000000E+00 0. -1.
         23    2    1    2    0    0  0.71876643564E+02 -0.65533749678E+02  0.30915099807E+03  0.33738450830E+03  0.93771224786E+02 0.  0.
         11    1    3    3    0    0  0.60443331139E+01  0.19124666066E+02  0.17418087217E+02  0.26564573725E+02  0.00000000000E+00 0.  1.
        -11    1    3    3    0    0  0.65832310450E+02 -0.84658415744E+02  0.29173291085E+03  0.31081993457E+03  0.00000000000E+00 0. -1.
         22    1    1    2    0    0 -0.71876643564E+02  0.65533749678E+02  0.23732623965E+02  0.10012073550E+03  0.00000000000E+00 0. -1.
<mgrwt>
<rscale>  0 0.28390022E+03</rscale>
<asrwt>0</asrwt>
<pdfrwt beam="1">  1        2 0.59260680E-01 0.28390022E+03</pdfrwt>
<pdfrwt beam="2">  1       -2 0.80478173E-02 0.28390022E+03</pdfrwt>
<totfact> 0.77551553E+03</totfact>
</mgrwt>
</event>
<event>
 6    1  0.5196787E-004  0.8175076E+03  0.7818608E-02  0.9535016E-01
         -2   -1    0    0    0  501 -0.00000000000E+00  0.00000000000E+00  0.12609841658E+03  0.12609841658E+03  0.00000000000E+00 0. -1.
          2   -1    0    0  501    0  0.00000000000E+00 -0.00000000000E+00 -0.13249943019E+04  0.13249943019E+04  0.00000000000E+00 0.  1.
         23    2    1    2    0    0 -0.21386071805E+03  0.30770676841E+03 -0.87310282831E+03  0.95454364937E+03  0.91788712294E+02 0.  0.
         13    1    3    3    0    0 -0.84240227709E+02  0.53204143028E+02 -0.24893328125E+03  0.26813219746E+03  0.00000000000E+00 0. -1.
        -13    1    3    3    0    0 -0.12962049034E+03  0.25450262538E+03 -0.62416954705E+03  0.68641145191E+03  0.00000000000E+00 0.  1.
         22    1    1    2    0    0  0.21386071805E+03 -0.30770676841E+03 -0.32579305703E+03  0.49654906913E+03  0.00000000000E+00 0. -1.
<mgrwt>
<rscale>  0 0.81750764E+03</rscale>
<asrwt>0</asrwt>
<pdfrwt beam="1">  1        2 0.20384527E+00 0.81750764E+03</pdfrwt>
<pdfrwt beam="2">  1       -2 0.19399757E-01 0.81750764E+03</pdfrwt>
<totfact> 0.36220248E+02</totfact>
</mgrwt>
</event>
<event>
 6    1  0.5196787E-004  0.2116046E+04  0.7818608E-02  0.8554208E-01
         -2   -1    0    0    0  501 -0.00000000000E+00  0.00000000000E+00  0.11640771296E+04  0.11640771296E+04  0.00000000000E+00 0. -1.
          2   -1    0    0  501    0  0.00000000000E+00 -0.00000000000E+00 -0.96163094395E+03  0.96163094395E+03  0.00000000000E+00 0.  1.
         23    2    1    2    0    0 -0.80026143619E+02 -0.10460910486E+04 -0.19405654127E+02  0.10533606931E+04  0.92095085555E+02 0.  0.
         13    1    3    3    0    0 -0.39469276727E+02 -0.23390861116E+03  0.27561860671E+02  0.23881105156E+03  0.00000000000E+00 0. -1.
        -13    1    3    3    0    0 -0.40556866892E+02 -0.81218243741E+03 -0.46967514797E+02  0.81454964154E+03  0.00000000000E+00 0.  1.
         22    1    1    2    0    0  0.80026143619E+02  0.10460910486E+04  0.22185183978E+03  0.10723473805E+04  0.00000000000E+00 0. -1.
<mgrwt>
<rscale>  0 0.21160459E+04</rscale>
<asrwt>0</asrwt>
<pdfrwt beam="1">  1        2 0.14794322E+00 0.21160459E+04</pdfrwt>
<pdfrwt beam="2">  1       -2 0.17908879E+00 0.21160459E+04</pdfrwt>
<totfact> 0.45157846E+00</totfact>
</mgrwt>
</event>
<event>
 6    1  0.5196787E-004  0.2527988E+04  0.7818608E-02  0.8393082E-01
         -2   -1    0    0    0  501 -0.00000000000E+00  0.00000000000E+00  0.37488357939E+03  0.37488357939E+03  0.00000000000E+00 0. -1.
          2   -1    0    0  501    0  0.00000000000E+00 -0.00000000000E+00 -0.42618059655E+04  0.42618059655E+04  0.00000000000E+00 0.  1.
         23    2    1    2    0    0 -0.10817260458E+04 -0.60238019547E+03 -0.23940569468E+04  0.26971946730E+04  0.10177083006E+03 0.  0.
         11    1    3    3    0    0 -0.24746737987E+03 -0.15594497589E+03 -0.65639885976E+03  0.71862257319E+03  0.00000000000E+00 0. -1.
        -11    1    3    3    0    0 -0.83425866589E+03 -0.44643521958E+03 -0.17376580870E+04  0.19785720998E+04  0.00000000000E+00 0.  1.
         22    1    1    2    0    0  0.10817260458E+04  0.60238019547E+03 -0.14928654393E+04  0.19394948718E+04  0.00000000000E+00 0.  1.
<mgrwt>
<rscale>  0 0.25279882E+04</rscale>
<asrwt>0</asrwt>
<pdfrwt beam="1">  1        2 0.65566246E+00 0.25279882E+04</pdfrwt>
<pdfrwt beam="2">  1       -2 0.57674397E-01 0.25279882E+04</pdfrwt>
<totfact> 0.51626723E-01</totfact>
</mgrwt>
</event>
<event>
 6    1  0.5196787E-004  0.3100907E+04  0.7818608E-02  0.8215489E-01
         -2   -1    0    0    0  501 -0.00000000000E+00  0.00000000000E+00  0.10459807319E+04  0.10459807319E+04  0.00000000000E+00 0. -1.
          2   -1    0    0  501    0  0.00000000000E+00 -0.00000000000E+00 -0.22982323225E+04  0.22982323225E+04  0.00000000000E+00 0.  1.
         23    2    1    2    0    0  0.93803764805E+03 -0.20140300407E+03 -0.19384789798E+04  0.21646428662E+04  0.86603602349E+02 0.  0.
         11    1    3    3    0    0  0.82144413491E+03 -0.19802514286E+03 -0.16587229947E+04  0.18615440895E+04  0.00000000000E+00 0. -1.
        -11    1    3    3    0    0  0.11659351314E+03 -0.33778612013E+01 -0.27975598510E+03  0.30309877672E+03  0.00000000000E+00 0.  1.
         22    1    1    2    0    0 -0.93803764805E+03  0.20140300407E+03  0.68622738918E+03  0.11795701882E+04  0.00000000000E+00 0. -1.
<mgrwt>
<rscale>  0 0.31009074E+04</rscale>
<asrwt>0</asrwt>
<pdfrwt beam="1">  1        2 0.35357420E+00 0.31009074E+04</pdfrwt>
<pdfrwt beam="2">  1       -2 0.16092012E+00 0.31009074E+04</pdfrwt>
<totfact> 0.95658237E-01</totfact>
</mgrwt>
</event>
<event>
 6    1  0.5196787E-004  0.2126852E+04  0.7818608E-02  0.8549506E-01
          4   -1    0    0  501    0  0.00000000000E+00  0.00000000000E+00  0.64476070709E+03  0.64476070709E+03  0.00000000000E+00 0.  1.
         -4   -1    0    0    0  501 -0.00000000000E+00 -0.00000000000E+00 -0.17539442832E+04  0.17539442832E+04  0.00000000000E+00 0. -1.
         23    2    1    2    0    0  0.12649855461E+03  0.99978593222E+03 -0.93124723996E+03  0.13753599193E+04  0.93913210705E+02 0.  0.
         13    1    3    3    0    0  0.61610136473E+02  0.78662653697E+03 -0.73922175547E+03  0.10812150209E+04  0.00000000000E+00 0. -1.
        -13    1    3    3    0    0  0.64888418141E+02  0.21315939525E+03 -0.19202548450E+03  0.29414489845E+03  0.00000000000E+00 0.  1.
         22    1    1    2    0    0 -0.12649855461E+03 -0.99978593222E+03 -0.17793633614E+03  0.10233450710E+04  0.00000000000E+00 0.  1.
<mgrwt>
<rscale>  0 0.21268515E+04</rscale>
<asrwt>0</asrwt>
<pdfrwt beam="1">  1        4 0.99193953E-01 0.21268515E+04</pdfrwt>
<pdfrwt beam="2">  1       -4 0.26983759E+00 0.21268515E+04</pdfrwt>
<totfact> 0.73641401E-02</totfact>
</mgrwt>
</event>
<event>
 6    1  0.5196787E-004  0.2887465E+04  0.7818608E-02  0.8276617E-01
          2   -1    0    0  501    0  0.00000000000E+00  0.00000000000E+00  0.10332288572E+04  0.10332288572E+04  0.00000000000E+00 0.  1.
         -2   -1    0    0    0  501 -0.00000000000E+00 -0.00000000000E+00 -0.20173292819E+04  0.20173292819E+04  0.00000000000E+00 0. -1.
         23    2    1    2    0    0  0.91841753305E+03  0.11115182010E+04 -0.45835099300E+03  0.15158347305E+04  0.93304990817E+02 0.  0.
         11    1    3    3    0    0  0.47363010468E+03  0.50381988133E+03 -0.23492570966E+03  0.73030818011E+03  0.00000000000E+00 0. -1.
        -11    1    3    3    0    0  0.44478742838E+03  0.60769831964E+03 -0.22342528334E+03  0.78552655039E+03  0.00000000000E+00 0.  1.
         22    1    1    2    0    0 -0.91841753305E+03 -0.11115182010E+04 -0.52574943166E+03  0.15347234086E+04  0.00000000000E+00 0. -1.
<mgrwt>
<rscale>  0 0.28874645E+04</rscale>
<asrwt>0</asrwt>
<pdfrwt beam="1">  1        2 0.15895829E+00 0.28874645E+04</pdfrwt>
<pdfrwt beam="2">  1       -2 0.31035835E+00 0.28874645E+04</pdfrwt>
<totfact> 0.56894193E-01</totfact>
</mgrwt>
</event>
<event>
 6    1  0.5196787E-004  0.1395593E+04  0.7818608E-02  0.8957015E-01
          2   -1    0    0  501    0  0.00000000000E+00  0.00000000000E+00  0.41809565693E+03  0.41809565693E+03  0.00000000000E+00 0.  1.
         -2   -1    0    0    0  501 -0.00000000000E+00 -0.00000000000E+00 -0.11646133432E+04  0.11646133432E+04  0.00000000000E+00 0. -1.
         23    2    1    2    0    0  0.22766531976E+03  0.68733090885E+02 -0.11152519957E+04  0.11439371614E+04  0.90826646430E+02 0.  0.
         11    1    3    3    0    0  0.12272366191E+03  0.81615799827E+02 -0.58811554219E+03  0.60630200967E+03  0.00000000000E+00 0.  1.
        -11    1    3    3    0    0  0.10494165785E+03 -0.12882708942E+02 -0.52713645350E+03  0.53763515171E+03  0.00000000000E+00 0. -1.
         22    1    1    2    0    0 -0.22766531976E+03 -0.68733090885E+02  0.36873430937E+03  0.43877183879E+03  0.00000000000E+00 0.  1.
<mgrwt>
<rscale>  0 0.13955927E+04</rscale>
<asrwt>0</asrwt>
<pdfrwt beam="1">  1        2 0.64322409E-01 0.13955927E+04</pdfrwt>
<pdfrwt beam="2">  1       -2 0.17917128E+00 0.13955927E+04</pdfrwt>
<totfact> 0.13514034E+01</totfact>
</mgrwt>
</event>
<event>
 6    1  0.5196787E-004  0.1328802E+04  0.7818608E-02  0.9007031E-01
         -2   -1    0    0    0  501 -0.00000000000E+00  0.00000000000E+00  0.15566795383E+04  0.15566795383E+04  0.00000000000E+00 0. -1.
          2   -1    0    0  501    0  0.00000000000E+00 -0.00000000000E+00 -0.28357078223E+03  0.28357078223E+03  0.00000000000E+00 0.  1.
         23    2    1    2    0    0  0.57655317415E+02  0.25630590162E+03  0.14800540277E+04  0.15058206623E+04  0.88989275119E+02 0.  0.
         13    1    3    3    0    0 -0.22750042536E+02  0.71775838184E+02  0.45547952136E+03  0.46166105506E+03  0.00000000000E+00 0. -1.
        -13    1    3    3    0    0  0.80405359952E+02  0.18453006344E+03  0.10245745064E+04  0.10441596072E+04  0.00000000000E+00 0.  1.
         22    1    1    2    0    0 -0.57655317415E+02 -0.25630590162E+03 -0.20694527169E+03  0.33442965824E+03  0.00000000000E+00 0.  1.
<mgrwt>
<rscale>  0 0.13288022E+04</rscale>
<asrwt>0</asrwt>
<pdfrwt beam="1">  1        2 0.43626275E-01 0.13288022E+04</pdfrwt>
<pdfrwt beam="2">  1       -2 0.23948916E+00 0.13288022E+04</pdfrwt>
<totfact> 0.85413698E+00</totfact>
</mgrwt>
</event>
<event>
 6    1  0.5196787E-004  0.2721164E+04  0.7818608E-02  0.8328171E-01
         -2   -1    0    0    0  501 -0.00000000000E+00  0.00000000000E+00  0.28342470275E+04  0.28342470275E+04  0.00000000000E+00 0. -1.
          2   -1    0    0  501    0  0.00000000000E+00 -0.00000000000E+00 -0.65314817509E+03  0.65314817509E+03  0.00000000000E+00 0.  1.
         23    2    1    2    0    0  0.72390214259E+03 -0.37780147207E+03 -0.30197195439E+03  0.87350750495E+03  0.71133927350E+02 0.  0.
         11    1    3    3    0    0  0.46549488051E+03 -0.24353672606E+03 -0.23027484949E+03  0.57360450402E+03  0.00000000000E+00 0.  1.
        -11    1    3    3    0    0  0.25840726208E+03 -0.13426474601E+03 -0.71697104896E+02  0.29990300093E+03  0.00000000000E+00 0. -1.
         22    1    1    2    0    0 -0.72390214259E+03  0.37780147207E+03  0.24830708068E+04  0.26138876976E+04  0.00000000000E+00 0. -1.
<mgrwt>
<rscale>  0 0.27211639E+04</rscale>
<asrwt>0</asrwt>
<pdfrwt beam="1">  1        2 0.10048434E+00 0.27211639E+04</pdfrwt>
<pdfrwt beam="2">  1       -2 0.43603800E+00 0.27211639E+04</pdfrwt>
<totfact> 0.16792380E-01</totfact>
</mgrwt>
</event>
<event>
 6    1  0.5196787E-004  0.2186391E+04  0.7818608E-02  0.8524114E-01
         -2   -1    0    0    0  501 -0.00000000000E+00  0.00000000000E+00  0.10314007960E+04  0.10314007960E+04  0.00000000000E+00 0. -1.
          2   -1    0    0  501    0  0.00000000000E+00 -0.00000000000E+00 -0.11586929777E+04  0.11586929777E+04  0.00000000000E+00 0.  1.
         23    2    1    2    0    0  0.57066210669E+03  0.91500329043E+03 -0.23621985811E+03  0.11062342347E+04  0.71190583756E+02 0.  0.
         11    1    3    3    0    0  0.49742461367E+03  0.82848368345E+03 -0.19647246986E+03  0.98611251460E+03  0.00000000000E+00 0. -1.
        -11    1    3    3    0    0  0.73237493024E+02  0.86519606981E+02 -0.39747388245E+02  0.12012172014E+03  0.00000000000E+00 0.  1.
         22    1    1    2    0    0 -0.57066210669E+03 -0.91500329043E+03  0.10892767639E+03  0.10838595390E+04  0.00000000000E+00 0. -1.
<mgrwt>
<rscale>  0 0.21863914E+04</rscale>
<asrwt>0</asrwt>
<pdfrwt beam="1">  1        2 0.17826046E+00 0.21863914E+04</pdfrwt>
<pdfrwt beam="2">  1       -2 0.15867705E+00 0.21863914E+04</pdfrwt>
<totfact> 0.47289347E+00</totfact>
</mgrwt>
</event>
<event>
 6    1  0.5196787E-004  0.5682611E+04  0.7818608E-02  0.7731050E-01
         -2   -1    0    0    0  501 -0.00000000000E+00  0.00000000000E+00  0.20489481224E+04  0.20489481224E+04  0.00000000000E+00 0. -1.
          2   -1    0    0  501    0  0.00000000000E+00 -0.00000000000E+00 -0.39400789791E+04  0.39400789791E+04  0.00000000000E+00 0.  1.
         23    2    1    2    0    0 -0.78686205589E+03  0.26349749443E+04 -0.19559361177E+03  0.27583783430E+04  0.90273859206E+02 0.  0.
         11    1    3    3    0    0 -0.40089165203E+03  0.11855512836E+04 -0.91131582926E+02  0.12548111125E+04  0.00000000000E+00 0.  1.
        -11    1    3    3    0    0 -0.38597040386E+03  0.14494236607E+04 -0.10446202885E+03  0.15035672304E+04  0.00000000000E+00 0. -1.
         22    1    1    2    0    0  0.78686205589E+03 -0.26349749443E+04 -0.16955372449E+04  0.32306487586E+04  0.00000000000E+00 0.  1.
<mgrwt>
<rscale>  0 0.56826112E+04</rscale>
<asrwt>0</asrwt>
<pdfrwt beam="1">  1        2 0.60616599E+00 0.56826112E+04</pdfrwt>
<pdfrwt beam="2">  1       -2 0.31522279E+00 0.56826112E+04</pdfrwt>
<totfact> 0.67236223E-03</totfact>
</mgrwt>
</event>
<event>
 6    1  0.5196787E-004  0.3868311E+04  0.7818608E-02  0.8031652E-01
          2   -1    0    0  501    0  0.00000000000E+00  0.00000000000E+00  0.33666285038E+04  0.33666285038E+04  0.00000000000E+00 0.  1.
         -2   -1    0    0    0  501 -0.00000000000E+00 -0.00000000000E+00 -0.11111882065E+04  0.11111882065E+04  0.00000000000E+00 0. -1.
         23    2    1    2    0    0  0.40490768749E+03 -0.18824007228E+04  0.13273529325E+04  0.23403582024E+04  0.89599060380E+02 0.  0.
         11    1    3    3    0    0  0.33904965571E+03 -0.14118013613E+04  0.97905651177E+03  0.17511965641E+04  0.00000000000E+00 0. -1.
        -11    1    3    3    0    0  0.65858031780E+02 -0.47059936143E+03  0.34829642077E+03  0.58916163830E+03  0.00000000000E+00 0.  1.
         22    1    1    2    0    0 -0.40490768749E+03  0.18824007228E+04  0.92808736467E+03  0.21374585079E+04  0.00000000000E+00 0.  1.
<mgrwt>
<rscale>  0 0.38683112E+04</rscale>
<asrwt>0</asrwt>
<pdfrwt beam="1">  1        2 0.51794284E+00 0.38683112E+04</pdfrwt>
<pdfrwt beam="2">  1       -2 0.17095203E+00 0.38683112E+04</pdfrwt>
<totfact> 0.16784174E-01</totfact>
</mgrwt>
</event>
<event>
 6    1  0.5196787E-004  0.3664428E+03  0.7818608E-02  0.1056062E+00
         -2   -1    0    0    0  501 -0.00000000000E+00  0.00000000000E+00  0.22927909617E+03  0.22927909617E+03  0.00000000000E+00 0. -1.
          2   -1    0    0  501    0  0.00000000000E+00 -0.00000000000E+00 -0.14641580187E+03  0.14641580187E+03  0.00000000000E+00 0.  1.
         23    2    1    2    0    0  0.89365075074E+02  0.99200875989E+02  0.15343906362E+03  0.22467215256E+03  0.95431124111E+02 0.  0.
         13    1    3    3    0    0  0.82291505822E+02  0.24589280451E+02  0.59424264008E+02  0.10444025946E+03  0.00000000000E+00 0. -1.
        -13    1    3    3    0    0  0.70735692522E+01  0.74611595539E+02  0.94014799612E+02  0.12023189309E+03  0.00000000000E+00 0.  1.
         22    1    1    2    0    0 -0.89365075074E+02 -0.99200875989E+02 -0.70575769312E+02  0.15102274549E+03  0.00000000000E+00 0.  1.
<mgrwt>
<rscale>  0 0.36644281E+03</rscale>
<asrwt>0</asrwt>
<pdfrwt beam="1">  1        2 0.22525508E-01 0.36644281E+03</pdfrwt>
<pdfrwt beam="2">  1       -2 0.35273707E-01 0.36644281E+03</pdfrwt>
<totfact> 0.18437618E+03</totfact>
</mgrwt>
</event>
<event>
 6    1  0.5196787E-004  0.3693808E+04  0.7818608E-02  0.8069335E-01
         -2   -1    0    0    0  501 -0.00000000000E+00  0.00000000000E+00  0.12155873982E+04  0.12155873982E+04  0.00000000000E+00 0. -1.
          2   -1    0    0  501    0  0.00000000000E+00 -0.00000000000E+00 -0.28060952006E+04  0.28060952006E+04  0.00000000000E+00 0.  1.
         23    2    1    2    0    0 -0.13643077062E+04  0.10528376957E+04 -0.15156173053E+04  0.22967445370E+04  0.90204886840E+02 0.  0.
         13    1    3    3    0    0 -0.58594993569E+03  0.40248857064E+03 -0.59720531371E+03  0.92843339199E+03  0.00000000000E+00 0. -1.
        -13    1    3    3    0    0 -0.77835777047E+03  0.65034912502E+03 -0.91841199157E+03  0.13683111450E+04  0.00000000000E+00 0.  1.
         22    1    1    2    0    0  0.13643077062E+04 -0.10528376957E+04 -0.74890497060E+02  0.17249380618E+04  0.00000000000E+00 0. -1.
<mgrwt>
<rscale>  0 0.36938078E+04</rscale>
<asrwt>0</asrwt>
<pdfrwt beam="1">  1        2 0.43170695E+00 0.36938078E+04</pdfrwt>
<pdfrwt beam="2">  1       -2 0.18701345E+00 0.36938078E+04</pdfrwt>
<totfact> 0.30097474E-01</totfact>
</mgrwt>
</event>
<event>
 6    1  0.5196787E-004  0.3260139E+04  0.7818608E-02  0.8173113E-01
          2   -1    0    0  501    0  0.00000000000E+00  0.00000000000E+00  0.24101746302E+04  0.24101746302E+04  0.00000000000E+00 0.  1.
         -2   -1    0    0    0  501 -0.00000000000E+00 -0.00000000000E+00 -0.11024623742E+04  0.11024623742E+04  0.00000000000E+00 0. -1.
         23    2    1    2    0    0 -0.11805774765E+04  0.97835099083E+03  0.62355228285E+02  0.15373274171E+04  0.92485531320E+02 0.  0.
         13    1    3    3    0    0 -0.97567911233E+03  0.77679224805E+03  0.24077739316E+02  0.12473715022E+04  0.00000000000E+00 0. -1.
        -13    1    3    3    0    0 -0.20489836418E+03  0.20155874278E+03  0.38277488969E+02  0.28995591492E+03  0.00000000000E+00 0.  1.
         22    1    1    2    0    0  0.11805774765E+04 -0.97835099083E+03  0.12453570277E+04  0.19753095873E+04  0.00000000000E+00 0.  1.
<mgrwt>
<rscale>  0 0.32601392E+04</rscale>
<asrwt>0</asrwt>
<pdfrwt beam="1">  1        2 0.37079609E+00 0.32601392E+04</pdfrwt>
<pdfrwt beam="2">  1       -2 0.16960960E+00 0.32601392E+04</pdfrwt>
<totfact> 0.70492109E-01</totfact>
</mgrwt>
</event>
<event>
 6    1  0.5196787E-004  0.2643975E+04  0.7818608E-02  0.8353416E-01
          2   -1    0    0  501    0  0.00000000000E+00  0.00000000000E+00  0.16408396548E+04  0.16408396548E+04  0.00000000000E+00 0.  1.
         -2   -1    0    0    0  501 -0.00000000000E+00 -0.00000000000E+00 -0.10650951784E+04  0.10650951784E+04  0.00000000000E+00 0. -1.
         23    2    1    2    0    0  0.23915806196E+03  0.62688762799E+03  0.14521387577E+04  0.16021904729E+04  0.90125818332E+02 0.  0.
         13    1    3    3    0    0  0.19301255689E+03  0.46709407341E+03  0.11731676752E+04  0.12774009217E+04  0.00000000000E+00 0. -1.
        -13    1    3    3    0    0  0.46145505074E+02  0.15979355458E+03  0.27897108244E+03  0.32478955119E+03  0.00000000000E+00 0.  1.
         22    1    1    2    0    0 -0.23915806196E+03 -0.62688762799E+03 -0.87639428126E+03  0.11037443603E+04  0.00000000000E+00 0. -1.
<mgrwt>
<rscale>  0 0.26439746E+04</rscale>
<asrwt>0</asrwt>
<pdfrwt beam="1">  1        2 0.25243687E+00 0.26439746E+04</pdfrwt>
<pdfrwt beam="2">  1       -2 0.16386080E+00 0.26439746E+04</pdfrwt>
<totfact> 0.22009224E+00</totfact>
</mgrwt>
</event>
<event>
 6    1  0.5196787E-004  0.3203093E+04  0.7818608E-02  0.8188001E-01
          2   -1    0    0  501    0  0.00000000000E+00  0.00000000000E+00  0.15510923626E+04  0.15510923626E+04  0.00000000000E+00 0.  1.
         -2   -1    0    0    0  501 -0.00000000000E+00 -0.00000000000E+00 -0.16536422862E+04  0.16536422862E+04  0.00000000000E+00 0. -1.
         23    2    1    2    0    0  0.84894987525E+00 -0.12343938513E+04 -0.10702130439E+04  0.16362637963E+04  0.90963459090E+02 0.  0.
         11    1    3    3    0    0 -0.16976582803E+02 -0.23170516289E+03 -0.24390336194E+03  0.33684467762E+03  0.00000000000E+00 0. -1.
        -11    1    3    3    0    0  0.17825532678E+02 -0.10026886884E+04 -0.82630968191E+03  0.12994191187E+04  0.00000000000E+00 0.  1.
         22    1    1    2    0    0 -0.84894987525E+00  0.12343938513E+04  0.96766312022E+03  0.15684708525E+04  0.00000000000E+00 0.  1.
<mgrwt>
<rscale>  0 0.32030935E+04</rscale>
<asrwt>0</asrwt>
<pdfrwt beam="1">  1        2 0.23862959E+00 0.32030935E+04</pdfrwt>
<pdfrwt beam="2">  1       -2 0.25440651E+00 0.32030935E+04</pdfrwt>
<totfact> 0.60380654E-01</totfact>
</mgrwt>
</event>
<event>
 6    1  0.5196787E-004  0.2334769E+04  0.7818608E-02  0.8464337E-01
         -2   -1    0    0    0  501 -0.00000000000E+00  0.00000000000E+00  0.10387284377E+04  0.10387284377E+04  0.00000000000E+00 0. -1.
          2   -1    0    0  501    0  0.00000000000E+00 -0.00000000000E+00 -0.13119761524E+04  0.13119761524E+04  0.00000000000E+00 0.  1.
         23    2    1    2    0    0 -0.39510004556E+03  0.61480370945E+03  0.77739114718E+03  0.10708883279E+04  0.91526870187E+02 0.  0.
         13    1    3    3    0    0 -0.20570442020E+03  0.23716489125E+03  0.32244428489E+03  0.45003534416E+03  0.00000000000E+00 0. -1.
        -13    1    3    3    0    0 -0.18939562535E+03  0.37763881820E+03  0.45494686229E+03  0.62085298374E+03  0.00000000000E+00 0.  1.
         22    1    1    2    0    0  0.39510004556E+03 -0.61480370945E+03 -0.10506388619E+04  0.12798162623E+04  0.00000000000E+00 0.  1.
<mgrwt>
<rscale>  0 0.23347693E+04</rscale>
<asrwt>0</asrwt>
<pdfrwt beam="1">  1        2 0.20184248E+00 0.23347693E+04</pdfrwt>
<pdfrwt beam="2">  1       -2 0.15980438E+00 0.23347693E+04</pdfrwt>
<totfact> 0.37172939E+00</totfact>
</mgrwt>
</event>
<event>
 6    1  0.5196787E-004  0.4140582E+04  0.7818608E-02  0.7976772E-01
          2   -1    0    0  501    0  0.00000000000E+00  0.00000000000E+00  0.24604738152E+04  0.24604738152E+04  0.00000000000E+00 0.  1.
         -2   -1    0    0    0  501 -0.00000000000E+00 -0.00000000000E+00 -0.17419838553E+04  0.17419838553E+04  0.00000000000E+00 0. -1.
         23    2    1    2    0    0 -0.13374498023E+04 -0.22821286214E+03  0.19452814661E+04  0.23732855944E+04  0.86668599427E+02 0.  0.
         11    1    3    3    0    0 -0.10594929020E+04 -0.20072086330E+03  0.14928208220E+04  0.18415558860E+04  0.00000000000E+00 0. -1.
        -11    1    3    3    0    0 -0.27795690024E+03 -0.27491998835E+02  0.45246064411E+03  0.53172970846E+03  0.00000000000E+00 0.  1.
         22    1    1    2    0    0  0.13374498023E+04  0.22821286214E+03 -0.12267915062E+04  0.18291720760E+04  0.00000000000E+00 0. -1.
<mgrwt>
<rscale>  0 0.41405824E+04</rscale>
<asrwt>0</asrwt>
<pdfrwt beam="1">  1        2 0.37853443E+00 0.41405824E+04</pdfrwt>
<pdfrwt beam="2">  1       -2 0.26799752E+00 0.41405824E+04</pdfrwt>
<totfact> 0.14268474E-01</totfact>
</mgrwt>
</event>
<event>
 6    1  0.5196787E-004  0.3939434E+04  0.7818608E-02  0.8016877E-01
         -2   -1    0    0    0  501 -0.00000000000E+00  0.00000000000E+00  0.24580057595E+04  0.24580057595E+04  0.00000000000E+00 0. -1.
          2   -1    0    0  501    0  0.00000000000E+00 -0.00000000000E+00 -0.15784279893E+04  0.15784279893E+04  0.00000000000E+00 0.  1.
         23    2    1    2    0    0  0.24377034979E+03 -0.61823151183E+03  0.23387533898E+04  0.24330536708E+04  0.91370461175E+02 0.  0.
         13    1    3    3    0    0  0.12744550583E+03 -0.20424155962E+03  0.85261028242E+03  0.88594653638E+03  0.00000000000E+00 0. -1.
        -13    1    3    3    0    0  0.11632484395E+03 -0.41398995221E+03  0.14861431074E+04  0.15471071345E+04  0.00000000000E+00 0.  1.
         22    1    1    2    0    0 -0.24377034979E+03  0.61823151183E+03 -0.14591756196E+04  0.16033800780E+04  0.00000000000E+00 0.  1.
<mgrwt>
<rscale>  0 0.39394340E+04</rscale>
<asrwt>0</asrwt>
<pdfrwt beam="1">  1        2 0.24283508E+00 0.39394340E+04</pdfrwt>
<pdfrwt beam="2">  1       -2 0.37815473E+00 0.39394340E+04</pdfrwt>
<totfact> 0.93498212E-02</totfact>
</mgrwt>
</event>
<event>
 6    1  0.5196787E-004  0.5580944E+04  0.7818608E-02  0.7744648E-01
         -2   -1    0    0    0  501 -0.00000000000E+00  0.00000000000E+00  0.33269450696E+04  0.33269450696E+04  0.00000000000E+00 0. -1.
          2   -1    0    0  501    0  0.00000000000E+00 -0.00000000000E+00 -0.23405060016E+04  0.23405060016E+04  0.00000000000E+00 0.  1.
         23    2    1    2    0    0  0.17082359944E+03  0.26888021413E+04 -0.24147421456E+03  0.27066051301E+04  0.92541217619E+02 0.  0.
         13    1    3    3    0    0  0.10324184467E+03  0.16313544966E+04 -0.10108999279E+03  0.16377409926E+04  0.00000000000E+00 0. -1.
        -13    1    3    3    0    0  0.67581754770E+02  0.10574476446E+04 -0.14038422177E+03  0.10688641375E+04  0.00000000000E+00 0.  1.
         22    1    1    2    0    0 -0.17082359944E+03 -0.26888021413E+04  0.12279132826E+04  0.29608459410E+04  0.00000000000E+00 0. -1.
<mgrwt>
<rscale>  0 0.55809443E+04</rscale>
<asrwt>0</asrwt>
<pdfrwt beam="1">  1        2 0.36007785E+00 0.55809443E+04</pdfrwt>
<pdfrwt beam="2">  1       -2 0.51183770E+00 0.55809443E+04</pdfrwt>
<totfact> 0.42220093E-03</totfact>
</mgrwt>
</event>
<event>
 6    1  0.5196787E-004  0.2463239E+04  0.7818608E-02  0.8416200E-01
         -2   -1    0    0    0  501 -0.00000000000E+00  0.00000000000E+00  0.73850952955E+03  0.73850952955E+03  0.00000000000E+00 0. -1.
          2   -1    0    0  501    0  0.00000000000E+00 -0.00000000000E+00 -0.20539837787E+04  0.20539837787E+04  0.00000000000E+00 0.  1.
         23    2    1    2    0    0 -0.72475311929E+03 -0.41468785769E+03  0.36517031151E+03  0.91584756582E+03  0.90522395970E+02 0.  0.
         13    1    3    3    0    0 -0.54164718499E+03 -0.29060792138E+03  0.22814385937E+03  0.65565559369E+03  0.00000000000E+00 0.  1.
        -13    1    3    3    0    0 -0.18310593430E+03 -0.12407993632E+03  0.13702645215E+03  0.26019197213E+03  0.00000000000E+00 0. -1.
         22    1    1    2    0    0  0.72475311929E+03  0.41468785769E+03 -0.16806445606E+04  0.18766457424E+04  0.00000000000E+00 0.  1.
<mgrwt>
<rscale>  0 0.24632390E+04</rscale>
<asrwt>0</asrwt>
<pdfrwt beam="1">  1        2 0.31599751E+00 0.24632390E+04</pdfrwt>
<pdfrwt beam="2">  1       -2 0.11361685E+00 0.24632390E+04</pdfrwt>
<totfact> 0.33868373E+00</totfact>
</mgrwt>
</event>
<event>
 6    1  0.5196787E-004  0.2169131E+04  0.7818608E-02  0.8531387E-01
          2   -1    0    0  501    0  0.00000000000E+00  0.00000000000E+00  0.13590750017E+04  0.13590750017E+04  0.00000000000E+00 0.  1.
         -2   -1    0    0    0  501 -0.00000000000E+00 -0.00000000000E+00 -0.86550227181E+03  0.86550227181E+03  0.00000000000E+00 0. -1.
         23    2    1    2    0    0 -0.32688202940E+03 -0.65893479484E+03 -0.56703087774E+03  0.93386935244E+03  0.97678176235E+02 0.  0.
         13    1    3    3    0    0 -0.60426041914E+01  0.16107330649E+01 -0.11422978673E+02  0.13022748104E+02  0.00000000000E+00 0. -1.
        -13    1    3    3    0    0 -0.32083942521E+03 -0.66054552791E+03 -0.55560789907E+03  0.92084660433E+03  0.00000000000E+00 0.  1.
         22    1    1    2    0    0  0.32688202940E+03  0.65893479484E+03  0.10606036076E+04  0.12907079211E+04  0.00000000000E+00 0.  1.
<mgrwt>
<rscale>  0 0.21691312E+04</rscale>
<asrwt>0</asrwt>
<pdfrwt beam="1">  1        2 0.20908846E+00 0.21691312E+04</pdfrwt>
<pdfrwt beam="2">  1       -2 0.13315420E+00 0.21691312E+04</pdfrwt>
<totfact> 0.57212587E+00</totfact>
</mgrwt>
</event>
<event>
 6    1  0.5196787E-004  0.1762037E+04  0.7818608E-02  0.8726753E-01
         -2   -1    0    0    0  501 -0.00000000000E+00  0.00000000000E+00  0.25399554772E+03  0.25399554772E+03  0.00000000000E+00 0. -1.
          2   -1    0    0  501    0  0.00000000000E+00 -0.00000000000E+00 -0.30559324073E+04  0.30559324073E+04  0.00000000000E+00 0.  1.
         23    2    1    2    0    0 -0.45325142186E+03  0.14343345093E+03 -0.16534375631E+02  0.48424626667E+03  0.90614871573E+02 0.  0.
         13    1    3    3    0    0 -0.18963697346E+03  0.83131926451E+02  0.31956287868E+02  0.20950967336E+03  0.00000000000E+00 0.  1.
        -13    1    3    3    0    0 -0.26361444840E+03  0.60301524483E+02 -0.48490663499E+02  0.27473659331E+03  0.00000000000E+00 0. -1.
         22    1    1    2    0    0  0.45325142186E+03 -0.14343345093E+03 -0.27854024840E+04  0.28256816884E+04  0.00000000000E+00 0.  1.
<mgrwt>
<rscale>  0 0.17620366E+04</rscale>
<asrwt>0</asrwt>
<pdfrwt beam="1">  1        2 0.47014346E+00 0.17620366E+04</pdfrwt>
<pdfrwt beam="2">  1       -2 0.39076237E-01 0.17620366E+04</pdfrwt>
<totfact> 0.94546419E+00</totfact>
</mgrwt>
</event>
<event>
 6    1  0.5196787E-004  0.5743073E+03  0.7818608E-02  0.9960192E-01
          1   -1    0    0  501    0  0.00000000000E+00  0.00000000000E+00  0.18609814796E+04  0.18609814796E+04  0.00000000000E+00 0.  1.
         -1   -1    0    0    0  501 -0.00000000000E+00 -0.00000000000E+00 -0.44308454247E+02  0.44308454247E+02  0.00000000000E+00 0. -1.
         23    2    1    2    0    0  0.15853259474E+02  0.26669316423E+03  0.64101253479E+03  0.69965559510E+03  0.85113526074E+02 0.  0.
         13    1    3    3    0    0  0.14150651639E+02  0.46354533623E+02  0.53534739468E+02  0.72214624966E+02  0.00000000000E+00 0. -1.
        -13    1    3    3    0    0  0.17026078350E+01  0.22033863061E+03  0.58747779532E+03  0.62744097014E+03  0.00000000000E+00 0.  1.
         22    1    1    2    0    0 -0.15853259474E+02 -0.26669316423E+03  0.11756604905E+04  0.12056343387E+04  0.00000000000E+00 0.  1.
<mgrwt>
<rscale>  0 0.57430728E+03</rscale>
<asrwt>0</asrwt>
<pdfrwt beam="1">  1        1 0.28630478E+00 0.57430728E+03</pdfrwt>
<pdfrwt beam="2">  1       -1 0.68166867E-02 0.57430728E+03</pdfrwt>
<totfact> 0.44267599E+02</totfact>
</mgrwt>
</event>
<event>
 6    1  0.5196787E-004  0.2259521E+04  0.7818608E-02  0.8494054E-01
          2   -1    0    0  501    0  0.00000000000E+00  0.00000000000E+00  0.27569106458E+04  0.27569106458E+04  0.00000000000E+00 0.  1.
         -2   -1    0    0    0  501 -0.00000000000E+00 -0.00000000000E+00 -0.46296724063E+03  0.46296724063E+03  0.00000000000E+00 0. -1.
         23    2    1    2    0    0 -0.84129163367E+03 -0.26560621150E+02  0.22186147529E+04  0.23748030464E+04  0.94662599382E+02 0.  0.
         11    1    3    3    0    0 -0.54330882394E+03  0.27917478909E+02  0.14396548012E+04  0.15390158578E+04  0.00000000000E+00 0. -1.
        -11    1    3    3    0    0 -0.29798280973E+03 -0.54478100059E+02  0.77895995172E+03  0.83578718862E+03  0.00000000000E+00 0.  1.
         22    1    1    2    0    0  0.84129163367E+03  0.26560621150E+02  0.75328652277E+02  0.84507484008E+03  0.00000000000E+00 0. -1.
<mgrwt>
<rscale>  0 0.22595215E+04</rscale>
<asrwt>0</asrwt>
<pdfrwt beam="1">  1        2 0.42414009E+00 0.22595215E+04</pdfrwt>
<pdfrwt beam="2">  1       -2 0.71225731E-01 0.22595215E+04</pdfrwt>
<totfact> 0.39979506E+00</totfact>
</mgrwt>
</event>
<event>
 6    1  0.5196787E-004  0.1406193E+04  0.7818608E-02  0.8949348E-01
          2   -1    0    0  501    0  0.00000000000E+00  0.00000000000E+00  0.91444984585E+03  0.91444984585E+03  0.00000000000E+00 0.  1.
         -2   -1    0    0    0  501 -0.00000000000E+00 -0.00000000000E+00 -0.54059267456E+03  0.54059267456E+03  0.00000000000E+00 0. -1.
         23    2    1    2    0    0 -0.14043341422E+03  0.10635906468E+03  0.88901103819E+03  0.91060032783E+03  0.88422489009E+02 0.  0.
         13    1    3    3    0    0 -0.15284234345E+03  0.10280300836E+03  0.82961844414E+03  0.84982115962E+03  0.00000000000E+00 0.  1.
        -13    1    3    3    0    0  0.12408929229E+02  0.35560563223E+01  0.59392594051E+02  0.60779168218E+02  0.00000000000E+00 0. -1.
         22    1    1    2    0    0  0.14043341422E+03 -0.10635906468E+03 -0.51515386690E+03  0.54444219257E+03  0.00000000000E+00 0. -1.
<mgrwt>
<rscale>  0 0.14061933E+04</rscale>
<asrwt>0</asrwt>
<pdfrwt beam="1">  1        2 0.14068459E+00 0.14061933E+04</pdfrwt>
<pdfrwt beam="2">  1       -2 0.83168104E-01 0.14061933E+04</pdfrwt>
<totfact> 0.35326097E+01</totfact>
</mgrwt>
</event>
<event>
 6    1  0.5196787E-004  0.3014569E+04  0.7818608E-02  0.8239583E-01
          2   -1    0    0  501    0  0.00000000000E+00  0.00000000000E+00  0.26554526759E+04  0.26554526759E+04  0.00000000000E+00 0.  1.
         -2   -1    0    0    0  501 -0.00000000000E+00 -0.00000000000E+00 -0.85556273324E+03  0.85556273324E+03  0.00000000000E+00 0. -1.
         23    2    1    2    0    0  0.14561635544E+04  0.36805522506E+03  0.10281174577E+04  0.18223740280E+04  0.90247688062E+02 0.  0.
         13    1    3    3    0    0  0.84520531139E+03  0.18076258197E+03  0.55314513848E+03  0.10261660069E+04  0.00000000000E+00 0. -1.
        -13    1    3    3    0    0  0.61095824298E+03  0.18729264309E+03  0.47497231921E+03  0.79620802108E+03  0.00000000000E+00 0.  1.
         22    1    1    2    0    0 -0.14561635544E+04 -0.36805522506E+03  0.77177248500E+03  0.16886413812E+04  0.00000000000E+00 0. -1.
<mgrwt>
<rscale>  0 0.30145689E+04</rscale>
<asrwt>0</asrwt>
<pdfrwt beam="1">  1        2 0.40853118E+00 0.30145689E+04</pdfrwt>
<pdfrwt beam="2">  1       -2 0.13162504E+00 0.30145689E+04</pdfrwt>
<totfact> 0.10151591E+00</totfact>
</mgrwt>
</event>
<event>
 6    1  0.5196787E-004  0.3790664E+04  0.7818608E-02  0.8048161E-01
         -2   -1    0    0    0  501 -0.00000000000E+00  0.00000000000E+00  0.82683406064E+03  0.82683406064E+03  0.00000000000E+00 0.  1.
          2   -1    0    0  501    0  0.00000000000E+00 -0.00000000000E+00 -0.43446249151E+04  0.43446249151E+04  0.00000000000E+00 0. -1.
         23    2    1    2    0    0 -0.33043246142E+03  0.11033547503E+04 -0.38115069222E+04  0.39828268017E+04  0.93525388716E+02 0.  0.
         13    1    3    3    0    0 -0.24371396217E+03  0.93419772178E+03 -0.31899076218E+04  0.33328115030E+04  0.00000000000E+00 0.  1.
        -13    1    3    3    0    0 -0.86718499245E+02  0.16915702854E+03 -0.62159930035E+03  0.65001529875E+03  0.00000000000E+00 0. -1.
         22    1    1    2    0    0  0.33043246142E+03 -0.11033547503E+04  0.29371606771E+03  0.11886321740E+04  0.00000000000E+00 0.  1.
<mgrwt>
<rscale>  0 0.37906642E+04</rscale>
<asrwt>0</asrwt>
<pdfrwt beam="1">  1        2 0.66840382E+00 0.37906642E+04</pdfrwt>
<pdfrwt beam="2">  1       -2 0.12720524E+00 0.37906642E+04</pdfrwt>
<totfact> 0.63273847E-02</totfact>
</mgrwt>
</event>
<event>
 6    1  0.5196787E-004  0.4541550E+04  0.7818608E-02  0.7903403E-01
          2   -1    0    0  501    0  0.00000000000E+00  0.00000000000E+00  0.24234780181E+04  0.24234780181E+04  0.00000000000E+00 0.  1.
         -2   -1    0    0    0  501 -0.00000000000E+00 -0.00000000000E+00 -0.21276940354E+04  0.21276940354E+04  0.00000000000E+00 0. -1.
         23    2    1    2    0    0  0.11182860911E+04 -0.61164129712E+03  0.20301107200E+04  0.23988342339E+04  0.91582140427E+02 0.  0.
         13    1    3    3    0    0  0.13104480848E+03 -0.65900109815E+02  0.18327330498E+03  0.23474384044E+03  0.00000000000E+00 0. -1.
        -13    1    3    3    0    0  0.98724128259E+03 -0.54574118730E+03  0.18468374150E+04  0.21640903935E+04  0.00000000000E+00 0.  1.
         22    1    1    2    0    0 -0.11182860911E+04  0.61164129712E+03 -0.17343267373E+04  0.21523378195E+04  0.00000000000E+00 0. -1.
<mgrwt>
<rscale>  0 0.45415503E+04</rscale>
<asrwt>0</asrwt>
<pdfrwt beam="1">  1        2 0.37284277E+00 0.45415503E+04</pdfrwt>
<pdfrwt beam="2">  1       -2 0.32733754E+00 0.45415503E+04</pdfrwt>
<totfact> 0.62762680E-02</totfact>
</mgrwt>
</event>
<event>
 6    1  0.5196787E-004  0.3601017E+04  0.7818608E-02  0.8090259E-01
         -2   -1    0    0    0  501 -0.00000000000E+00  0.00000000000E+00  0.21148095912E+04  0.21148095912E+04  0.00000000000E+00 0. -1.
          2   -1    0    0  501    0  0.00000000000E+00 -0.00000000000E+00 -0.15329187053E+04  0.15329187053E+04  0.00000000000E+00 0.  1.
         23    2    1    2    0    0 -0.11814085616E+04  0.75060795474E+03 -0.85413781555E+03  0.16424061472E+04  0.93851229736E+02 0.  0.
         13    1    3    3    0    0 -0.50105412643E+03  0.34027943885E+03 -0.41962711390E+03  0.73683936434E+03  0.00000000000E+00 0.  1.
        -13    1    3    3    0    0 -0.68035443515E+03  0.41032851589E+03 -0.43451070165E+03  0.90556678287E+03  0.00000000000E+00 0. -1.
         22    1    1    2    0    0  0.11814085616E+04 -0.75060795474E+03  0.14360287014E+04  0.20053221493E+04  0.00000000000E+00 0.  1.
<mgrwt>
<rscale>  0 0.36010172E+04</rscale>
<asrwt>0</asrwt>
<pdfrwt beam="1">  1        2 0.23583365E+00 0.36010172E+04</pdfrwt>
<pdfrwt beam="2">  1       -2 0.32535532E+00 0.36010172E+04</pdfrwt>
<totfact> 0.21983694E-01</totfact>
</mgrwt>
</event>
<event>
 6    1  0.5196787E-004  0.2945158E+04  0.7818608E-02  0.8259567E-01
          2   -1    0    0  501    0  0.00000000000E+00  0.00000000000E+00  0.34278357145E+04  0.34278357145E+04  0.00000000000E+00 0. -1.
         -2   -1    0    0    0  501 -0.00000000000E+00 -0.00000000000E+00 -0.63261182726E+03  0.63261182726E+03  0.00000000000E+00 0.  1.
         23    2    1    2    0    0  0.66949472637E+03  0.11319251731E+04  0.23081299427E+04  0.26580430719E+04  0.90836962918E+02 0.  0.
         11    1    3    3    0    0  0.36996574520E+03  0.54081877155E+03  0.11763802593E+04  0.13465623308E+04  0.00000000000E+00 0.  1.
        -11    1    3    3    0    0  0.29952898117E+03  0.59110640156E+03  0.11317496834E+04  0.13114807411E+04  0.00000000000E+00 0. -1.
         22    1    1    2    0    0 -0.66949472637E+03 -0.11319251731E+04  0.48709394457E+03  0.14024044698E+04  0.00000000000E+00 0.  1.
<mgrwt>
<rscale>  0 0.29451583E+04</rscale>
<asrwt>0</asrwt>
<pdfrwt beam="1">  1        2 0.52735933E+00 0.29451583E+04</pdfrwt>
<pdfrwt beam="2">  1       -2 0.97324898E-01 0.29451583E+04</pdfrwt>
<totfact> 0.69043851E-01</totfact>
</mgrwt>
</event>
<event>
 6    1  0.5196787E-004  0.3410675E+04  0.7818608E-02  0.8135291E-01
         -2   -1    0    0    0  501 -0.00000000000E+00  0.00000000000E+00  0.79299980019E+03  0.79299980019E+03  0.00000000000E+00 0. -1.
          2   -1    0    0  501    0  0.00000000000E+00 -0.00000000000E+00 -0.36673095563E+04  0.36673095563E+04  0.00000000000E+00 0.  1.
         23    2    1    2    0    0 -0.55388689137E+03  0.10156904752E+04  0.19810353635E+03  0.11773013959E+04  0.91519046084E+02 0.  0.
         11    1    3    3    0    0 -0.25578433112E+03  0.52500790888E+03  0.13752162088E+03  0.59997593672E+03  0.00000000000E+00 0. -1.
        -11    1    3    3    0    0 -0.29810256025E+03  0.49068256630E+03  0.60581915467E+02  0.57732545915E+03  0.00000000000E+00 0.  1.
         22    1    1    2    0    0  0.55388689137E+03 -0.10156904752E+04 -0.30724132925E+04  0.32830079606E+04  0.00000000000E+00 0.  1.
<mgrwt>
<rscale>  0 0.34106749E+04</rscale>
<asrwt>0</asrwt>
<pdfrwt beam="1">  1        2 0.56420147E+00 0.34106749E+04</pdfrwt>
<pdfrwt beam="2">  1       -2 0.12199997E+00 0.34106749E+04</pdfrwt>
<totfact> 0.25973887E-01</totfact>
</mgrwt>
</event>
<event>
 6    1  0.5196787E-004  0.3831555E+04  0.7818608E-02  0.8039417E-01
          2   -1    0    0  501    0  0.00000000000E+00  0.00000000000E+00  0.24227288148E+04  0.24227288148E+04  0.00000000000E+00 0. -1.
         -2   -1    0    0    0  501 -0.00000000000E+00 -0.00000000000E+00 -0.15149049075E+04  0.15149049075E+04  0.00000000000E+00 0.  1.
         23    2    1    2    0    0 -0.16538995857E+04 -0.83924181513E+03  0.94318879473E+03  0.20826508817E+04  0.90105099322E+02 0.  0.
         11    1    3    3    0    0 -0.24210287219E+03 -0.11143324439E+03  0.10263484741E+03  0.28559600940E+03  0.00000000000E+00 0.  1.
        -11    1    3    3    0    0 -0.14117967135E+04 -0.72780857073E+03  0.84055394732E+03  0.17970548723E+04  0.00000000000E+00 0. -1.
         22    1    1    2    0    0  0.16538995857E+04  0.83924181513E+03 -0.35364887442E+02  0.18549828406E+04  0.00000000000E+00 0.  1.
<mgrwt>
<rscale>  0 0.38315552E+04</rscale>
<asrwt>0</asrwt>
<pdfrwt beam="1">  1        2 0.37272751E+00 0.38315552E+04</pdfrwt>
<pdfrwt beam="2">  1       -2 0.23306229E+00 0.38315552E+04</pdfrwt>
<totfact> 0.25241289E-01</totfact>
</mgrwt>
</event>
<event>
 6    1  0.5196787E-004  0.2811061E+04  0.7818608E-02  0.8299842E-01
          2   -1    0    0  501    0  0.00000000000E+00  0.00000000000E+00  0.19115588772E+04  0.19115588772E+04  0.00000000000E+00 0.  1.
         -2   -1    0    0    0  501 -0.00000000000E+00 -0.00000000000E+00 -0.10334584120E+04  0.10334584120E+04  0.00000000000E+00 0. -1.
         23    2    1    2    0    0  0.37180253352E+03 -0.39686263408E+03 -0.91658182180E+03  0.10697515518E+04  0.92244632652E+02 0.  0.
         11    1    3    3    0    0  0.17612191842E+03 -0.12314692540E+03 -0.37177549315E+03  0.42941950665E+03  0.00000000000E+00 0. -1.
        -11    1    3    3    0    0  0.19568061510E+03 -0.27371570868E+03 -0.54480632865E+03  0.64033204514E+03  0.00000000000E+00 0.  1.
         22    1    1    2    0    0 -0.37180253352E+03  0.39686263408E+03  0.17946822871E+04  0.18752657374E+04  0.00000000000E+00 0.  1.
<mgrwt>
<rscale>  0 0.28110614E+04</rscale>
<asrwt>0</asrwt>
<pdfrwt beam="1">  1        2 0.29408598E+00 0.28110614E+04</pdfrwt>
<pdfrwt beam="2">  1       -2 0.15899360E+00 0.28110614E+04</pdfrwt>
<totfact> 0.16670510E+00</totfact>
</mgrwt>
</event>
<event>
 6    1  0.5196787E-004  0.2554298E+04  0.7818608E-02  0.8383893E-01
         -2   -1    0    0    0  501 -0.00000000000E+00  0.00000000000E+00  0.13407425645E+04  0.13407425645E+04  0.00000000000E+00 0. -1.
          2   -1    0    0  501    0  0.00000000000E+00 -0.00000000000E+00 -0.12165716789E+04  0.12165716789E+04  0.00000000000E+00 0.  1.
         23    2    1    2    0    0  0.59576986919E+03  0.11276497160E+04  0.37298992341E+02  0.12790019401E+04  0.88989487733E+02 0.  0.
         13    1    3    3    0    0  0.18638766431E+03  0.41868586090E+03 -0.16184671966E+02  0.45858494866E+03  0.00000000000E+00 0.  1.
        -13    1    3    3    0    0  0.40938220488E+03  0.70896385507E+03  0.53483664308E+02  0.82041699142E+03  0.00000000000E+00 0. -1.
         22    1    1    2    0    0 -0.59576986919E+03 -0.11276497160E+04  0.86871893178E+02  0.12783123033E+04  0.00000000000E+00 0. -1.
<mgrwt>
<rscale>  0 0.25542979E+04</rscale>
<asrwt>0</asrwt>
<pdfrwt beam="1">  1        2 0.18716487E+00 0.25542979E+04</pdfrwt>
<pdfrwt beam="2">  1       -2 0.20626809E+00 0.25542979E+04</pdfrwt>
<totfact> 0.19897632E+00</totfact>
</mgrwt>
</event>
<event>
 6    1  0.5196787E-004  0.9301257E+03  0.7818608E-02  0.9388687E-01
         -2   -1    0    0    0  501 -0.00000000000E+00  0.00000000000E+00  0.41865482117E+03  0.41865482117E+03  0.00000000000E+00 0. -1.
          2   -1    0    0  501    0  0.00000000000E+00 -0.00000000000E+00 -0.51661518685E+03  0.51661518685E+03  0.00000000000E+00 0.  1.
         23    2    1    2    0    0  0.43172244236E+03 -0.94534082901E+02 -0.17959572626E+03  0.48584226948E+03  0.92016986789E+02 0.  0.
         11    1    3    3    0    0  0.74151132508E+02 -0.51788541824E+02 -0.48318446096E+02  0.10254323844E+03  0.00000000000E+00 0. -1.
        -11    1    3    3    0    0  0.35757130985E+03 -0.42745541077E+02 -0.13127728016E+03  0.38329903104E+03  0.00000000000E+00 0.  1.
         22    1    1    2    0    0 -0.43172244236E+03  0.94534082901E+02  0.81635360579E+02  0.44942773853E+03  0.00000000000E+00 0. -1.
<mgrwt>
<rscale>  0 0.93012567E+03</rscale>
<asrwt>0</asrwt>
<pdfrwt beam="1">  1        2 0.79479259E-01 0.93012567E+03</pdfrwt>
<pdfrwt beam="2">  1       -2 0.64408434E-01 0.93012567E+03</pdfrwt>
<totfact> 0.13231361E+02</totfact>
</mgrwt>
</event>
<event>
 6    1  0.5196787E-004  0.4030467E+04  0.7818608E-02  0.7998428E-01
          2   -1    0    0  501    0  0.00000000000E+00  0.00000000000E+00  0.18725575733E+04  0.18725575733E+04  0.00000000000E+00 0.  1.
         -2   -1    0    0    0  501 -0.00000000000E+00 -0.00000000000E+00 -0.21687804977E+04  0.21687804977E+04  0.00000000000E+00 0. -1.
         23    2    1    2    0    0 -0.11746115410E+04  0.18908534481E+03 -0.17779211847E+04  0.21411024870E+04  0.88603504593E+02 0.  0.
         11    1    3    3    0    0 -0.83772818450E+03  0.15728606094E+03 -0.12114938521E+04  0.14812983392E+04  0.00000000000E+00 0.  1.
        -11    1    3    3    0    0 -0.33688335650E+03  0.31799283870E+02 -0.56642733266E+03  0.65980414786E+03  0.00000000000E+00 0. -1.
         22    1    1    2    0    0  0.11746115410E+04 -0.18908534481E+03  0.14816982604E+04  0.19002355840E+04  0.00000000000E+00 0.  1.
<mgrwt>
<rscale>  0 0.40304671E+04</rscale>
<asrwt>0</asrwt>
<pdfrwt beam="1">  1        2 0.28808578E+00 0.40304671E+04</pdfrwt>
<pdfrwt beam="2">  1       -2 0.33365854E+00 0.40304671E+04</pdfrwt>
<totfact> 0.12189425E-01</totfact>
</mgrwt>
</event>
<event>
 6    1  0.5196787E-004  0.3844184E+04  0.7818608E-02  0.8036739E-01
          2   -1    0    0  501    0  0.00000000000E+00  0.00000000000E+00  0.18703961514E+04  0.18703961514E+04  0.00000000000E+00 0.  1.
         -2   -1    0    0    0  501 -0.00000000000E+00 -0.00000000000E+00 -0.19752168521E+04  0.19752168521E+04  0.00000000000E+00 0. -1.
         23    2    1    2    0    0  0.72642733616E+03 -0.15840588200E+04  0.75606951900E+03  0.19018869451E+04  0.92702828120E+02 0.  0.
         11    1    3    3    0    0  0.20729333519E+03 -0.52100379821E+03  0.27861893184E+03  0.62613416593E+03  0.00000000000E+00 0.  1.
        -11    1    3    3    0    0  0.51913400098E+03 -0.10630550218E+04  0.47745058716E+03  0.12757527791E+04  0.00000000000E+00 0. -1.
         22    1    1    2    0    0 -0.72642733616E+03  0.15840588200E+04 -0.86089021971E+03  0.19437260585E+04  0.00000000000E+00 0. -1.
<mgrwt>
<rscale>  0 0.38441842E+04</rscale>
<asrwt>0</asrwt>
<pdfrwt beam="1">  1        2 0.28775325E+00 0.38441842E+04</pdfrwt>
<pdfrwt beam="2">  1       -2 0.30387952E+00 0.38441842E+04</pdfrwt>
<totfact> 0.18958029E-01</totfact>
</mgrwt>
</event>
<event>
 6    1  0.5196787E-004  0.4992579E+04  0.7818608E-02  0.7829653E-01
         -2   -1    0    0    0  501 -0.00000000000E+00  0.00000000000E+00  0.16421113522E+04  0.16421113522E+04  0.00000000000E+00 0. -1.
          2   -1    0    0  501    0  0.00000000000E+00 -0.00000000000E+00 -0.37947857937E+04  0.37947857937E+04  0.00000000000E+00 0.  1.
         23    2    1    2    0    0  0.10274965054E+04 -0.18701921564E+04 -0.24855845004E+04  0.32772219672E+04  0.93197332243E+02 0.  0.
         11    1    3    3    0    0  0.19494871857E+03 -0.29434588056E+03 -0.44011257696E+03  0.56421944373E+03  0.00000000000E+00 0. -1.
        -11    1    3    3    0    0  0.83254778681E+03 -0.15758462759E+04 -0.20454719235E+04  0.27130025234E+04  0.00000000000E+00 0.  1.
         22    1    1    2    0    0 -0.10274965054E+04  0.18701921564E+04  0.33291005890E+03  0.21596751788E+04  0.00000000000E+00 0. -1.
<mgrwt>
<rscale>  0 0.49925788E+04</rscale>
<asrwt>0</asrwt>
<pdfrwt beam="1">  1        2 0.58381319E+00 0.49925788E+04</pdfrwt>
<pdfrwt beam="2">  1       -2 0.25263252E+00 0.49925788E+04</pdfrwt>
<totfact> 0.22276547E-02</totfact>
</mgrwt>
</event>
<event>
 6    1  0.5196787E-004  0.1143838E+04  0.7818608E-02  0.9163487E-01
          2   -1    0    0  501    0  0.00000000000E+00  0.00000000000E+00  0.12054502512E+04  0.12054502512E+04  0.00000000000E+00 0.  1.
         -2   -1    0    0    0  501 -0.00000000000E+00 -0.00000000000E+00 -0.27134364010E+03  0.27134364010E+03  0.00000000000E+00 0. -1.
         23    2    1    2    0    0 -0.20986640509E+03  0.46481696715E+03  0.79399128845E+03  0.94789784800E+03  0.89383685212E+02 0.  0.
         13    1    3    3    0    0 -0.19828394468E+03  0.35530432287E+03  0.60315185272E+03  0.72756432156E+03  0.00000000000E+00 0. -1.
        -13    1    3    3    0    0 -0.11582460415E+02  0.10951264428E+03  0.19083943573E+03  0.22033352644E+03  0.00000000000E+00 0.  1.
         22    1    1    2    0    0  0.20986640509E+03 -0.46481696715E+03  0.14011532260E+03  0.52889604325E+03  0.00000000000E+00 0. -1.
<mgrwt>
<rscale>  0 0.11438379E+04</rscale>
<asrwt>0</asrwt>
<pdfrwt beam="1">  1        2 0.18545388E+00 0.11438379E+04</pdfrwt>
<pdfrwt beam="2">  1       -2 0.41745176E-01 0.11438379E+04</pdfrwt>
<totfact> 0.10115775E+02</totfact>
</mgrwt>
</event>
<event>
 6    1  0.5196787E-004  0.2556081E+04  0.7818608E-02  0.8383274E-01
          2   -1    0    0  501    0  0.00000000000E+00  0.00000000000E+00  0.22421987608E+04  0.22421987608E+04  0.00000000000E+00 0.  1.
         -2   -1    0    0    0  501 -0.00000000000E+00 -0.00000000000E+00 -0.72847559457E+03  0.72847559457E+03  0.00000000000E+00 0. -1.
         23    2    1    2    0    0 -0.57617757038E+03 -0.33948611097E+02  0.20809393002E+04  0.21614356741E+04  0.91447806365E+02 0.  0.
         11    1    3    3    0    0 -0.43030621315E+03  0.52663526359E+01  0.16310602951E+04  0.16868754719E+04  0.00000000000E+00 0.  1.
        -11    1    3    3    0    0 -0.14587135723E+03 -0.39214963733E+02  0.44987900509E+03  0.47456020214E+03  0.00000000000E+00 0. -1.
         22    1    1    2    0    0  0.57617757038E+03  0.33948611097E+02 -0.56721613391E+03  0.80923868134E+03  0.00000000000E+00 0. -1.
<mgrwt>
<rscale>  0 0.25560807E+04</rscale>
<asrwt>0</asrwt>
<pdfrwt beam="1">  1        2 0.34495365E+00 0.25560807E+04</pdfrwt>
<pdfrwt beam="2">  1       -2 0.11207317E+00 0.25560807E+04</pdfrwt>
<totfact> 0.27246352E+00</totfact>
</mgrwt>
</event>
<event>
 6    1  0.5196787E-004  0.1748801E+04  0.7818608E-02  0.8734010E-01
          2   -1    0    0  501    0  0.00000000000E+00  0.00000000000E+00  0.16816355579E+04  0.16816355579E+04  0.00000000000E+00 0.  1.
         -2   -1    0    0    0  501 -0.00000000000E+00 -0.00000000000E+00 -0.45466237155E+03  0.45466237155E+03  0.00000000000E+00 0. -1.
         23    2    1    2    0    0  0.14128209905E+03  0.80775991637E+03  0.97755638871E+03  0.12791833204E+04  0.90866716355E+02 0.  0.
         11    1    3    3    0    0  0.50535607627E+02  0.11229713955E+03  0.16294100080E+03  0.20424070342E+03  0.00000000000E+00 0. -1.
        -11    1    3    3    0    0  0.90746491424E+02  0.69546277682E+03  0.81461538790E+03  0.10749426170E+04  0.00000000000E+00 0.  1.
         22    1    1    2    0    0 -0.14128209905E+03 -0.80775991637E+03  0.24941679762E+03  0.85711460899E+03  0.00000000000E+00 0. -1.
<mgrwt>
<rscale>  0 0.17488012E+04</rscale>
<asrwt>0</asrwt>
<pdfrwt beam="1">  1        2 0.25871316E+00 0.17488012E+04</pdfrwt>
<pdfrwt beam="2">  1       -2 0.69948058E-01 0.17488012E+04</pdfrwt>
<totfact> 0.17719363E+01</totfact>
</mgrwt>
</event>
<event>
 6    1  0.5196787E-004  0.2990431E+04  0.7818608E-02  0.8246469E-01
          2   -1    0    0  501    0  0.00000000000E+00  0.00000000000E+00  0.34753882261E+04  0.34753882261E+04  0.00000000000E+00 0.  1.
         -2   -1    0    0    0  501 -0.00000000000E+00 -0.00000000000E+00 -0.64328625318E+03  0.64328625318E+03  0.00000000000E+00 0. -1.
         23    2    1    2    0    0 -0.60717583995E+03 -0.88673383853E+03  0.28463937043E+04  0.30438890799E+04  0.91346648214E+02 0.  0.
         13    1    3    3    0    0 -0.41414338272E+03 -0.52787086865E+03  0.17944782623E+04  0.19158065219E+04  0.00000000000E+00 0.  1.
        -13    1    3    3    0    0 -0.19303245722E+03 -0.35886296988E+03  0.10519154420E+04  0.11280825580E+04  0.00000000000E+00 0. -1.
         22    1    1    2    0    0  0.60717583995E+03  0.88673383853E+03 -0.14291731386E+02  0.10747853993E+04  0.00000000000E+00 0. -1.
<mgrwt>
<rscale>  0 0.29904311E+04</rscale>
<asrwt>0</asrwt>
<pdfrwt beam="1">  1        2 0.53467510E+00 0.29904311E+04</pdfrwt>
<pdfrwt beam="2">  1       -2 0.98967118E-01 0.29904311E+04</pdfrwt>
<totfact> 0.61293504E-01</totfact>
</mgrwt>
</event>
<event>
 6    1  0.5196787E-004  0.2955794E+04  0.7818608E-02  0.8256468E-01
         -1   -1    0    0    0  501 -0.00000000000E+00  0.00000000000E+00  0.87502153816E+03  0.87502153816E+03  0.00000000000E+00 0. -1.
          1   -1    0    0  501    0  0.00000000000E+00 -0.00000000000E+00 -0.24961442480E+04  0.24961442480E+04  0.00000000000E+00 0.  1.
         23    2    1    2    0    0 -0.20995616134E+03  0.10696163543E+04 -0.19471931571E+04  0.22334124422E+04  0.91701748203E+02 0.  0.
         13    1    3    3    0    0 -0.97431209053E+02  0.29488672881E+03 -0.52439461552E+03  0.60945938020E+03  0.00000000000E+00 0. -1.
        -13    1    3    3    0    0 -0.11252495229E+03  0.77472962553E+03 -0.14227985416E+04  0.16239530620E+04  0.00000000000E+00 0.  1.
         22    1    1    2    0    0  0.20995616134E+03 -0.10696163543E+04  0.32607044727E+03  0.11377533440E+04  0.00000000000E+00 0.  1.
<mgrwt>
<rscale>  0 0.29557943E+04</rscale>
<asrwt>0</asrwt>
<pdfrwt beam="1">  1        1 0.38402219E+00 0.29557943E+04</pdfrwt>
<pdfrwt beam="2">  1       -1 0.13461870E+00 0.29557943E+04</pdfrwt>
<totfact> 0.54009744E-01</totfact>
</mgrwt>
</event>
<event>
 6    1  0.5196787E-004  0.2062826E+04  0.7818608E-02  0.8577798E-01
          2   -1    0    0  501    0  0.00000000000E+00  0.00000000000E+00  0.45817133221E+04  0.45817133221E+04  0.00000000000E+00 0.  1.
         -2   -1    0    0    0  501 -0.00000000000E+00 -0.00000000000E+00 -0.23218668279E+03  0.23218668279E+03  0.00000000000E+00 0. -1.
         23    2    1    2    0    0  0.49367104223E+03 -0.88897342644E+03  0.25527314514E+04  0.27493279431E+04  0.91550124026E+02 0.  0.
         11    1    3    3    0    0  0.34130386132E+03 -0.60096445998E+03  0.16175246476E+04  0.17589862403E+04  0.00000000000E+00 0. -1.
        -11    1    3    3    0    0  0.15236718091E+03 -0.28800896646E+03  0.93520680380E+03  0.99034170287E+03  0.00000000000E+00 0.  1.
         22    1    1    2    0    0 -0.49367104223E+03  0.88897342644E+03  0.17967951880E+04  0.20645720618E+04  0.00000000000E+00 0. -1.
<mgrwt>
<rscale>  0 0.20628260E+04</rscale>
<asrwt>0</asrwt>
<pdfrwt beam="1">  1        2 0.70487891E+00 0.20628260E+04</pdfrwt>
<pdfrwt beam="2">  1       -2 0.35721032E-01 0.20628260E+04</pdfrwt>
<totfact> 0.70593472E-01</totfact>
</mgrwt>
</event>
<event>
 6    1  0.5196787E-004  0.1625683E+04  0.7818608E-02  0.8804923E-01
         -2   -1    0    0    0  501 -0.00000000000E+00  0.00000000000E+00  0.21748941593E+03  0.21748941593E+03  0.00000000000E+00 0. -1.
          2   -1    0    0  501    0  0.00000000000E+00 -0.00000000000E+00 -0.30379026808E+04  0.30379026808E+04  0.00000000000E+00 0.  1.
         23    2    1    2    0    0 -0.79703131317E+03  0.57927872099E+02 -0.11463934972E+04  0.14004104971E+04  0.91197353897E+02 0.  0.
         13    1    3    3    0    0 -0.10458371133E+03  0.38952758303E+02 -0.16157654196E+03  0.19637222045E+03  0.00000000000E+00 0. -1.
        -13    1    3    3    0    0 -0.69244760184E+03  0.18975113796E+02 -0.98481695524E+03  0.12040382766E+04  0.00000000000E+00 0.  1.
         22    1    1    2    0    0  0.79703131317E+03 -0.57927872099E+02 -0.16740197677E+04  0.18549815997E+04  0.00000000000E+00 0.  1.
<mgrwt>
<rscale>  0 0.16256835E+04</rscale>
<asrwt>0</asrwt>
<pdfrwt beam="1">  1        2 0.46736961E+00 0.16256835E+04</pdfrwt>
<pdfrwt beam="2">  1       -2 0.33459913E-01 0.16256835E+04</pdfrwt>
<totfact> 0.13246369E+01</totfact>
</mgrwt>
</event>
<event>
 6    1  0.5196787E-004  0.6066679E+03  0.7818608E-02  0.9891668E-01
          2   -1    0    0  501    0  0.00000000000E+00  0.00000000000E+00  0.36049597169E+03  0.36049597169E+03  0.00000000000E+00 0.  1.
         -2   -1    0    0    0  501 -0.00000000000E+00 -0.00000000000E+00 -0.25523579357E+03  0.25523579357E+03  0.00000000000E+00 0. -1.
         23    2    1    2    0    0 -0.80578443173E+02  0.18916942762E+03 -0.16367930686E+03  0.27719608851E+03  0.88140785906E+02 0.  0.
         13    1    3    3    0    0 -0.21614938603E+02  0.64137263501E+02 -0.10948245991E+03  0.12871364795E+03  0.00000000000E+00 0. -1.
        -13    1    3    3    0    0 -0.58963504570E+02  0.12503216412E+03 -0.54196846950E+02  0.14848244056E+03  0.00000000000E+00 0.  1.
         22    1    1    2    0    0  0.80578443173E+02 -0.18916942762E+03  0.26893948498E+03  0.33853567675E+03  0.00000000000E+00 0.  1.
<mgrwt>
<rscale>  0 0.60666787E+03</rscale>
<asrwt>0</asrwt>
<pdfrwt beam="1">  1        2 0.55460919E-01 0.60666787E+03</pdfrwt>
<pdfrwt beam="2">  1       -2 0.39267045E-01 0.60666787E+03</pdfrwt>
<totfact> 0.55233519E+02</totfact>
</mgrwt>
</event>
<event>
 6    1  0.5196787E-004  0.3158925E+04  0.7818608E-02  0.8199750E-01
          2   -1    0    0  501    0  0.00000000000E+00  0.00000000000E+00  0.21316607351E+04  0.21316607351E+04  0.00000000000E+00 0.  1.
         -2   -1    0    0    0  501 -0.00000000000E+00 -0.00000000000E+00 -0.11703092285E+04  0.11703092285E+04  0.00000000000E+00 0. -1.
         23    2    1    2    0    0  0.12719072045E+04 -0.92151841865E+03  0.31899181494E+03  0.16050403522E+04  0.86340148465E+02 0.  0.
         11    1    3    3    0    0  0.76143981244E+03 -0.55712940284E+03  0.14860756700E+03  0.95512720014E+03  0.00000000000E+00 0. -1.
        -11    1    3    3    0    0  0.51046739208E+03 -0.36438901581E+03  0.17038424794E+03  0.64991315202E+03  0.00000000000E+00 0.  1.
         22    1    1    2    0    0 -0.12719072045E+04  0.92151841865E+03  0.64235969161E+03  0.16969296114E+04  0.00000000000E+00 0.  1.
<mgrwt>
<rscale>  0 0.31589253E+04</rscale>
<asrwt>0</asrwt>
<pdfrwt beam="1">  1        2 0.32794780E+00 0.31589253E+04</pdfrwt>
<pdfrwt beam="2">  1       -2 0.18004757E+00 0.31589253E+04</pdfrwt>
<totfact> 0.86359693E-01</totfact>
</mgrwt>
</event>
<event>
 6    1  0.5196787E-004  0.1044253E+04  0.7818608E-02  0.9261298E-01
          2   -1    0    0  501    0  0.00000000000E+00  0.00000000000E+00  0.10145001755E+04  0.10145001755E+04  0.00000000000E+00 0.  1.
         -2   -1    0    0    0  501 -0.00000000000E+00 -0.00000000000E+00 -0.26871953424E+03  0.26871953424E+03  0.00000000000E+00 0. -1.
         23    2    1    2    0    0  0.43242002102E+02  0.11818297430E+02  0.10100243707E+04  0.10152005099E+04  0.92050545458E+02 0.  0.
         13    1    3    3    0    0 -0.84679948318E+01  0.41350016753E+02  0.36464352408E+03  0.36707823482E+03  0.00000000000E+00 0. -1.
        -13    1    3    3    0    0  0.51709996934E+02 -0.29531719323E+02  0.64538084664E+03  0.64812227507E+03  0.00000000000E+00 0.  1.
         22    1    1    2    0    0 -0.43242002102E+02 -0.11818297430E+02 -0.26424372949E+03  0.26801919983E+03  0.00000000000E+00 0. -1.
<mgrwt>
<rscale>  0 0.10442529E+04</rscale>
<asrwt>0</asrwt>
<pdfrwt beam="1">  1        2 0.15607695E+00 0.10442529E+04</pdfrwt>
<pdfrwt beam="2">  1       -2 0.41341467E-01 0.10442529E+04</pdfrwt>
<totfact> 0.13601293E+02</totfact>
</mgrwt>
</event>
<event>
 6    1  0.5196787E-004  0.3514519E+04  0.7818608E-02  0.8110358E-01
          2   -1    0    0  501    0  0.00000000000E+00  0.00000000000E+00  0.14892253462E+04  0.14892253462E+04  0.00000000000E+00 0.  1.
         -2   -1    0    0    0  501 -0.00000000000E+00 -0.00000000000E+00 -0.20735351375E+04  0.20735351375E+04  0.00000000000E+00 0. -1.
         23    2    1    2    0    0 -0.16548238274E+04  0.23824725960E+03  0.25478896971E+03  0.16921214519E+04  0.56159882604E+02 0.  0.
         11    1    3    3    0    0 -0.11653493446E+04  0.14182891115E+03  0.17824587319E+03  0.11874031018E+04  0.00000000000E+00 0.  1.
        -11    1    3    3    0    0 -0.48947448287E+03  0.96418348449E+02  0.76543096519E+02  0.50471835009E+03  0.00000000000E+00 0. -1.
         22    1    1    2    0    0  0.16548238274E+04 -0.23824725960E+03 -0.83909876101E+03  0.18706390318E+04  0.00000000000E+00 0. -1.
<mgrwt>
<rscale>  0 0.35145191E+04</rscale>
<asrwt>0</asrwt>
<pdfrwt beam="1">  1        2 0.22911159E+00 0.35145191E+04</pdfrwt>
<pdfrwt beam="2">  1       -2 0.31900540E+00 0.35145191E+04</pdfrwt>
<totfact> 0.25653622E-01</totfact>
</mgrwt>
</event>
<event>
 6    1  0.5196787E-004  0.2651453E+04  0.7818608E-02  0.8350931E-01
          2   -1    0    0  501    0  0.00000000000E+00  0.00000000000E+00  0.20175131459E+04  0.20175131459E+04  0.00000000000E+00 0.  1.
         -2   -1    0    0    0  501 -0.00000000000E+00 -0.00000000000E+00 -0.87114699503E+03  0.87114699503E+03  0.00000000000E+00 0. -1.
         23    2    1    2    0    0  0.11150636525E+04 -0.49542733950E+03  0.13361918900E+02  0.12235734202E+04  0.90211838245E+02 0.  0.
         13    1    3    3    0    0  0.87803839472E+03 -0.42369889907E+03  0.29910602473E+02  0.97538034828E+03  0.00000000000E+00 0.  1.
        -13    1    3    3    0    0  0.23702525782E+03 -0.71728440433E+02 -0.16548683573E+02  0.24819307190E+03  0.00000000000E+00 0. -1.
         22    1    1    2    0    0 -0.11150636525E+04  0.49542733950E+03  0.11330042319E+04  0.16650867207E+04  0.00000000000E+00 0.  1.
<mgrwt>
<rscale>  0 0.26514528E+04</rscale>
<asrwt>0</asrwt>
<pdfrwt beam="1">  1        2 0.31038664E+00 0.26514528E+04</pdfrwt>
<pdfrwt beam="2">  1       -2 0.13402262E+00 0.26514528E+04</pdfrwt>
<totfact> 0.23127448E+00</totfact>
</mgrwt>
</event>
<event>
 6    1  0.5196787E-004  0.2436494E+04  0.7818608E-02  0.8425966E-01
         -2   -1    0    0    0  501 -0.00000000000E+00  0.00000000000E+00  0.11446289084E+04  0.11446289084E+04  0.00000000000E+00 0. -1.
          2   -1    0    0  501    0  0.00000000000E+00 -0.00000000000E+00 -0.12965996982E+04  0.12965996982E+04  0.00000000000E+00 0.  1.
         23    2    1    2    0    0  0.58067082239E+03  0.79862530696E+03 -0.78809716485E+03  0.12666487881E+04  0.91219659922E+02 0.  0.
         11    1    3    3    0    0  0.32425699896E+03  0.38383379719E+03 -0.36506949734E+03  0.62108511746E+03  0.00000000000E+00 0. -1.
        -11    1    3    3    0    0  0.25641382343E+03  0.41479150977E+03 -0.42302766751E+03  0.64556367068E+03  0.00000000000E+00 0.  1.
         22    1    1    2    0    0 -0.58067082239E+03 -0.79862530696E+03  0.63612637503E+03  0.11745798184E+04  0.00000000000E+00 0. -1.
<mgrwt>
<rscale>  0 0.24364938E+04</rscale>
<asrwt>0</asrwt>
<pdfrwt beam="1">  1        2 0.19947688E+00 0.24364938E+04</pdfrwt>
<pdfrwt beam="2">  1       -2 0.17609676E+00 0.24364938E+04</pdfrwt>
<totfact> 0.28742373E+00</totfact>
</mgrwt>
</event>
<event>
 6    1  0.5196787E-004  0.7967817E+03  0.7818608E-02  0.9564687E-01
          2   -1    0    0  501    0  0.00000000000E+00  0.00000000000E+00  0.12677779745E+03  0.12677779745E+03  0.00000000000E+00 0.  1.
         -2   -1    0    0    0  501 -0.00000000000E+00 -0.00000000000E+00 -0.12519169661E+04  0.12519169661E+04  0.00000000000E+00 0. -1.
         23    2    1    2    0    0 -0.12366625297E+03 -0.27103524539E+03 -0.10139821632E+04  0.10607178364E+04  0.90603834045E+02 0.  0.
         13    1    3    3    0    0 -0.66141474486E+02 -0.20130277782E+03 -0.81621336176E+03  0.84326849516E+03  0.00000000000E+00 0. -1.
        -13    1    3    3    0    0 -0.57524778480E+02 -0.69732467574E+02 -0.19776880144E+03  0.21744934122E+03  0.00000000000E+00 0.  1.
         22    1    1    2    0    0  0.12366625297E+03  0.27103524539E+03 -0.11115700547E+03  0.31797692720E+03  0.00000000000E+00 0.  1.
<mgrwt>
<rscale>  0 0.79678172E+03</rscale>
<asrwt>0</asrwt>
<pdfrwt beam="1">  1        2 0.19504277E-01 0.79678172E+03</pdfrwt>
<pdfrwt beam="2">  1       -2 0.19260261E+00 0.79678172E+03</pdfrwt>
<totfact> 0.44148304E+01</totfact>
</mgrwt>
</event>
<event>
 6    1  0.5196787E-004  0.1885417E+04  0.7818608E-02  0.8662150E-01
         -2   -1    0    0    0  501 -0.00000000000E+00  0.00000000000E+00  0.45718786298E+03  0.45718786298E+03  0.00000000000E+00 0. -1.
          2   -1    0    0  501    0  0.00000000000E+00 -0.00000000000E+00 -0.19438376331E+04  0.19438376331E+04  0.00000000000E+00 0.  1.
         23    2    1    2    0    0  0.16862824138E+01  0.18549066326E+03 -0.19191558330E+04  0.19304183094E+04  0.94583868756E+02 0.  0.
         13    1    3    3    0    0  0.28988026551E+02  0.16607039806E+03 -0.13867452108E+04  0.13969545313E+04  0.00000000000E+00 0. -1.
        -13    1    3    3    0    0 -0.27301744138E+02  0.19420265204E+02 -0.53241062218E+03  0.53346377810E+03  0.00000000000E+00 0.  1.
         22    1    1    2    0    0 -0.16862824138E+01 -0.18549066326E+03  0.43250606289E+03  0.47060718667E+03  0.00000000000E+00 0. -1.
<mgrwt>
<rscale>  0 0.18854166E+04</rscale>
<asrwt>0</asrwt>
<pdfrwt beam="1">  1        2 0.29905194E+00 0.18854166E+04</pdfrwt>
<pdfrwt beam="2">  1       -2 0.70336595E-01 0.18854166E+04</pdfrwt>
<totfact> 0.12382253E+01</totfact>
</mgrwt>
</event>
<event>
 6    1  0.5196787E-004  0.2444717E+04  0.7818608E-02  0.8422950E-01
          2   -1    0    0  501    0  0.00000000000E+00  0.00000000000E+00  0.35411425486E+04  0.35411425486E+04  0.00000000000E+00 0.  1.
         -2   -1    0    0    0  501 -0.00000000000E+00 -0.00000000000E+00 -0.42194287863E+03  0.42194287863E+03  0.00000000000E+00 0. -1.
         23    2    1    2    0    0 -0.73541534893E+03  0.93371006293E+03  0.11115921387E+04  0.16300320166E+04  0.93365279285E+02 0.  0.
         13    1    3    3    0    0 -0.65256181393E+02  0.12435932256E+03  0.11042376007E+03  0.17865334340E+03  0.00000000000E+00 0. -1.
        -13    1    3    3    0    0 -0.67015916754E+03  0.80935074036E+03  0.10011683786E+04  0.14513786732E+04  0.00000000000E+00 0.  1.
         22    1    1    2    0    0  0.73541534893E+03 -0.93371006293E+03  0.20076075313E+04  0.23330534106E+04  0.00000000000E+00 0.  1.
<mgrwt>
<rscale>  0 0.24447167E+04</rscale>
<asrwt>0</asrwt>
<pdfrwt beam="1">  1        2 0.54479114E+00 0.24447167E+04</pdfrwt>
<pdfrwt beam="2">  1       -2 0.64914291E-01 0.24447167E+04</pdfrwt>
<totfact> 0.14944572E+00</totfact>
</mgrwt>
</event>
<event>
 6    1  0.5196787E-004  0.1296736E+04  0.7818608E-02  0.9032158E-01
          2   -1    0    0  501    0  0.00000000000E+00  0.00000000000E+00  0.40391092362E+03  0.40391092362E+03  0.00000000000E+00 0.  1.
         -2   -1    0    0    0  501 -0.00000000000E+00 -0.00000000000E+00 -0.10407762571E+04  0.10407762571E+04  0.00000000000E+00 0. -1.
         23    2    1    2    0    0 -0.43711617148E+03 -0.34349199202E+03 -0.68475378754E+03  0.88669918806E+03  0.91051659001E+02 0.  0.
         11    1    3    3    0    0 -0.19261549402E+03 -0.95216587215E+02 -0.26441171791E+03  0.34070586080E+03  0.00000000000E+00 0. -1.
        -11    1    3    3    0    0 -0.24450067746E+03 -0.24827540480E+03 -0.42034206963E+03  0.54599332726E+03  0.00000000000E+00 0.  1.
         22    1    1    2    0    0  0.43711617148E+03  0.34349199202E+03  0.47888454025E+02  0.55798799269E+03  0.00000000000E+00 0. -1.
<mgrwt>
<rscale>  0 0.12967357E+04</rscale>
<asrwt>0</asrwt>
<pdfrwt beam="1">  1        2 0.62140143E-01 0.12967357E+04</pdfrwt>
<pdfrwt beam="2">  1       -2 0.16011942E+00 0.12967357E+04</pdfrwt>
<totfact> 0.19361060E+01</totfact>
</mgrwt>
</event>
<event>
 6    1  0.5196787E-004  0.3221251E+04  0.7818608E-02  0.8183227E-01
          2   -1    0    0  501    0  0.00000000000E+00  0.00000000000E+00  0.20250048413E+04  0.20250048413E+04  0.00000000000E+00 0.  1.
         -2   -1    0    0    0  501 -0.00000000000E+00 -0.00000000000E+00 -0.12810414389E+04  0.12810414389E+04  0.00000000000E+00 0. -1.
         23    2    1    2    0    0  0.11580142360E+04 -0.10926970204E+04  0.61364052959E+03  0.17085583146E+04  0.87367417242E+02 0.  0.
         13    1    3    3    0    0  0.67759423339E+03 -0.69790638377E+03  0.37627680980E+03  0.10429724365E+04  0.00000000000E+00 0.  1.
        -13    1    3    3    0    0  0.48042000258E+03 -0.39479063666E+03  0.23736371980E+03  0.66558587811E+03  0.00000000000E+00 0. -1.
         22    1    1    2    0    0 -0.11580142360E+04  0.10926970204E+04  0.13032287276E+03  0.15974879656E+04  0.00000000000E+00 0. -1.
<mgrwt>
<rscale>  0 0.32212514E+04</rscale>
<asrwt>0</asrwt>
<pdfrwt beam="1">  1        2 0.31153921E+00 0.32212514E+04</pdfrwt>
<pdfrwt beam="2">  1       -2 0.19708330E+00 0.32212514E+04</pdfrwt>
<totfact> 0.75619040E-01</totfact>
</mgrwt>
</event>
<event>
 6    1  0.5196787E-004  0.2267520E+04  0.7818608E-02  0.8490839E-01
         -2   -1    0    0    0  501 -0.00000000000E+00  0.00000000000E+00  0.14593459498E+04  0.14593459498E+04  0.00000000000E+00 0. -1.
          2   -1    0    0  501    0  0.00000000000E+00 -0.00000000000E+00 -0.88081390502E+03  0.88081390502E+03  0.00000000000E+00 0.  1.
         23    2    1    2    0    0 -0.10866423902E+04  0.30108005302E+03  0.18773703251E+03  0.11467774249E+04  0.91719062666E+02 0.  0.
         13    1    3    3    0    0 -0.34526381574E+03  0.51782565537E+02  0.55750410587E+02  0.35354864564E+03  0.00000000000E+00 0.  1.
        -13    1    3    3    0    0 -0.74137857442E+03  0.24929748748E+03  0.13198662193E+03  0.79322877926E+03  0.00000000000E+00 0. -1.
         22    1    1    2    0    0  0.10866423902E+04 -0.30108005302E+03  0.39079501226E+03  0.11933824299E+04  0.00000000000E+00 0. -1.
<mgrwt>
<rscale>  0 0.22675204E+04</rscale>
<asrwt>0</asrwt>
<pdfrwt beam="1">  1        2 0.13550983E+00 0.22675204E+04</pdfrwt>
<pdfrwt beam="2">  1       -2 0.22451476E+00 0.22675204E+04</pdfrwt>
<totfact> 0.25415170E+00</totfact>
</mgrwt>
</event>
<event>
 6    1  0.5196787E-004  0.3747828E+04  0.7818608E-02  0.8057444E-01
         -2   -1    0    0    0  501 -0.00000000000E+00  0.00000000000E+00  0.14459983871E+04  0.14459983871E+04  0.00000000000E+00 0.  1.
          2   -1    0    0  501    0  0.00000000000E+00 -0.00000000000E+00 -0.24284630390E+04  0.24284630390E+04  0.00000000000E+00 0. -1.
         23    2    1    2    0    0  0.11973749204E+04  0.54902084274E+03  0.88470720596E+03  0.15894097128E+04  0.91574062312E+02 0.  0.
         11    1    3    3    0    0  0.60115249834E+03  0.22534914801E+03  0.42746773043E+03  0.77129451271E+03  0.00000000000E+00 0. -1.
        -11    1    3    3    0    0  0.59622242208E+03  0.32367169473E+03  0.45723947553E+03  0.81811520004E+03  0.00000000000E+00 0.  1.
         22    1    1    2    0    0 -0.11973749204E+04 -0.54902084274E+03 -0.18671718579E+04  0.22850517134E+04  0.00000000000E+00 0. -1.
<mgrwt>
<rscale>  0 0.37478280E+04</rscale>
<asrwt>0</asrwt>
<pdfrwt beam="1">  1        2 0.37360970E+00 0.37478280E+04</pdfrwt>
<pdfrwt beam="2">  1       -2 0.22246129E+00 0.37478280E+04</pdfrwt>
<totfact> 0.29397074E-01</totfact>
</mgrwt>
</event>
<event>
 6    1  0.5196787E-004  0.1681764E+04  0.7818608E-02  0.8771834E-01
         -2   -1    0    0    0  501 -0.00000000000E+00  0.00000000000E+00  0.18659115711E+03  0.18659115711E+03  0.00000000000E+00 0. -1.
          2   -1    0    0  501    0  0.00000000000E+00 -0.00000000000E+00 -0.37894759864E+04  0.37894759864E+04  0.00000000000E+00 0.  1.
         23    2    1    2    0    0  0.40914090521E+03  0.51483938662E+03 -0.30360723359E+04  0.31078895827E+04  0.93736628683E+02 0.  0.
         13    1    3    3    0    0  0.13192956887E+03  0.11874483330E+03 -0.68499928958E+03  0.70762262068E+03  0.00000000000E+00 0.  1.
        -13    1    3    3    0    0  0.27721133634E+03  0.39609455332E+03 -0.23510730463E+04  0.24002669621E+04  0.00000000000E+00 0. -1.
         22    1    1    2    0    0 -0.40914090521E+03 -0.51483938662E+03 -0.56681249345E+03  0.86817756079E+03  0.00000000000E+00 0. -1.
<mgrwt>
<rscale>  0 0.16817642E+04</rscale>
<asrwt>0</asrwt>
<pdfrwt beam="1">  1        2 0.58299629E+00 0.16817642E+04</pdfrwt>
<pdfrwt beam="2">  1       -2 0.28706333E-01 0.16817642E+04</pdfrwt>
<totfact> 0.53828802E+00</totfact>
</mgrwt>
</event>
<event>
 6    1  0.5196787E-004  0.1790797E+04  0.7818608E-02  0.8711209E-01
         -2   -1    0    0    0  501 -0.00000000000E+00  0.00000000000E+00  0.56339865892E+03  0.56339865892E+03  0.00000000000E+00 0. -1.
          2   -1    0    0  501    0  0.00000000000E+00 -0.00000000000E+00 -0.14230392350E+04  0.14230392350E+04  0.00000000000E+00 0.  1.
         23    2    1    2    0    0 -0.41665861596E+03 -0.69980712407E+02 -0.13035723426E+04  0.13735944264E+04  0.94652487811E+02 0.  0.
         13    1    3    3    0    0 -0.11895705183E+03  0.22837868188E+02 -0.36668786425E+03  0.38617656349E+03  0.00000000000E+00 0. -1.
        -13    1    3    3    0    0 -0.29770156414E+03 -0.92818580596E+02 -0.93688447831E+03  0.98741786286E+03  0.00000000000E+00 0.  1.
         22    1    1    2    0    0  0.41665861596E+03  0.69980712407E+02  0.44393176652E+03  0.61284346753E+03  0.00000000000E+00 0. -1.
<mgrwt>
<rscale>  0 0.17907969E+04</rscale>
<asrwt>0</asrwt>
<pdfrwt beam="1">  1        2 0.21892911E+00 0.17907969E+04</pdfrwt>
<pdfrwt beam="2">  1       -2 0.86676718E-01 0.17907969E+04</pdfrwt>
<totfact> 0.15283688E+01</totfact>
</mgrwt>
</event>
<event>
 6    1  0.5196787E-004  0.1919347E+04  0.7818608E-02  0.8645286E-01
         -1   -1    0    0    0  501 -0.00000000000E+00  0.00000000000E+00  0.70319300408E+03  0.70319300408E+03  0.00000000000E+00 0. -1.
          1   -1    0    0  501    0  0.00000000000E+00 -0.00000000000E+00 -0.13097014969E+04  0.13097014969E+04  0.00000000000E+00 0.  1.
         23    2    1    2    0    0 -0.71094634433E+03  0.17644739201E+03 -0.95058919904E+03  0.12035923825E+04  0.91849938021E+02 0.  0.
         11    1    3    3    0    0 -0.14078333262E+03 -0.12995301140E+01 -0.16959341692E+03  0.22041679288E+03  0.00000000000E+00 0.  1.
        -11    1    3    3    0    0 -0.57016301171E+03  0.17774692212E+03 -0.78099578212E+03  0.98317558957E+03  0.00000000000E+00 0. -1.
         22    1    1    2    0    0  0.71094634433E+03 -0.17644739201E+03  0.34408070621E+03  0.80930211853E+03  0.00000000000E+00 0.  1.
<mgrwt>
<rscale>  0 0.19193467E+04</rscale>
<asrwt>0</asrwt>
<pdfrwt beam="1">  1        1 0.20149254E+00 0.19193467E+04</pdfrwt>
<pdfrwt beam="2">  1       -1 0.10818354E+00 0.19193467E+04</pdfrwt>
<totfact> 0.66010419E+00</totfact>
</mgrwt>
</event>
<event>
 6    1  0.5196787E-004  0.2477396E+04  0.7818608E-02  0.8411083E-01
          2   -1    0    0  501    0  0.00000000000E+00  0.00000000000E+00  0.72247735154E+03  0.72247735154E+03  0.00000000000E+00 0.  1.
         -2   -1    0    0    0  501 -0.00000000000E+00 -0.00000000000E+00 -0.21237663493E+04  0.21237663493E+04  0.00000000000E+00 0. -1.
         23    2    1    2    0    0  0.88244275902E+03 -0.29806075560E+03  0.23362279949E+03  0.96462683713E+03  0.91541714553E+02 0.  0.
         13    1    3    3    0    0  0.74842487567E+03 -0.24757128711E+03  0.23074152836E+03  0.82138479998E+03  0.00000000000E+00 0.  1.
        -13    1    3    3    0    0  0.13401788334E+03 -0.50489468485E+02  0.28812711306E+01  0.14324203715E+03  0.00000000000E+00 0. -1.
         22    1    1    2    0    0 -0.88244275902E+03  0.29806075560E+03 -0.16349117972E+04  0.18816168637E+04  0.00000000000E+00 0. -1.
<mgrwt>
<rscale>  0 0.24773963E+04</rscale>
<asrwt>0</asrwt>
<pdfrwt beam="1">  1        2 0.11115036E+00 0.24773963E+04</pdfrwt>
<pdfrwt beam="2">  1       -2 0.32673328E+00 0.24773963E+04</pdfrwt>
<totfact> 0.76520583E-01</totfact>
</mgrwt>
</event>
<event>
 6    1  0.5196787E-004  0.2434228E+04  0.7818608E-02  0.8426799E-01
          2   -1    0    0  501    0  0.00000000000E+00  0.00000000000E+00  0.10416692720E+04  0.10416692720E+04  0.00000000000E+00 0.  1.
         -2   -1    0    0    0  501 -0.00000000000E+00 -0.00000000000E+00 -0.14221083264E+04  0.14221083264E+04  0.00000000000E+00 0. -1.
         23    2    1    2    0    0 -0.74388706356E+03  0.36748397181E+03 -0.10894013158E+04  0.13724298441E+04  0.91411253725E+02 0.  0.
         11    1    3    3    0    0 -0.59925353368E+02  0.54223502666E+02 -0.13279721879E+03  0.15545525895E+03  0.00000000000E+00 0.  1.
        -11    1    3    3    0    0 -0.68396171020E+03  0.31326046915E+03 -0.95660409696E+03  0.12169745851E+04  0.00000000000E+00 0. -1.
         22    1    1    2    0    0  0.74388706356E+03 -0.36748397181E+03  0.70896226130E+03  0.10913477543E+04  0.00000000000E+00 0.  1.
<mgrwt>
<rscale>  0 0.24342280E+04</rscale>
<asrwt>0</asrwt>
<pdfrwt beam="1">  1        2 0.16025681E+00 0.24342280E+04</pdfrwt>
<pdfrwt beam="2">  1       -2 0.21878590E+00 0.24342280E+04</pdfrwt>
<totfact> 0.21371040E+00</totfact>
</mgrwt>
</event>
<event>
 6    1  0.5196787E-004  0.2140976E+04  0.7818608E-02  0.8543405E-01
         -2   -1    0    0    0  501 -0.00000000000E+00  0.00000000000E+00  0.12058680205E+04  0.12058680205E+04  0.00000000000E+00 0. -1.
          2   -1    0    0  501    0  0.00000000000E+00 -0.00000000000E+00 -0.95030636021E+03  0.95030636021E+03  0.00000000000E+00 0.  1.
         23    2    1    2    0    0 -0.85971507124E+03  0.62083150193E+03 -0.31922628469E+01  0.10646179918E+04  0.94125025424E+02 0.  0.
         13    1    3    3    0    0 -0.79713256310E+03  0.55109881815E+03  0.14840880959E+02  0.96920095041E+03  0.00000000000E+00 0. -1.
        -13    1    3    3    0    0 -0.62582508137E+02  0.69732683780E+02 -0.18033143806E+02  0.95417041389E+02  0.00000000000E+00 0.  1.
         22    1    1    2    0    0  0.85971507124E+03 -0.62083150193E+03  0.25875392317E+03  0.10915563889E+04  0.00000000000E+00 0. -1.
<mgrwt>
<rscale>  0 0.21409755E+04</rscale>
<asrwt>0</asrwt>
<pdfrwt beam="1">  1        2 0.14620098E+00 0.21409755E+04</pdfrwt>
<pdfrwt beam="2">  1       -2 0.18551816E+00 0.21409755E+04</pdfrwt>
<totfact> 0.41412487E+00</totfact>
</mgrwt>
</event>
<event>
 6    1  0.5196787E-004  0.1529056E+04  0.7818608E-02  0.8865358E-01
         -2   -1    0    0    0  501 -0.00000000000E+00  0.00000000000E+00  0.20950726408E+04  0.20950726408E+04  0.00000000000E+00 0. -1.
          2   -1    0    0  501    0  0.00000000000E+00 -0.00000000000E+00 -0.27898931542E+03  0.27898931542E+03  0.00000000000E+00 0.  1.
         23    2    1    2    0    0 -0.17588265864E+03  0.52628669482E+03  0.10042656965E+03  0.57090070490E+03  0.89048998918E+02 0.  0.
         11    1    3    3    0    0 -0.54785740596E+02  0.30190958300E+03  0.62206800362E+02  0.31308235289E+03  0.00000000000E+00 0.  1.
        -11    1    3    3    0    0 -0.12109691804E+03  0.22437711182E+03  0.38219769292E+02  0.25781835201E+03  0.00000000000E+00 0. -1.
         22    1    1    2    0    0  0.17588265864E+03 -0.52628669482E+03  0.17156567557E+04  0.18031612513E+04  0.00000000000E+00 0. -1.
<mgrwt>
<rscale>  0 0.15290558E+04</rscale>
<asrwt>0</asrwt>
<pdfrwt beam="1">  1        2 0.42921435E-01 0.15290558E+04</pdfrwt>
<pdfrwt beam="2">  1       -2 0.32231886E+00 0.15290558E+04</pdfrwt>
<totfact> 0.26722457E+00</totfact>
</mgrwt>
</event>
<event>
 6    1  0.5196787E-004  0.2206084E+04  0.7818608E-02  0.8515900E-01
         -2   -1    0    0    0  501 -0.00000000000E+00  0.00000000000E+00  0.47605114460E+03  0.47605114460E+03  0.00000000000E+00 0.  1.
          2   -1    0    0  501    0  0.00000000000E+00 -0.00000000000E+00 -0.25558203566E+04  0.25558203566E+04  0.00000000000E+00 0. -1.
         23    2    1    2    0    0  0.98547666355E+03 -0.36568817222E+03 -0.58971676061E+03  0.12083725564E+04  0.86638811666E+02 0.  0.
         11    1    3    3    0    0  0.34540004305E+03 -0.87345569087E+02 -0.21611117754E+03  0.41669470747E+03  0.00000000000E+00 0.  1.
        -11    1    3    3    0    0  0.64007662050E+03 -0.27834260313E+03 -0.37360558307E+03  0.79167784895E+03  0.00000000000E+00 0. -1.
         22    1    1    2    0    0 -0.98547666355E+03  0.36568817222E+03 -0.14900524514E+04  0.18234989448E+04  0.00000000000E+00 0. -1.
<mgrwt>
<rscale>  0 0.22060836E+04</rscale>
<asrwt>0</asrwt>
<pdfrwt beam="1">  1        2 0.39320314E+00 0.22060836E+04</pdfrwt>
<pdfrwt beam="2">  1       -2 0.73238637E-01 0.22060836E+04</pdfrwt>
<totfact> 0.49675556E+00</totfact>
</mgrwt>
</event>
<event>
 6    1  0.5196787E-004  0.4005969E+04  0.7818608E-02  0.8003343E-01
          2   -1    0    0  501    0  0.00000000000E+00  0.00000000000E+00  0.28646209323E+04  0.28646209323E+04  0.00000000000E+00 0.  1.
         -2   -1    0    0    0  501 -0.00000000000E+00 -0.00000000000E+00 -0.14005161242E+04  0.14005161242E+04  0.00000000000E+00 0. -1.
         23    2    1    2    0    0  0.14628459856E+04 -0.12158271715E+04  0.67847375862E+02  0.19055419841E+04  0.91284709471E+02 0.  0.
         11    1    3    3    0    0  0.47512205938E+03 -0.35862461004E+03 -0.10614439913E+02  0.59536984184E+03  0.00000000000E+00 0.  1.
        -11    1    3    3    0    0  0.98772392622E+03 -0.85720256151E+03  0.78461815775E+02  0.13101721423E+04  0.00000000000E+00 0. -1.
         22    1    1    2    0    0 -0.14628459856E+04  0.12158271715E+04  0.13962574322E+04  0.23595950724E+04  0.00000000000E+00 0.  1.
<mgrwt>
<rscale>  0 0.40059694E+04</rscale>
<asrwt>0</asrwt>
<pdfrwt beam="1">  1        2 0.44071091E+00 0.40059694E+04</pdfrwt>
<pdfrwt beam="2">  1       -2 0.21546402E+00 0.40059694E+04</pdfrwt>
<totfact> 0.17584778E-01</totfact>
</mgrwt>
</event>
<event>
 6    1  0.5196787E-004  0.2836841E+04  0.7818608E-02  0.8291921E-01
         -4   -1    0    0    0  501 -0.00000000000E+00  0.00000000000E+00  0.81284945416E+03  0.81284945416E+03  0.00000000000E+00 0. -1.
          4   -1    0    0  501    0  0.00000000000E+00 -0.00000000000E+00 -0.24751407406E+04  0.24751407406E+04  0.00000000000E+00 0.  1.
         23    2    1    2    0    0  0.43519654508E+03  0.12713136029E+04 -0.31098569471E+03  0.13822984274E+04  0.91665317240E+02 0.  0.
         11    1    3    3    0    0  0.33633689026E+03  0.88565142259E+03 -0.24724401217E+03  0.97909680198E+03  0.00000000000E+00 0.  1.
        -11    1    3    3    0    0  0.98859654816E+02  0.38566218032E+03 -0.63741682537E+02  0.40320162546E+03  0.00000000000E+00 0. -1.
         22    1    1    2    0    0 -0.43519654508E+03 -0.12713136029E+04 -0.13513055917E+04  0.19056917673E+04  0.00000000000E+00 0.  1.
<mgrwt>
<rscale>  0 0.28368411E+04</rscale>
<asrwt>0</asrwt>
<pdfrwt beam="1">  1        4 0.38079088E+00 0.28368411E+04</pdfrwt>
<pdfrwt beam="2">  1       -4 0.12505376E+00 0.28368411E+04</pdfrwt>
<totfact> 0.76096995E-03</totfact>
</mgrwt>
</event>
<event>
 6    1  0.5196787E-004  0.2020205E+04  0.7818608E-02  0.8597232E-01
          2   -1    0    0  501    0  0.00000000000E+00  0.00000000000E+00  0.14808422997E+04  0.14808422997E+04  0.00000000000E+00 0.  1.
         -2   -1    0    0    0  501 -0.00000000000E+00 -0.00000000000E+00 -0.68900447362E+03  0.68900447362E+03  0.00000000000E+00 0. -1.
         23    2    1    2    0    0 -0.77360497457E+03  0.98985436595E+01  0.10908174719E+04  0.13404183759E+04  0.90972674958E+02 0.  0.
         11    1    3    3    0    0 -0.16623675031E+03  0.21647505680E+02  0.18387571792E+03  0.24882433823E+03  0.00000000000E+00 0. -1.
        -11    1    3    3    0    0 -0.60736822426E+03 -0.11748962020E+02  0.90694175401E+03  0.10915940377E+04  0.00000000000E+00 0.  1.
         22    1    1    2    0    0  0.77360497457E+03 -0.98985436595E+01 -0.29897964583E+03  0.82942839743E+03  0.00000000000E+00 0. -1.
<mgrwt>
<rscale>  0 0.20202049E+04</rscale>
<asrwt>0</asrwt>
<pdfrwt beam="1">  1        2 0.22782189E+00 0.20202049E+04</pdfrwt>
<pdfrwt beam="2">  1       -2 0.10600069E+00 0.20202049E+04</pdfrwt>
<totfact> 0.86747450E+00</totfact>
</mgrwt>
</event>
<event>
 6    1  0.5196787E-004  0.1329162E+04  0.7818608E-02  0.9006754E-01
          2   -1    0    0  501    0  0.00000000000E+00  0.00000000000E+00  0.19837404595E+04  0.19837404595E+04  0.00000000000E+00 0.  1.
         -2   -1    0    0    0  501 -0.00000000000E+00 -0.00000000000E+00 -0.22264394493E+03  0.22264394493E+03  0.00000000000E+00 0. -1.
         23    2    1    2    0    0 -0.52017973466E+03 -0.31273259388E+03  0.13210360473E+04  0.14566899024E+04  0.91763836359E+02 0.  0.
         11    1    3    3    0    0 -0.38523844379E+03 -0.21347710550E+03  0.10416099707E+04  0.11308989629E+04  0.00000000000E+00 0. -1.
        -11    1    3    3    0    0 -0.13494129087E+03 -0.99255488381E+02  0.27942607662E+03  0.32579093948E+03  0.00000000000E+00 0.  1.
         22    1    1    2    0    0  0.52017973466E+03  0.31273259388E+03  0.44006046729E+03  0.74969450212E+03  0.00000000000E+00 0.  1.
<mgrwt>
<rscale>  0 0.13291618E+04</rscale>
<asrwt>0</asrwt>
<pdfrwt beam="1">  1        2 0.30519083E+00 0.13291618E+04</pdfrwt>
<pdfrwt beam="2">  1       -2 0.34252916E-01 0.13291618E+04</pdfrwt>
<totfact> 0.53314038E+01</totfact>
</mgrwt>
</event>
<event>
 6    1  0.5196787E-004  0.1310521E+04  0.7818608E-02  0.9021263E-01
          2   -1    0    0  501    0  0.00000000000E+00  0.00000000000E+00  0.33573352273E+03  0.33573352273E+03  0.00000000000E+00 0.  1.
         -2   -1    0    0    0  501 -0.00000000000E+00 -0.00000000000E+00 -0.12788906797E+04  0.12788906797E+04  0.00000000000E+00 0. -1.
         23    2    1    2    0    0 -0.12201864459E+03  0.57916420165E+03 -0.13677435547E+03  0.61433777112E+03  0.91563915457E+02 0.  0.
         11    1    3    3    0    0 -0.75976911550E+02  0.46511792247E+03 -0.13891620990E+03  0.49132971238E+03  0.00000000000E+00 0.  1.
        -11    1    3    3    0    0 -0.46041733045E+02  0.11404627918E+03  0.21418544267E+01  0.12300805874E+03  0.00000000000E+00 0. -1.
         22    1    1    2    0    0  0.12201864459E+03 -0.57916420165E+03 -0.80638280148E+03  0.10002864313E+04  0.00000000000E+00 0. -1.
<mgrwt>
<rscale>  0 0.13105212E+04</rscale>
<asrwt>0</asrwt>
<pdfrwt beam="1">  1        2 0.51651311E-01 0.13105212E+04</pdfrwt>
<pdfrwt beam="2">  1       -2 0.19675241E+00 0.13105212E+04</pdfrwt>
<totfact> 0.13237920E+01</totfact>
</mgrwt>
</event>
<event>
 6    1  0.5196787E-004  0.1158785E+04  0.7818608E-02  0.9149717E-01
         -2   -1    0    0    0  501 -0.00000000000E+00  0.00000000000E+00  0.32386199553E+03  0.32386199553E+03  0.00000000000E+00 0. -1.
          2   -1    0    0  501    0  0.00000000000E+00 -0.00000000000E+00 -0.10365384148E+04  0.10365384148E+04  0.00000000000E+00 0.  1.
         23    2    1    2    0    0  0.40614760624E+03 -0.63111537372E+02 -0.83198483802E+03  0.93241274348E+03  0.90861484187E+02 0.  0.
         13    1    3    3    0    0  0.35860851129E+03 -0.50069829752E+02 -0.65195930732E+03  0.74576000873E+03  0.00000000000E+00 0. -1.
        -13    1    3    3    0    0  0.47539094949E+02 -0.13041707620E+02 -0.18002553070E+03  0.18665273475E+03  0.00000000000E+00 0.  1.
         22    1    1    2    0    0 -0.40614760624E+03  0.63111537372E+02  0.11930841874E+03  0.42798766686E+03  0.00000000000E+00 0. -1.
<mgrwt>
<rscale>  0 0.11587845E+04</rscale>
<asrwt>0</asrwt>
<pdfrwt beam="1">  1        2 0.15946745E+00 0.11587845E+04</pdfrwt>
<pdfrwt beam="2">  1       -2 0.49824923E-01 0.11587845E+04</pdfrwt>
<totfact> 0.89993437E+01</totfact>
</mgrwt>
</event>
<event>
 6    1  0.5196787E-004  0.1119710E+04  0.7818608E-02  0.9186191E-01
          2   -1    0    0  501    0  0.00000000000E+00  0.00000000000E+00  0.85875455894E+03  0.85875455894E+03  0.00000000000E+00 0.  1.
         -2   -1    0    0    0  501 -0.00000000000E+00 -0.00000000000E+00 -0.36499092618E+03  0.36499092618E+03  0.00000000000E+00 0. -1.
         23    2    1    2    0    0 -0.12995949368E+03  0.50744345077E+02 -0.33989648537E+03  0.37849188346E+03  0.90895690362E+02 0.  0.
         11    1    3    3    0    0 -0.10879782501E+03  0.52338715769E+02 -0.17721999035E+03  0.21443701377E+03  0.00000000000E+00 0.  1.
        -11    1    3    3    0    0 -0.21161668673E+02 -0.15943706917E+01 -0.16267649501E+03  0.16405486969E+03  0.00000000000E+00 0. -1.
         22    1    1    2    0    0  0.12995949368E+03 -0.50744345077E+02  0.83366011813E+03  0.84525360165E+03  0.00000000000E+00 0.  1.
<mgrwt>
<rscale>  0 0.11197100E+04</rscale>
<asrwt>0</asrwt>
<pdfrwt beam="1">  1        2 0.13211609E+00 0.11197100E+04</pdfrwt>
<pdfrwt beam="2">  1       -2 0.56152451E-01 0.11197100E+04</pdfrwt>
<totfact> 0.92421583E+01</totfact>
</mgrwt>
</event>
<event>
 6    1  0.5196787E-004  0.5026559E+04  0.7818608E-02  0.7824423E-01
         -2   -1    0    0    0  501 -0.00000000000E+00  0.00000000000E+00  0.50810835402E+04  0.50810835402E+04  0.00000000000E+00 0. -1.
          2   -1    0    0  501    0  0.00000000000E+00 -0.00000000000E+00 -0.12431549636E+04  0.12431549636E+04  0.00000000000E+00 0.  1.
         23    2    1    2    0    0 -0.21010559384E+04 -0.19887695940E+03  0.20411534808E+03  0.21220263862E+04  0.85701851254E+02 0.  0.
         13    1    3    3    0    0 -0.13595923927E+04 -0.15564928026E+03  0.16332175793E+03  0.13781843742E+04  0.00000000000E+00 0. -1.
        -13    1    3    3    0    0 -0.74146354571E+03 -0.43227679137E+02  0.40793590146E+02  0.74384201203E+03  0.00000000000E+00 0.  1.
         22    1    1    2    0    0  0.21010559384E+04  0.19887695940E+03  0.36338132285E+04  0.42022121176E+04  0.00000000000E+00 0. -1.
<mgrwt>
<rscale>  0 0.50265592E+04</rscale>
<asrwt>0</asrwt>
<pdfrwt beam="1">  1        2 0.19125461E+00 0.50265592E+04</pdfrwt>
<pdfrwt beam="2">  1       -2 0.78170515E+00 0.50265592E+04</pdfrwt>
<totfact> 0.12991249E-03</totfact>
</mgrwt>
</event>
<event>
 6    1  0.5196787E-004  0.2307041E+04  0.7818608E-02  0.8475150E-01
          2   -1    0    0  501    0  0.00000000000E+00  0.00000000000E+00  0.21713521030E+04  0.21713521030E+04  0.00000000000E+00 0.  1.
         -2   -1    0    0    0  501 -0.00000000000E+00 -0.00000000000E+00 -0.61280234696E+03  0.61280234696E+03  0.00000000000E+00 0. -1.
         23    2    1    2    0    0 -0.84379521615E+03 -0.53007713127E+03  0.83653758745E+02  0.10041852551E+04  0.91749350066E+02 0.  0.
         11    1    3    3    0    0 -0.31951415015E+03 -0.18870463472E+03  0.74562952415E+02  0.37849486811E+03  0.00000000000E+00 0.  1.
        -11    1    3    3    0    0 -0.52428106600E+03 -0.34137249655E+03  0.90908063309E+01  0.62569038696E+03  0.00000000000E+00 0. -1.
         22    1    1    2    0    0  0.84379521615E+03  0.53007713127E+03  0.14748959973E+04  0.17799691949E+04  0.00000000000E+00 0.  1.
<mgrwt>
<rscale>  0 0.23070411E+04</rscale>
<asrwt>0</asrwt>
<pdfrwt beam="1">  1        2 0.33405417E+00 0.23070411E+04</pdfrwt>
<pdfrwt beam="2">  1       -2 0.94277285E-01 0.23070411E+04</pdfrwt>
<totfact> 0.46064954E+00</totfact>
</mgrwt>
</event>
<event>
 6    1  0.5196787E-004  0.2821589E+04  0.7818608E-02  0.8296597E-01
         -2   -1    0    0    0  501 -0.00000000000E+00  0.00000000000E+00  0.28010070559E+04  0.28010070559E+04  0.00000000000E+00 0. -1.
          2   -1    0    0  501    0  0.00000000000E+00 -0.00000000000E+00 -0.71058040010E+03  0.71058040010E+03  0.00000000000E+00 0.  1.
         23    2    1    2    0    0 -0.11784990055E+04  0.39497412770E+03  0.21954067140E+03  0.12654621625E+04  0.91279301008E+02 0.  0.
         11    1    3    3    0    0 -0.60570169969E+03  0.16184455815E+03  0.13455133811E+03  0.64122716146E+03  0.00000000000E+00 0.  1.
        -11    1    3    3    0    0 -0.57279730582E+03  0.23312956955E+03  0.84989333294E+02  0.62423500104E+03  0.00000000000E+00 0. -1.
         22    1    1    2    0    0  0.11784990055E+04 -0.39497412770E+03  0.18708859844E+04  0.22461252935E+04  0.00000000000E+00 0. -1.
<mgrwt>
<rscale>  0 0.28215887E+04</rscale>
<asrwt>0</asrwt>
<pdfrwt beam="1">  1        2 0.10932006E+00 0.28215887E+04</pdfrwt>
<pdfrwt beam="2">  1       -2 0.43092416E+00 0.28215887E+04</pdfrwt>
<totfact> 0.16195213E-01</totfact>
</mgrwt>
</event>
<event>
 6    1  0.5196787E-004  0.4981022E+04  0.7818608E-02  0.7831441E-01
          2   -1    0    0  501    0  0.00000000000E+00  0.00000000000E+00  0.31844787904E+04  0.31844787904E+04  0.00000000000E+00 0. -1.
         -2   -1    0    0    0  501 -0.00000000000E+00 -0.00000000000E+00 -0.19477741952E+04  0.19477741952E+04  0.00000000000E+00 0.  1.
         23    2    1    2    0    0 -0.54994918197E+03 -0.17581960442E+04  0.23441388177E+04  0.29828093391E+04  0.92018064716E+02 0.  0.
         13    1    3    3    0    0 -0.90327587003E+02 -0.28127071054E+03  0.43242200980E+03  0.52369941774E+03  0.00000000000E+00 0.  1.
        -13    1    3    3    0    0 -0.45962159497E+03 -0.14769253336E+04  0.19117168079E+04  0.24591099213E+04  0.00000000000E+00 0. -1.
         22    1    1    2    0    0  0.54994918197E+03  0.17581960442E+04 -0.11074342225E+04  0.21494436466E+04  0.00000000000E+00 0.  1.
<mgrwt>
<rscale>  0 0.49810222E+04</rscale>
<asrwt>0</asrwt>
<pdfrwt beam="1">  1        2 0.48991981E+00 0.49810222E+04</pdfrwt>
<pdfrwt beam="2">  1       -2 0.29965757E+00 0.49810222E+04</pdfrwt>
<totfact> 0.30880338E-02</totfact>
</mgrwt>
</event>
<event>
 6    1  0.5196787E-004  0.4434907E+04  0.7818608E-02  0.7922133E-01
          2   -1    0    0  501    0  0.00000000000E+00  0.00000000000E+00  0.26218223252E+04  0.26218223252E+04  0.00000000000E+00 0.  1.
         -2   -1    0    0    0  501 -0.00000000000E+00 -0.00000000000E+00 -0.18754512712E+04  0.18754512712E+04  0.00000000000E+00 0. -1.
         23    2    1    2    0    0  0.56082906443E+02 -0.44077194811E+03  0.25754201351E+04  0.26150287283E+04  0.90339220016E+02 0.  0.
         13    1    3    3    0    0  0.17640295567E+02 -0.16215697082E+03  0.70795608228E+03  0.72650387311E+03  0.00000000000E+00 0.  1.
        -13    1    3    3    0    0  0.38442610877E+02 -0.27861497730E+03  0.18674640528E+04  0.18885248551E+04  0.00000000000E+00 0. -1.
         22    1    1    2    0    0 -0.56082906443E+02  0.44077194811E+03 -0.18290490811E+04  0.18822448681E+04  0.00000000000E+00 0. -1.
<mgrwt>
<rscale>  0 0.44349070E+04</rscale>
<asrwt>0</asrwt>
<pdfrwt beam="1">  1        2 0.40335728E+00 0.44349070E+04</pdfrwt>
<pdfrwt beam="2">  1       -2 0.28853097E+00 0.44349070E+04</pdfrwt>
<totfact> 0.84059388E-02</totfact>
</mgrwt>
</event>
<event>
 6    1  0.5196787E-004  0.3999389E+04  0.7818608E-02  0.8004670E-01
          2   -1    0    0  501    0  0.00000000000E+00  0.00000000000E+00  0.30504241917E+04  0.30504241917E+04  0.00000000000E+00 0.  1.
         -2   -1    0    0    0  501 -0.00000000000E+00 -0.00000000000E+00 -0.13108925654E+04  0.13108925654E+04  0.00000000000E+00 0. -1.
         23    2    1    2    0    0  0.38048444254E+03 -0.11065477758E+04 -0.89675477862E+03  0.14770105321E+04  0.90413425806E+02 0.  0.
         13    1    3    3    0    0  0.21034391976E+03 -0.63039948144E+03 -0.45307095475E+03  0.80431421771E+03  0.00000000000E+00 0. -1.
        -13    1    3    3    0    0  0.17014052279E+03 -0.47614829441E+03 -0.44368382387E+03  0.67269631434E+03  0.00000000000E+00 0.  1.
         22    1    1    2    0    0 -0.38048444254E+03  0.11065477758E+04  0.26362864049E+04  0.28843062250E+04  0.00000000000E+00 0.  1.
<mgrwt>
<rscale>  0 0.39993892E+04</rscale>
<asrwt>0</asrwt>
<pdfrwt beam="1">  1        2 0.46929603E+00 0.39993892E+04</pdfrwt>
<pdfrwt beam="2">  1       -2 0.20167578E+00 0.39993892E+04</pdfrwt>
<totfact> 0.16544018E-01</totfact>
</mgrwt>
</event>
<event>
 6    1  0.5196787E-004  0.3561818E+04  0.7818608E-02  0.8099294E-01
          2   -1    0    0  501    0  0.00000000000E+00  0.00000000000E+00  0.22033654761E+04  0.22033654761E+04  0.00000000000E+00 0.  1.
         -2   -1    0    0    0  501 -0.00000000000E+00 -0.00000000000E+00 -0.14394512692E+04  0.14394512692E+04  0.00000000000E+00 0. -1.
         23    2    1    2    0    0  0.17336955423E+04  0.39332594205E+03  0.29602044462E+03  0.18045213112E+04  0.90903952463E+02 0.  0.
         13    1    3    3    0    0  0.40075699461E+03  0.52325754973E+02  0.61474851597E+02  0.40880718039E+03  0.00000000000E+00 0.  1.
        -13    1    3    3    0    0  0.13329385477E+04  0.34100018708E+03  0.23454559302E+03  0.13957141308E+04  0.00000000000E+00 0. -1.
         22    1    1    2    0    0 -0.17336955423E+04 -0.39332594205E+03  0.46789376229E+03  0.18382954341E+04  0.00000000000E+00 0. -1.
<mgrwt>
<rscale>  0 0.35618182E+04</rscale>
<asrwt>0</asrwt>
<pdfrwt beam="1">  1        2 0.33897931E+00 0.35618182E+04</pdfrwt>
<pdfrwt beam="2">  1       -2 0.22145404E+00 0.35618182E+04</pdfrwt>
<totfact> 0.40674781E-01</totfact>
</mgrwt>
</event>
<event>
 6    1  0.5196787E-004  0.5437827E+04  0.7818608E-02  0.7764303E-01
          2   -1    0    0  501    0  0.00000000000E+00  0.00000000000E+00  0.32284616680E+04  0.32284616680E+04  0.00000000000E+00 0.  1.
         -2   -1    0    0    0  501 -0.00000000000E+00 -0.00000000000E+00 -0.22897876456E+04  0.22897876456E+04  0.00000000000E+00 0. -1.
         23    2    1    2    0    0 -0.76906275558E+03 -0.18728724387E+04  0.23099034193E+04  0.30729724883E+04  0.91637401873E+02 0.  0.
         13    1    3    3    0    0 -0.58079679125E+03 -0.14415318780E+04  0.17152269212E+04  0.23145933680E+04  0.00000000000E+00 0.  1.
        -13    1    3    3    0    0 -0.18826596433E+03 -0.43134056066E+03  0.59467649815E+03  0.75837912026E+03  0.00000000000E+00 0. -1.
         22    1    1    2    0    0  0.76906275558E+03  0.18728724387E+04 -0.13712293969E+04  0.24452768253E+04  0.00000000000E+00 0. -1.
<mgrwt>
<rscale>  0 0.54378274E+04</rscale>
<asrwt>0</asrwt>
<pdfrwt beam="1">  1        2 0.49668641E+00 0.54378274E+04</pdfrwt>
<pdfrwt beam="2">  1       -2 0.35227502E+00 0.54378274E+04</pdfrwt>
<totfact> 0.13138027E-02</totfact>
</mgrwt>
</event>
<event>
 6    1  0.5196787E-004  0.1521834E+04  0.7818608E-02  0.8870062E-01
         -2   -1    0    0    0  501 -0.00000000000E+00  0.00000000000E+00  0.99825241227E+03  0.99825241227E+03  0.00000000000E+00 0. -1.
          2   -1    0    0  501    0  0.00000000000E+00 -0.00000000000E+00 -0.58000798079E+03  0.58000798079E+03  0.00000000000E+00 0.  1.
         23    2    1    2    0    0  0.31183866641E+03  0.23122507170E+03 -0.46553824576E+03  0.61297276326E+03  0.91111813678E+02 0.  0.
         13    1    3    3    0    0  0.10352036358E+03  0.64760733738E+02 -0.21405191002E+03  0.24643181307E+03  0.00000000000E+00 0. -1.
        -13    1    3    3    0    0  0.20831830283E+03  0.16646433796E+03 -0.25148633573E+03  0.36654095019E+03  0.00000000000E+00 0.  1.
         22    1    1    2    0    0 -0.31183866641E+03 -0.23122507170E+03  0.88378267724E+03  0.96528762980E+03  0.00000000000E+00 0. -1.
<mgrwt>
<rscale>  0 0.15218336E+04</rscale>
<asrwt>0</asrwt>
<pdfrwt beam="1">  1        2 0.89231997E-01 0.15218336E+04</pdfrwt>
<pdfrwt beam="2">  1       -2 0.15357729E+00 0.15218336E+04</pdfrwt>
<totfact> 0.14012673E+01</totfact>
</mgrwt>
</event>
<event>
 6    1  0.5196787E-004  0.5100523E+04  0.7818608E-02  0.7813185E-01
         -1   -1    0    0    0  501 -0.00000000000E+00  0.00000000000E+00  0.24207758112E+04  0.24207758112E+04  0.00000000000E+00 0. -1.
          1   -1    0    0  501    0  0.00000000000E+00 -0.00000000000E+00 -0.26866737309E+04  0.26866737309E+04  0.00000000000E+00 0.  1.
         23    2    1    2    0    0 -0.11320496783E+04 -0.18154041392E+04  0.12553609696E+04  0.24822910191E+04  0.92784033924E+02 0.  0.
         11    1    3    3    0    0 -0.56921529694E+03 -0.88186876651E+03  0.66613458635E+03  0.12431548024E+04  0.00000000000E+00 0. -1.
        -11    1    3    3    0    0 -0.56283438133E+03 -0.93353537266E+03  0.58922638322E+03  0.12391362167E+04  0.00000000000E+00 0.  1.
         22    1    1    2    0    0  0.11320496783E+04  0.18154041392E+04 -0.15212588893E+04  0.26251585230E+04  0.00000000000E+00 0.  1.
<mgrwt>
<rscale>  0 0.51005234E+04</rscale>
<asrwt>0</asrwt>
<pdfrwt beam="1">  1        1 0.41333442E+00 0.51005234E+04</pdfrwt>
<pdfrwt beam="2">  1       -1 0.37242705E+00 0.51005234E+04</pdfrwt>
<totfact> 0.79068774E-03</totfact>
</mgrwt>
</event>
<event>
 6    1  0.5196787E-004  0.3736467E+04  0.7818608E-02  0.8059928E-01
          2   -1    0    0  501    0  0.00000000000E+00  0.00000000000E+00  0.89061419399E+03  0.89061419399E+03  0.00000000000E+00 0.  1.
         -2   -1    0    0    0  501 -0.00000000000E+00 -0.00000000000E+00 -0.39189759238E+04  0.39189759238E+04  0.00000000000E+00 0. -1.
         23    2    1    2    0    0 -0.18185083033E+04 -0.40871159985E+03 -0.16573694990E+04  0.24957972753E+04  0.90070874437E+02 0.  0.
         11    1    3    3    0    0 -0.94994095173E+03 -0.17839324831E+03 -0.81980473147E+03  0.12673956606E+04  0.00000000000E+00 0.  1.
        -11    1    3    3    0    0 -0.86856735152E+03 -0.23031835155E+03 -0.83756476754E+03  0.12284016147E+04  0.00000000000E+00 0. -1.
         22    1    1    2    0    0  0.18185083033E+04  0.40871159985E+03 -0.13709922308E+04  0.23137928424E+04  0.00000000000E+00 0.  1.
<mgrwt>
<rscale>  0 0.37364666E+04</rscale>
<asrwt>0</asrwt>
<pdfrwt beam="1">  1        2 0.13701757E+00 0.37364666E+04</pdfrwt>
<pdfrwt beam="2">  1       -2 0.60291936E+00 0.37364666E+04</pdfrwt>
<totfact> 0.11805775E-02</totfact>
</mgrwt>
</event>
<event>
 6    1  0.5196787E-004  0.2092450E+04  0.7818608E-02  0.8564577E-01
         -2   -1    0    0    0  501 -0.00000000000E+00  0.00000000000E+00  0.52647811578E+03  0.52647811578E+03  0.00000000000E+00 0. -1.
          2   -1    0    0  501    0  0.00000000000E+00 -0.00000000000E+00 -0.20790726126E+04  0.20790726126E+04  0.00000000000E+00 0.  1.
         23    2    1    2    0    0 -0.31483825780E+03  0.73382362825E+03  0.59807329180E+02  0.80625645159E+03  0.94086678946E+02 0.  0.
         13    1    3    3    0    0 -0.22795721241E+03  0.52756519714E+03  0.44698282907E+00  0.57470838494E+03  0.00000000000E+00 0. -1.
        -13    1    3    3    0    0 -0.86881045386E+02  0.20625843111E+03  0.59360346351E+02  0.23154806665E+03  0.00000000000E+00 0.  1.
         22    1    1    2    0    0  0.31483825780E+03 -0.73382362825E+03 -0.16124018260E+04  0.17992942768E+04  0.00000000000E+00 0.  1.
<mgrwt>
<rscale>  0 0.20924495E+04</rscale>
<asrwt>0</asrwt>
<pdfrwt beam="1">  1        2 0.31985733E+00 0.20924495E+04</pdfrwt>
<pdfrwt beam="2">  1       -2 0.80996632E-01 0.20924495E+04</pdfrwt>
<totfact> 0.74816070E+00</totfact>
</mgrwt>
</event>
<event>
 6    1  0.5196787E-004  0.4242381E+04  0.7818608E-02  0.7957359E-01
          2   -1    0    0  501    0  0.00000000000E+00  0.00000000000E+00  0.37047893531E+04  0.37047893531E+04  0.00000000000E+00 0.  1.
         -2   -1    0    0    0  501 -0.00000000000E+00 -0.00000000000E+00 -0.12144952610E+04  0.12144952610E+04  0.00000000000E+00 0. -1.
         23    2    1    2    0    0  0.24436656608E+02 -0.16047102419E+04  0.28522430395E+04  0.32740797177E+04  0.92819883526E+02 0.  0.
         13    1    3    3    0    0 -0.24582561113E+02 -0.55976340455E+03  0.93571685544E+03  0.10906444906E+04  0.00000000000E+00 0.  1.
        -13    1    3    3    0    0  0.49019217721E+02 -0.10449468374E+04  0.19165261840E+04  0.21834352271E+04  0.00000000000E+00 0. -1.
         22    1    1    2    0    0 -0.24436656608E+02  0.16047102419E+04 -0.36194894738E+03  0.16452048964E+04  0.00000000000E+00 0. -1.
<mgrwt>
<rscale>  0 0.42423810E+04</rscale>
<asrwt>0</asrwt>
<pdfrwt beam="1">  1        2 0.56996759E+00 0.42423810E+04</pdfrwt>
<pdfrwt beam="2">  1       -2 0.18684543E+00 0.42423810E+04</pdfrwt>
<totfact> 0.72720023E-02</totfact>
</mgrwt>
</event>
<event>
 6    1  0.5196787E-004  0.3232131E+04  0.7818608E-02  0.8180383E-01
          2   -1    0    0  501    0  0.00000000000E+00  0.00000000000E+00  0.19457637448E+04  0.19457637448E+04  0.00000000000E+00 0.  1.
         -2   -1    0    0    0  501 -0.00000000000E+00 -0.00000000000E+00 -0.13422325870E+04  0.13422325870E+04  0.00000000000E+00 0. -1.
         23    2    1    2    0    0  0.77271912188E+03 -0.26509574348E+03 -0.11147984813E+04  0.13853593872E+04  0.95259557171E+02 0.  0.
         11    1    3    3    0    0  0.47619946192E+03 -0.16562523406E+03 -0.60831609936E+03  0.79009247713E+03  0.00000000000E+00 0.  1.
        -11    1    3    3    0    0  0.29651965996E+03 -0.99470509417E+02 -0.50648238190E+03  0.59526691002E+03  0.00000000000E+00 0. -1.
         22    1    1    2    0    0 -0.77271912188E+03  0.26509574348E+03  0.17183296391E+04  0.19026369447E+04  0.00000000000E+00 0.  1.
<mgrwt>
<rscale>  0 0.32321309E+04</rscale>
<asrwt>0</asrwt>
<pdfrwt beam="1">  1        2 0.29934827E+00 0.32321309E+04</pdfrwt>
<pdfrwt beam="2">  1       -2 0.20649732E+00 0.32321309E+04</pdfrwt>
<totfact> 0.72561586E-01</totfact>
</mgrwt>
</event>
<event>
 6    1  0.5196787E-004  0.7747705E+03  0.7818608E-02  0.9597271E-01
          2   -1    0    0  501    0  0.00000000000E+00  0.00000000000E+00  0.84214345275E+02  0.84214345275E+02  0.00000000000E+00 0.  1.
         -2   -1    0    0    0  501 -0.00000000000E+00 -0.00000000000E+00 -0.17819685485E+04  0.17819685485E+04  0.00000000000E+00 0. -1.
         23    2    1    2    0    0 -0.35183151748E+03  0.21534423064E+02 -0.12157176246E+04  0.12690159061E+04  0.90459267255E+02 0.  0.
         11    1    3    3    0    0 -0.20919824044E+03 -0.25576291134E+02 -0.78759461611E+03  0.81530566648E+03  0.00000000000E+00 0.  1.
        -11    1    3    3    0    0 -0.14263327704E+03  0.47110714198E+02 -0.42812300853E+03  0.45371023963E+03  0.00000000000E+00 0. -1.
         22    1    1    2    0    0  0.35183151748E+03 -0.21534423064E+02 -0.48203657861E+03  0.59716698769E+03  0.00000000000E+00 0.  1.
<mgrwt>
<rscale>  0 0.77477046E+03</rscale>
<asrwt>0</asrwt>
<pdfrwt beam="1">  1        2 0.12956054E-01 0.77477046E+03</pdfrwt>
<pdfrwt beam="2">  1       -2 0.27414899E+00 0.77477046E+03</pdfrwt>
<totfact> 0.22638900E+01</totfact>
</mgrwt>
</event>
<event>
 6    1  0.5196787E-004  0.3049055E+04  0.7818608E-02  0.8229860E-01
          2   -1    0    0  501    0  0.00000000000E+00  0.00000000000E+00  0.29985218725E+04  0.29985218725E+04  0.00000000000E+00 0.  1.
         -2   -1    0    0    0  501 -0.00000000000E+00 -0.00000000000E+00 -0.77511001536E+03  0.77511001536E+03  0.00000000000E+00 0. -1.
         23    2    1    2    0    0 -0.38185785007E+02  0.97582320101E+03 -0.33368038908E+03  0.10364052203E+04  0.95415432862E+02 0.  0.
         13    1    3    3    0    0 -0.39601089519E+02  0.97684229344E+03 -0.32917520865E+03  0.10315742487E+04  0.00000000000E+00 0.  1.
        -13    1    3    3    0    0  0.14153045123E+01 -0.10190924278E+01 -0.45051804325E+01  0.48309716381E+01  0.00000000000E+00 0. -1.
         22    1    1    2    0    0  0.38185785007E+02 -0.97582320101E+03  0.25570922462E+04  0.27372266675E+04  0.00000000000E+00 0.  1.
<mgrwt>
<rscale>  0 0.30490552E+04</rscale>
<asrwt>0</asrwt>
<pdfrwt beam="1">  1        2 0.46131105E+00 0.30490552E+04</pdfrwt>
<pdfrwt beam="2">  1       -2 0.11924770E+00 0.30490552E+04</pdfrwt>
<totfact> 0.80188504E-01</totfact>
</mgrwt>
</event>
<event>
 6    1  0.5196787E-004  0.2896202E+04  0.7818608E-02  0.8274008E-01
         -2   -1    0    0    0  501 -0.00000000000E+00  0.00000000000E+00  0.80414064936E+03  0.80414064936E+03  0.00000000000E+00 0. -1.
          2   -1    0    0  501    0  0.00000000000E+00 -0.00000000000E+00 -0.26077485292E+04  0.26077485292E+04  0.00000000000E+00 0.  1.
         23    2    1    2    0    0 -0.28705120768E+03  0.17836144923E+03 -0.25597821198E+04  0.25836315596E+04  0.91958318718E+02 0.  0.
         11    1    3    3    0    0 -0.50066142140E+02  0.28218930661E+02 -0.75398473741E+03  0.75617187919E+03  0.00000000000E+00 0.  1.
        -11    1    3    3    0    0 -0.23698506554E+03  0.15014251857E+03 -0.18057973824E+04  0.18274596804E+04  0.00000000000E+00 0. -1.
         22    1    1    2    0    0  0.28705120768E+03 -0.17836144923E+03  0.75617423990E+03  0.82825761904E+03  0.00000000000E+00 0. -1.
<mgrwt>
<rscale>  0 0.28962021E+04</rscale>
<asrwt>0</asrwt>
<pdfrwt beam="1">  1        2 0.40119207E+00 0.28962021E+04</pdfrwt>
<pdfrwt beam="2">  1       -2 0.12371395E+00 0.28962021E+04</pdfrwt>
<totfact> 0.12789974E+00</totfact>
</mgrwt>
</event>
<event>
 6    1  0.5196787E-004  0.2020356E+04  0.7818608E-02  0.8597162E-01
         -2   -1    0    0    0  501 -0.00000000000E+00  0.00000000000E+00  0.32704030651E+03  0.32704030651E+03  0.00000000000E+00 0. -1.
          2   -1    0    0  501    0  0.00000000000E+00 -0.00000000000E+00 -0.31202884294E+04  0.31202884294E+04  0.00000000000E+00 0.  1.
         23    2    1    2    0    0  0.81907890889E+03  0.21068489102E+03 -0.46091082851E+03  0.96638624624E+03  0.78646060214E+02 0.  0.
         13    1    3    3    0    0  0.59772978484E+03  0.17430318019E+03 -0.37057395437E+03  0.72456024592E+03  0.00000000000E+00 0. -1.
        -13    1    3    3    0    0  0.22134912405E+03  0.36381710831E+02 -0.90336874138E+02  0.24182600031E+03  0.00000000000E+00 0.  1.
         22    1    1    2    0    0 -0.81907890889E+03 -0.21068489102E+03 -0.23323372944E+04  0.24809424897E+04  0.00000000000E+00 0.  1.
<mgrwt>
<rscale>  0 0.20203565E+04</rscale>
<asrwt>0</asrwt>
<pdfrwt beam="1">  1        2 0.48004438E+00 0.20203565E+04</pdfrwt>
<pdfrwt beam="2">  1       -2 0.50313893E-01 0.20203565E+04</pdfrwt>
<totfact> 0.50757012E+00</totfact>
</mgrwt>
</event>
<event>
 6    1  0.5196787E-004  0.7533364E+03  0.7818608E-02  0.9630131E-01
         -2   -1    0    0    0  501 -0.00000000000E+00  0.00000000000E+00  0.10777996176E+03  0.10777996176E+03  0.00000000000E+00 0.  1.
          2   -1    0    0  501    0  0.00000000000E+00 -0.00000000000E+00 -0.13163757920E+04  0.13163757920E+04  0.00000000000E+00 0. -1.
         23    2    1    2    0    0  0.90763765899E+02  0.34357444036E+03 -0.41116137255E+03  0.55112472820E+03  0.91669703233E+02 0.  0.
         13    1    3    3    0    0 -0.16908539498E+02  0.36548459714E+02 -0.61430320332E+02  0.73453201914E+02  0.00000000000E+00 0.  1.
        -13    1    3    3    0    0  0.10767230540E+03  0.30702598064E+03 -0.34973105222E+03  0.47767152629E+03  0.00000000000E+00 0. -1.
         22    1    1    2    0    0 -0.90763765899E+02 -0.34357444036E+03 -0.79743445770E+03  0.87303102557E+03  0.00000000000E+00 0.  1.
<mgrwt>
<rscale>  0 0.75333640E+03</rscale>
<asrwt>0</asrwt>
<pdfrwt beam="1">  1        2 0.20251937E+00 0.75333640E+03</pdfrwt>
<pdfrwt beam="2">  1       -2 0.16581531E-01 0.75333640E+03</pdfrwt>
<totfact> 0.48206618E+02</totfact>
</mgrwt>
</event>
<event>
 6    1  0.5196787E-004  0.1897983E+04  0.7818608E-02  0.8655861E-01
          2   -1    0    0  501    0  0.00000000000E+00  0.00000000000E+00  0.11659948878E+04  0.11659948878E+04  0.00000000000E+00 0.  1.
         -2   -1    0    0    0  501 -0.00000000000E+00 -0.00000000000E+00 -0.77237435756E+03  0.77237435756E+03  0.00000000000E+00 0. -1.
         23    2    1    2    0    0  0.17424971883E+03 -0.58420376795E+03 -0.54250937507E+03  0.82123173967E+03  0.91913770422E+02 0.  0.
         11    1    3    3    0    0  0.34504431365E+02 -0.12366893651E+03 -0.16783047442E+03  0.21130932252E+03  0.00000000000E+00 0.  1.
        -11    1    3    3    0    0  0.13974528747E+03 -0.46053483144E+03 -0.37467890065E+03  0.60992241714E+03  0.00000000000E+00 0. -1.
         22    1    1    2    0    0 -0.17424971883E+03  0.58420376795E+03  0.93612990530E+03  0.11171375057E+04  0.00000000000E+00 0.  1.
<mgrwt>
<rscale>  0 0.18979827E+04</rscale>
<asrwt>0</asrwt>
<pdfrwt beam="1">  1        2 0.17938383E+00 0.18979827E+04</pdfrwt>
<pdfrwt beam="2">  1       -2 0.11882682E+00 0.18979827E+04</pdfrwt>
<totfact> 0.10121052E+01</totfact>
</mgrwt>
</event>
<event>
 6    1  0.5196787E-004  0.1847132E+04  0.7818608E-02  0.8681629E-01
          2   -1    0    0  501    0  0.00000000000E+00  0.00000000000E+00  0.26299871045E+04  0.26299871045E+04  0.00000000000E+00 0.  1.
         -2   -1    0    0    0  501 -0.00000000000E+00 -0.00000000000E+00 -0.32432623566E+03  0.32432623566E+03  0.00000000000E+00 0. -1.
         23    2    1    2    0    0  0.14685727871E+03 -0.90623897941E+03  0.10333430521E+04  0.13853554774E+04  0.92605547779E+02 0.  0.
         11    1    3    3    0    0  0.17159202914E+02 -0.38091319930E+03  0.44521060396E+03  0.58617555862E+03  0.00000000000E+00 0. -1.
        -11    1    3    3    0    0  0.12969807579E+03 -0.52532578011E+03  0.58813244812E+03  0.79917991882E+03  0.00000000000E+00 0.  1.
         22    1    1    2    0    0 -0.14685727871E+03  0.90623897941E+03  0.12723178167E+04  0.15689578627E+04  0.00000000000E+00 0.  1.
<mgrwt>
<rscale>  0 0.18471316E+04</rscale>
<asrwt>0</asrwt>
<pdfrwt beam="1">  1        2 0.40461339E+00 0.18471316E+04</pdfrwt>
<pdfrwt beam="2">  1       -2 0.49896346E-01 0.18471316E+04</pdfrwt>
<totfact> 0.10459494E+01</totfact>
</mgrwt>
</event>
<event>
 6    1  0.5196787E-004  0.2099139E+04  0.7818608E-02  0.8561623E-01
         -2   -1    0    0    0  501 -0.00000000000E+00  0.00000000000E+00  0.14832203480E+04  0.14832203480E+04  0.00000000000E+00 0. -1.
          2   -1    0    0  501    0  0.00000000000E+00 -0.00000000000E+00 -0.74270566101E+03  0.74270566101E+03  0.00000000000E+00 0.  1.
         23    2    1    2    0    0 -0.97353431644E+03 -0.12408369391E+03  0.75943807526E+03  0.12443334647E+04  0.91944292272E+02 0.  0.
         13    1    3    3    0    0 -0.41591213779E+03 -0.10896556537E+02  0.29836953868E+03  0.51198244395E+03  0.00000000000E+00 0. -1.
        -13    1    3    3    0    0 -0.55762217865E+03 -0.11318713738E+03  0.46106853658E+03  0.73235102076E+03  0.00000000000E+00 0.  1.
         22    1    1    2    0    0  0.97353431644E+03  0.12408369391E+03 -0.18923388286E+02  0.98159254429E+03  0.00000000000E+00 0.  1.
<mgrwt>
<rscale>  0 0.20991390E+04</rscale>
<asrwt>0</asrwt>
<pdfrwt beam="1">  1        2 0.11426241E+00 0.20991390E+04</pdfrwt>
<pdfrwt beam="2">  1       -2 0.22818774E+00 0.20991390E+04</pdfrwt>
<totfact> 0.30706174E+00</totfact>
</mgrwt>
</event>
<event>
 6    1  0.5196787E-004  0.1702656E+04  0.7818608E-02  0.8759851E-01
          2   -1    0    0  501    0  0.00000000000E+00  0.00000000000E+00  0.17928140444E+04  0.17928140444E+04  0.00000000000E+00 0.  1.
         -2   -1    0    0    0  501 -0.00000000000E+00 -0.00000000000E+00 -0.40425801080E+03  0.40425801080E+03  0.00000000000E+00 0. -1.
         23    2    1    2    0    0  0.52255609953E+02  0.26279070407E+03  0.17355268940E+04  0.17586905080E+04  0.95650929697E+02 0.  0.
         11    1    3    3    0    0  0.48575987427E+02  0.23960746323E+03  0.13166176533E+04  0.13391241197E+04  0.00000000000E+00 0. -1.
        -11    1    3    3    0    0  0.36796225257E+01  0.23183240844E+02  0.41890924068E+03  0.41956638832E+03  0.00000000000E+00 0.  1.
         22    1    1    2    0    0 -0.52255609953E+02 -0.26279070407E+03 -0.34697086040E+03  0.43838154716E+03  0.00000000000E+00 0. -1.
<mgrwt>
<rscale>  0 0.17026561E+04</rscale>
<asrwt>0</asrwt>
<pdfrwt beam="1">  1        2 0.27581754E+00 0.17026561E+04</pdfrwt>
<pdfrwt beam="2">  1       -2 0.62193541E-01 0.17026561E+04</pdfrwt>
<totfact> 0.19879051E+01</totfact>
</mgrwt>
</event>
<event>
 6    1  0.5196787E-004  0.6287725E+04  0.7818608E-02  0.7655716E-01
         -2   -1    0    0    0  501 -0.00000000000E+00  0.00000000000E+00  0.25655710743E+04  0.25655710743E+04  0.00000000000E+00 0. -1.
          2   -1    0    0  501    0  0.00000000000E+00 -0.00000000000E+00 -0.38525028711E+04  0.38525028711E+04  0.00000000000E+00 0.  1.
         23    2    1    2    0    0 -0.52206883457E+03  0.30128266201E+04 -0.13867578082E+04  0.33587201994E+04  0.90686540503E+02 0.  0.
         13    1    3    3    0    0 -0.69680190717E+02  0.37140866948E+03 -0.20410172942E+03  0.42948485969E+03  0.00000000000E+00 0. -1.
        -13    1    3    3    0    0 -0.45238864386E+03  0.26414179506E+04 -0.11826560788E+04  0.29292353397E+04  0.00000000000E+00 0.  1.
         22    1    1    2    0    0  0.52206883457E+03 -0.30128266201E+04  0.99826011454E+02  0.30593537460E+04  0.00000000000E+00 0. -1.
<mgrwt>
<rscale>  0 0.62877245E+04</rscale>
<asrwt>0</asrwt>
<pdfrwt beam="1">  1        2 0.59269275E+00 0.62877245E+04</pdfrwt>
<pdfrwt beam="2">  1       -2 0.39470324E+00 0.62877245E+04</pdfrwt>
<totfact> 0.23613317E-03</totfact>
</mgrwt>
</event>
<event>
 6    1  0.5196787E-004  0.7929003E+03  0.7818608E-02  0.9570351E-01
          2   -1    0    0  501    0  0.00000000000E+00  0.00000000000E+00  0.56105174723E+03  0.56105174723E+03  0.00000000000E+00 0.  1.
         -2   -1    0    0    0  501 -0.00000000000E+00 -0.00000000000E+00 -0.28013940322E+03  0.28013940322E+03  0.00000000000E+00 0. -1.
         23    2    1    2    0    0  0.22974168094E+03 -0.29040965252E+03  0.27593953524E+03  0.47086192521E+03  0.91920178779E+02 0.  0.
         11    1    3    3    0    0  0.46230997304E+02 -0.12026326187E+03  0.11954446633E+03  0.17575959916E+03  0.00000000000E+00 0. -1.
        -11    1    3    3    0    0  0.18351068364E+03 -0.17014639065E+03  0.15639506891E+03  0.29510232605E+03  0.00000000000E+00 0.  1.
         22    1    1    2    0    0 -0.22974168094E+03  0.29040965252E+03  0.49728087758E+01  0.37032922524E+03  0.00000000000E+00 0. -1.
<mgrwt>
<rscale>  0 0.79290025E+03</rscale>
<asrwt>0</asrwt>
<pdfrwt beam="1">  1        2 0.86315653E-01 0.79290025E+03</pdfrwt>
<pdfrwt beam="2">  1       -2 0.43098370E-01 0.79290025E+03</pdfrwt>
<totfact> 0.27623404E+02</totfact>
</mgrwt>
</event>
<event>
 6    1  0.5196787E-004  0.2643096E+04  0.7818608E-02  0.8353708E-01
          2   -1    0    0  501    0  0.00000000000E+00  0.00000000000E+00  0.33767906139E+04  0.33767906139E+04  0.00000000000E+00 0.  1.
         -2   -1    0    0    0  501 -0.00000000000E+00 -0.00000000000E+00 -0.51720392592E+03  0.51720392592E+03  0.00000000000E+00 0. -1.
         23    2    1    2    0    0  0.10759734081E+04 -0.65709939163E+03  0.85569494497E+03  0.15264894178E+04  0.91965854111E+02 0.  0.
         11    1    3    3    0    0  0.49188700964E+03 -0.31027743941E+03  0.44927308224E+03  0.73489538173E+03  0.00000000000E+00 0.  1.
        -11    1    3    3    0    0  0.58408639843E+03 -0.34682195222E+03  0.40642186273E+03  0.79159403603E+03  0.00000000000E+00 0. -1.
         22    1    1    2    0    0 -0.10759734081E+04  0.65709939163E+03  0.20038917430E+04  0.23675051221E+04  0.00000000000E+00 0.  1.
<mgrwt>
<rscale>  0 0.26430962E+04</rscale>
<asrwt>0</asrwt>
<pdfrwt beam="1">  1        2 0.51950623E+00 0.26430962E+04</pdfrwt>
<pdfrwt beam="2">  1       -2 0.79569837E-01 0.26430962E+04</pdfrwt>
<totfact> 0.12197118E+00</totfact>
</mgrwt>
</event>
<event>
 6    1  0.5196787E-004  0.1688185E+04  0.7818608E-02  0.8768132E-01
          2   -1    0    0  501    0  0.00000000000E+00  0.00000000000E+00  0.34717701098E+03  0.34717701098E+03  0.00000000000E+00 0.  1.
         -2   -1    0    0    0  501 -0.00000000000E+00 -0.00000000000E+00 -0.20522452459E+04  0.20522452459E+04  0.00000000000E+00 0. -1.
         23    2    1    2    0    0  0.30875450736E+03  0.54426257496E+03 -0.16546431397E+04  0.17716533611E+04  0.96750275826E+02 0.  0.
         13    1    3    3    0    0  0.11742004751E+03  0.18040893572E+03 -0.69755800800E+03  0.73001508626E+03  0.00000000000E+00 0. -1.
        -13    1    3    3    0    0  0.19133445985E+03  0.36385363924E+03 -0.95708513166E+03  0.10416382748E+04  0.00000000000E+00 0.  1.
         22    1    1    2    0    0 -0.30875450736E+03 -0.54426257496E+03 -0.50425095260E+02  0.62776889581E+03  0.00000000000E+00 0.  1.
<mgrwt>
<rscale>  0 0.16881853E+04</rscale>
<asrwt>0</asrwt>
<pdfrwt beam="1">  1        2 0.53411847E-01 0.16881853E+04</pdfrwt>
<pdfrwt beam="2">  1       -2 0.31573004E+00 0.16881853E+04</pdfrwt>
<totfact> 0.22667147E+00</totfact>
</mgrwt>
</event>
<event>
 6    1  0.5196787E-004  0.3657586E+04  0.7818608E-02  0.8077427E-01
         -2   -1    0    0    0  501 -0.00000000000E+00  0.00000000000E+00  0.90603385383E+03  0.90603385383E+03  0.00000000000E+00 0. -1.
          2   -1    0    0  501    0  0.00000000000E+00 -0.00000000000E+00 -0.36913447638E+04  0.36913447638E+04  0.00000000000E+00 0.  1.
         23    2    1    2    0    0  0.11540285704E+04  0.53172420252E+03  0.25771877784E+03  0.12997215327E+04  0.91348373406E+02 0.  0.
         11    1    3    3    0    0  0.25546088033E+03  0.11534705946E+03  0.95847566135E+02  0.29622957556E+03  0.00000000000E+00 0. -1.
        -11    1    3    3    0    0  0.89856769007E+03  0.41637714307E+03  0.16187121171E+03  0.10034919572E+04  0.00000000000E+00 0.  1.
         22    1    1    2    0    0 -0.11540285704E+04 -0.53172420252E+03 -0.30430296879E+04  0.32976570850E+04  0.00000000000E+00 0.  1.
<mgrwt>
<rscale>  0 0.36575857E+04</rscale>
<asrwt>0</asrwt>
<pdfrwt beam="1">  1        2 0.56789918E+00 0.36575857E+04</pdfrwt>
<pdfrwt beam="2">  1       -2 0.13938983E+00 0.36575857E+04</pdfrwt>
<totfact> 0.17417452E-01</totfact>
</mgrwt>
</event>
<event>
 6    1  0.5196787E-004  0.5583083E+04  0.7818608E-02  0.7744359E-01
          2   -1    0    0  501    0  0.00000000000E+00  0.00000000000E+00  0.19370339017E+04  0.19370339017E+04  0.00000000000E+00 0.  1.
         -2   -1    0    0    0  501 -0.00000000000E+00 -0.00000000000E+00 -0.40230089391E+04  0.40230089391E+04  0.00000000000E+00 0. -1.
         23    2    1    2    0    0  0.24888210033E+04 -0.12587118377E+04 -0.93797559527E+03  0.29440043470E+04  0.93690452620E+02 0.  0.
         11    1    3    3    0    0  0.21341230800E+04 -0.11153791969E+04 -0.80791580413E+03  0.25399370111E+04  0.00000000000E+00 0. -1.
        -11    1    3    3    0    0  0.35469792329E+03 -0.14333264083E+03 -0.13005979114E+03  0.40406733595E+03  0.00000000000E+00 0.  1.
         22    1    1    2    0    0 -0.24888210033E+04  0.12587118377E+04 -0.11479994421E+04  0.30160384938E+04  0.00000000000E+00 0.  1.
<mgrwt>
<rscale>  0 0.55830833E+04</rscale>
<asrwt>0</asrwt>
<pdfrwt beam="1">  1        2 0.29800522E+00 0.55830833E+04</pdfrwt>
<pdfrwt beam="2">  1       -2 0.61892445E+00 0.55830833E+04</pdfrwt>
<totfact> 0.22053173E-03</totfact>
</mgrwt>
</event>
<event>
 6    1  0.5196787E-004  0.3243846E+04  0.7818608E-02  0.8177333E-01
         -2   -1    0    0    0  501 -0.00000000000E+00  0.00000000000E+00  0.15297751273E+04  0.15297751273E+04  0.00000000000E+00 0. -1.
          2   -1    0    0  501    0  0.00000000000E+00 -0.00000000000E+00 -0.17196210784E+04  0.17196210784E+04  0.00000000000E+00 0.  1.
         23    2    1    2    0    0 -0.54811114999E+03 -0.14216297550E+04 -0.64811250402E+03  0.16583383103E+04  0.92623649327E+02 0.  0.
         13    1    3    3    0    0 -0.25230577525E+03 -0.71919127451E+03 -0.36753007268E+03  0.84615166955E+03  0.00000000000E+00 0. -1.
        -13    1    3    3    0    0 -0.29580537474E+03 -0.70243848053E+03 -0.28058243134E+03  0.81218664076E+03  0.00000000000E+00 0.  1.
         22    1    1    2    0    0  0.54811114999E+03  0.14216297550E+04  0.45826655291E+03  0.15910578955E+04  0.00000000000E+00 0. -1.
<mgrwt>
<rscale>  0 0.32438456E+04</rscale>
<asrwt>0</asrwt>
<pdfrwt beam="1">  1        2 0.26455709E+00 0.32438456E+04</pdfrwt>
<pdfrwt beam="2">  1       -2 0.23535002E+00 0.32438456E+04</pdfrwt>
<totfact> 0.63529011E-01</totfact>
</mgrwt>
</event>
<event>
 6    1  0.5196787E-004  0.1098263E+04  0.7818608E-02  0.9206887E-01
         -2   -1    0    0    0  501 -0.00000000000E+00  0.00000000000E+00  0.19900677060E+03  0.19900677060E+03  0.00000000000E+00 0. -1.
          2   -1    0    0  501    0  0.00000000000E+00 -0.00000000000E+00 -0.15152516958E+04  0.15152516958E+04  0.00000000000E+00 0.  1.
         23    2    1    2    0    0  0.14469347616E+02 -0.25796357324E+03  0.86476821939E+02  0.28794052602E+03  0.93150086730E+02 0.  0.
         11    1    3    3    0    0  0.21957088391E+02 -0.11710431305E+03  0.85898513897E+02  0.14688120559E+03  0.00000000000E+00 0. -1.
        -11    1    3    3    0    0 -0.74877407754E+01 -0.14085926018E+03  0.57830804239E+00  0.14105932043E+03  0.00000000000E+00 0.  1.
         22    1    1    2    0    0 -0.14469347616E+02  0.25796357324E+03 -0.14027217472E+04  0.14263179404E+04  0.00000000000E+00 0.  1.
<mgrwt>
<rscale>  0 0.10982629E+04</rscale>
<asrwt>0</asrwt>
<pdfrwt beam="1">  1        2 0.23311565E+00 0.10982629E+04</pdfrwt>
<pdfrwt beam="2">  1       -2 0.30616425E-01 0.10982629E+04</pdfrwt>
<totfact> 0.12189306E+02</totfact>
</mgrwt>
</event>
<event>
 6    1  0.5196787E-004  0.4018259E+04  0.7818608E-02  0.8000873E-01
          2   -1    0    0  501    0  0.00000000000E+00  0.00000000000E+00  0.14348142435E+04  0.14348142435E+04  0.00000000000E+00 0.  1.
         -2   -1    0    0    0  501 -0.00000000000E+00 -0.00000000000E+00 -0.28133273872E+04  0.28133273872E+04  0.00000000000E+00 0. -1.
         23    2    1    2    0    0  0.45403131558E+03  0.79408043322E+03  0.12003178350E+04  0.15118891959E+04  0.91311914960E+02 0.  0.
         13    1    3    3    0    0  0.16767750301E+03  0.28938201499E+03  0.36817530797E+03  0.49740401387E+03  0.00000000000E+00 0.  1.
        -13    1    3    3    0    0  0.28635381257E+03  0.50469841824E+03  0.83214252701E+03  0.10144851820E+04  0.00000000000E+00 0. -1.
         22    1    1    2    0    0 -0.45403131558E+03 -0.79408043322E+03 -0.25788309788E+04  0.27362524348E+04  0.00000000000E+00 0. -1.
<mgrwt>
<rscale>  0 0.40182594E+04</rscale>
<asrwt>0</asrwt>
<pdfrwt beam="1">  1        2 0.22074066E+00 0.40182594E+04</pdfrwt>
<pdfrwt beam="2">  1       -2 0.43281959E+00 0.40182594E+04</pdfrwt>
<totfact> 0.49097428E-02</totfact>
</mgrwt>
</event>
<event>
 6    1  0.5196787E-004  0.3100763E+04  0.7818608E-02  0.8215529E-01
          2   -1    0    0  501    0  0.00000000000E+00  0.00000000000E+00  0.25859865077E+04  0.25859865077E+04  0.00000000000E+00 0.  1.
         -2   -1    0    0    0  501 -0.00000000000E+00 -0.00000000000E+00 -0.92950311168E+03  0.92950311168E+03  0.00000000000E+00 0. -1.
         23    2    1    2    0    0 -0.42691451731E+03  0.13770023158E+04  0.14715647730E+04  0.20620157532E+04  0.89524870901E+02 0.  0.
         13    1    3    3    0    0 -0.20779113786E+03  0.52560468257E+03  0.56353875583E+03  0.79813117258E+03  0.00000000000E+00 0. -1.
        -13    1    3    3    0    0 -0.21912337945E+03  0.85139763320E+03  0.90802601715E+03  0.12638845806E+04  0.00000000000E+00 0.  1.
         22    1    1    2    0    0  0.42691451731E+03 -0.13770023158E+04  0.18491862308E+03  0.14534738663E+04  0.00000000000E+00 0. -1.
<mgrwt>
<rscale>  0 0.31007628E+04</rscale>
<asrwt>0</asrwt>
<pdfrwt beam="1">  1        2 0.39784407E+00 0.31007628E+04</pdfrwt>
<pdfrwt beam="2">  1       -2 0.14300048E+00 0.31007628E+04</pdfrwt>
<totfact> 0.89452540E-01</totfact>
</mgrwt>
</event>
<event>
 6    1  0.5196787E-004  0.2525912E+04  0.7818608E-02  0.8393812E-01
         -2   -1    0    0    0  501 -0.00000000000E+00  0.00000000000E+00  0.12013311496E+04  0.12013311496E+04  0.00000000000E+00 0. -1.
          2   -1    0    0  501    0  0.00000000000E+00 -0.00000000000E+00 -0.13277416319E+04  0.13277416319E+04  0.00000000000E+00 0.  1.
         23    2    1    2    0    0 -0.25056301825E+03 -0.60614538218E+03  0.10154686335E+04  0.12122273214E+04  0.90135912245E+02 0.  0.
         13    1    3    3    0    0 -0.47832989559E+02 -0.12381487414E+03  0.14465251511E+03  0.19632235756E+03  0.00000000000E+00 0. -1.
        -13    1    3    3    0    0 -0.20273002869E+03 -0.48233050805E+03  0.87081611841E+03  0.10159049639E+04  0.00000000000E+00 0.  1.
         22    1    1    2    0    0  0.25056301825E+03  0.60614538218E+03 -0.11418791159E+04  0.13168454601E+04  0.00000000000E+00 0.  1.
<mgrwt>
<rscale>  0 0.25259116E+04</rscale>
<asrwt>0</asrwt>
<pdfrwt beam="1">  1        2 0.20426794E+00 0.25259116E+04</pdfrwt>
<pdfrwt beam="2">  1       -2 0.18482018E+00 0.25259116E+04</pdfrwt>
<totfact> 0.23820151E+00</totfact>
</mgrwt>
</event>
<event>
 6    1  0.5196787E-004  0.1149433E+04  0.7818608E-02  0.9158307E-01
          4   -1    0    0  501    0  0.00000000000E+00  0.00000000000E+00  0.32568021149E+03  0.32568021149E+03  0.00000000000E+00 0. -1.
         -4   -1    0    0    0  501 -0.00000000000E+00 -0.00000000000E+00 -0.10141818933E+04  0.10141818933E+04  0.00000000000E+00 0.  1.
         23    2    1    2    0    0 -0.56528045492E+03 -0.50529225713E+02 -0.27182657731E+03  0.63579297604E+03  0.90817536192E+02 0.  0.
         13    1    3    3    0    0 -0.56765558613E+02 -0.28437125716E+02 -0.48813608922E+02  0.80085998650E+02  0.00000000000E+00 0. -1.
        -13    1    3    3    0    0 -0.50851489631E+03 -0.22092099998E+02 -0.22301296839E+03  0.55570697739E+03  0.00000000000E+00 0.  1.
         22    1    1    2    0    0  0.56528045492E+03  0.50529225713E+02 -0.41667510452E+03  0.70406912877E+03  0.00000000000E+00 0. -1.
<mgrwt>
<rscale>  0 0.11494329E+04</rscale>
<asrwt>0</asrwt>
<pdfrwt beam="1">  1        4 0.50104649E-01 0.11494329E+04</pdfrwt>
<pdfrwt beam="2">  1       -4 0.15602798E+00 0.11494329E+04</pdfrwt>
<totfact> 0.20315961E+00</totfact>
</mgrwt>
</event>
<event>
 6    1  0.5196787E-004  0.1703329E+04  0.7818608E-02  0.8759468E-01
         -2   -1    0    0    0  501 -0.00000000000E+00  0.00000000000E+00  0.53267956389E+03  0.53267956389E+03  0.00000000000E+00 0. -1.
          2   -1    0    0  501    0  0.00000000000E+00 -0.00000000000E+00 -0.13616670289E+04  0.13616670289E+04  0.00000000000E+00 0.  1.
         23    2    1    2    0    0 -0.63378324828E+03 -0.56380156809E+03 -0.46042800381E+03  0.96947390400E+03  0.91281377390E+02 0.  0.
         13    1    3    3    0    0 -0.57666255770E+03 -0.52770367598E+03 -0.44741461505E+03  0.90066126422E+03  0.00000000000E+00 0.  1.
        -13    1    3    3    0    0 -0.57120690577E+02 -0.36097892114E+02 -0.13013388763E+02  0.68812639785E+02  0.00000000000E+00 0. -1.
         22    1    1    2    0    0  0.63378324828E+03  0.56380156809E+03 -0.36855946116E+03  0.92487268875E+03  0.00000000000E+00 0. -1.
<mgrwt>
<rscale>  0 0.17033287E+04</rscale>
<asrwt>0</asrwt>
<pdfrwt beam="1">  1        2 0.20948723E+00 0.17033287E+04</pdfrwt>
<pdfrwt beam="2">  1       -2 0.81950703E-01 0.17033287E+04</pdfrwt>
<totfact> 0.18960751E+01</totfact>
</mgrwt>
</event>
<event>
 6    1  0.5196787E-004  0.3993123E+04  0.7818608E-02  0.8005935E-01
         -1   -1    0    0    0  501 -0.00000000000E+00  0.00000000000E+00  0.24417359257E+04  0.24417359257E+04  0.00000000000E+00 0. -1.
          1   -1    0    0  501    0  0.00000000000E+00 -0.00000000000E+00 -0.16325503645E+04  0.16325503645E+04  0.00000000000E+00 0.  1.
         23    2    1    2    0    0  0.13329396622E+04  0.14166440578E+04  0.85949299727E+03  0.21284858463E+04  0.90084715205E+02 0.  0.
         11    1    3    3    0    0  0.82865828963E+03  0.85328259788E+03  0.48191455805E+03  0.12833578589E+04  0.00000000000E+00 0.  1.
        -11    1    3    3    0    0  0.50428137252E+03  0.56336145993E+03  0.37757843922E+03  0.84512798733E+03  0.00000000000E+00 0. -1.
         22    1    1    2    0    0 -0.13329396622E+04 -0.14166440578E+04 -0.50307436002E+02  0.19458004439E+04  0.00000000000E+00 0.  1.
<mgrwt>
<rscale>  0 0.39931225E+04</rscale>
<asrwt>0</asrwt>
<pdfrwt beam="1">  1        1 0.25116159E+00 0.39931225E+04</pdfrwt>
<pdfrwt beam="2">  1       -1 0.37565168E+00 0.39931225E+04</pdfrwt>
<totfact> 0.43425394E-02</totfact>
</mgrwt>
</event>
<event>
 6    1  0.5196787E-004  0.3164887E+04  0.7818608E-02  0.8198153E-01
         -2   -1    0    0    0  501 -0.00000000000E+00  0.00000000000E+00  0.10614438271E+04  0.10614438271E+04  0.00000000000E+00 0. -1.
          2   -1    0    0  501    0  0.00000000000E+00 -0.00000000000E+00 -0.23591705864E+04  0.23591705864E+04  0.00000000000E+00 0.  1.
         23    2    1    2    0    0 -0.68652600832E+02 -0.83230502630E+03 -0.21003879015E+04  0.22622924610E+04  0.94302736269E+02 0.  0.
         13    1    3    3    0    0  0.12359393459E+02 -0.35741616802E+03 -0.83912220789E+03  0.91215412707E+03  0.00000000000E+00 0.  1.
        -13    1    3    3    0    0 -0.81011994291E+02 -0.47488885828E+03 -0.12612656936E+04  0.13501383339E+04  0.00000000000E+00 0. -1.
         22    1    1    2    0    0  0.68652600832E+02  0.83230502630E+03  0.80266114223E+03  0.11583219525E+04  0.00000000000E+00 0. -1.
<mgrwt>
<rscale>  0 0.31648868E+04</rscale>
<asrwt>0</asrwt>
<pdfrwt beam="1">  1        2 0.36294932E+00 0.31648868E+04</pdfrwt>
<pdfrwt beam="2">  1       -2 0.16329905E+00 0.31648868E+04</pdfrwt>
<totfact> 0.84387489E-01</totfact>
</mgrwt>
</event>
<event>
 6    1  0.5196787E-004  0.2073183E+04  0.7818608E-02  0.8573149E-01
          2   -1    0    0  501    0  0.00000000000E+00  0.00000000000E+00  0.17989259008E+04  0.17989259008E+04  0.00000000000E+00 0.  1.
         -2   -1    0    0    0  501 -0.00000000000E+00 -0.00000000000E+00 -0.59731315283E+03  0.59731315283E+03  0.00000000000E+00 0. -1.
         23    2    1    2    0    0 -0.57992530497E+03  0.53707859101E+03  0.13734500732E+04  0.15873541183E+04  0.92526866645E+02 0.  0.
         11    1    3    3    0    0 -0.27256438659E+03  0.19081454967E+03  0.56189828165E+03  0.65301701059E+03  0.00000000000E+00 0.  1.
        -11    1    3    3    0    0 -0.30736091837E+03  0.34626404134E+03  0.81155179154E+03  0.93433710770E+03  0.00000000000E+00 0. -1.
         22    1    1    2    0    0  0.57992530497E+03 -0.53707859101E+03 -0.17183732523E+03  0.80888493533E+03  0.00000000000E+00 0. -1.
<mgrwt>
<rscale>  0 0.20731832E+04</rscale>
<asrwt>0</asrwt>
<pdfrwt beam="1">  1        2 0.27675783E+00 0.20731832E+04</pdfrwt>
<pdfrwt beam="2">  1       -2 0.91894332E-01 0.20731832E+04</pdfrwt>
<totfact> 0.80362716E+00</totfact>
</mgrwt>
</event>
<event>
 6    1  0.6430174E-004  0.2416478E+04  0.7818608E-02  0.8433360E-01
         -2   -1    0    0    0  501 -0.00000000000E+00  0.00000000000E+00  0.12971193868E+04  0.12971193868E+04  0.00000000000E+00 0. -1.
          2   -1    0    0  501    0  0.00000000000E+00 -0.00000000000E+00 -0.11254488335E+04  0.11254488335E+04  0.00000000000E+00 0.  1.
         23    2    1    2    0    0  0.12073017398E+02 -0.12007723231E+04 -0.40514731511E+02  0.12031328900E+04  0.62348840060E+02 0.  0.
         13    1    3    3    0    0  0.54280517096E+01 -0.51438042321E+03  0.13506859823E+02  0.51458635697E+03  0.00000000000E+00 0.  1.
        -13    1    3    3    0    0  0.66449656881E+01 -0.68639189989E+03 -0.54021591334E+02  0.68854653302E+03  0.00000000000E+00 0. -1.
         22    1    1    2    0    0 -0.12073017398E+02  0.12007723231E+04  0.21218528480E+03  0.12194353303E+04  0.00000000000E+00 0.  1.
<mgrwt>
<rscale>  0 0.24164780E+04</rscale>
<asrwt>0</asrwt>
<pdfrwt beam="1">  1        2 0.17314597E+00 0.24164780E+04</pdfrwt>
<pdfrwt beam="2">  1       -2 0.19955683E+00 0.24164780E+04</pdfrwt>
<totfact> 0.25265822E+00</totfact>
</mgrwt>
</event>
<event>
 6    1  0.5196787E-004  0.2461716E+04  0.7818608E-02  0.8416753E-01
         -2   -1    0    0    0  501 -0.00000000000E+00  0.00000000000E+00  0.43403199926E+03  0.43403199926E+03  0.00000000000E+00 0. -1.
          2   -1    0    0  501    0  0.00000000000E+00 -0.00000000000E+00 -0.34905524716E+04  0.34905524716E+04  0.00000000000E+00 0.  1.
         23    2    1    2    0    0 -0.95540405444E+03  0.77118047173E+03 -0.16223843395E+04  0.20366589759E+04  0.91283139617E+02 0.  0.
         13    1    3    3    0    0 -0.61545364431E+03  0.44582232177E+03 -0.96887756460E+03  0.12313669096E+04  0.00000000000E+00 0.  1.
        -13    1    3    3    0    0 -0.33995041013E+03  0.32535814997E+03 -0.65350677494E+03  0.80529206627E+03  0.00000000000E+00 0. -1.
         22    1    1    2    0    0  0.95540405444E+03 -0.77118047173E+03 -0.14341361328E+04  0.18879254950E+04  0.00000000000E+00 0.  1.
<mgrwt>
<rscale>  0 0.24617160E+04</rscale>
<asrwt>0</asrwt>
<pdfrwt beam="1">  1        2 0.53700809E+00 0.24617160E+04</pdfrwt>
<pdfrwt beam="2">  1       -2 0.66774151E-01 0.24617160E+04</pdfrwt>
<totfact> 0.15235580E+00</totfact>
</mgrwt>
</event>
<event>
 6    1  0.5196787E-004  0.2119232E+04  0.7818608E-02  0.8552818E-01
         -2   -1    0    0    0  501 -0.00000000000E+00  0.00000000000E+00  0.42521898837E+03  0.42521898837E+03  0.00000000000E+00 0. -1.
          2   -1    0    0  501    0  0.00000000000E+00 -0.00000000000E+00 -0.26404902458E+04  0.26404902458E+04  0.00000000000E+00 0.  1.
         23    2    1    2    0    0  0.50633850066E+03  0.43292858709E+03 -0.22981490768E+04  0.23943862332E+04  0.88263332044E+02 0.  0.
         13    1    3    3    0    0  0.82834127650E+02  0.40520364533E+02 -0.25201858263E+03  0.26835938336E+03  0.00000000000E+00 0. -1.
        -13    1    3    3    0    0  0.42350437301E+03  0.39240822256E+03 -0.20461304941E+04  0.21260268498E+04  0.00000000000E+00 0.  1.
         22    1    1    2    0    0 -0.50633850066E+03 -0.43292858709E+03  0.82877819322E+02  0.67132300102E+03  0.00000000000E+00 0. -1.
<mgrwt>
<rscale>  0 0.21192325E+04</rscale>
<asrwt>0</asrwt>
<pdfrwt beam="1">  1        2 0.40622926E+00 0.21192325E+04</pdfrwt>
<pdfrwt beam="2">  1       -2 0.65418307E-01 0.21192325E+04</pdfrwt>
<totfact> 0.57099182E+00</totfact>
</mgrwt>
</event>
<event>
 6    1  0.5196787E-004  0.1400873E+04  0.7818608E-02  0.8953187E-01
         -2   -1    0    0    0  501 -0.00000000000E+00  0.00000000000E+00  0.31223761144E+03  0.31223761144E+03  0.00000000000E+00 0. -1.
          2   -1    0    0  501    0  0.00000000000E+00 -0.00000000000E+00 -0.15712748297E+04  0.15712748297E+04  0.00000000000E+00 0.  1.
         23    2    1    2    0    0 -0.26882515735E+02 -0.69121712000E+03 -0.51524905360E+03  0.86777398539E+03  0.95112175128E+02 0.  0.
         13    1    3    3    0    0 -0.40558344691E+02 -0.66294107179E+03 -0.50619230584E+03  0.83508472294E+03  0.00000000000E+00 0.  1.
        -13    1    3    3    0    0  0.13675828955E+02 -0.28276048211E+02 -0.90567477581E+01  0.32689262457E+02  0.00000000000E+00 0. -1.
         22    1    1    2    0    0  0.26882515735E+02  0.69121712000E+03 -0.74378816468E+03  0.10157384558E+04  0.00000000000E+00 0.  1.
<mgrwt>
<rscale>  0 0.14008727E+04</rscale>
<asrwt>0</asrwt>
<pdfrwt beam="1">  1        2 0.24173459E+00 0.14008727E+04</pdfrwt>
<pdfrwt beam="2">  1       -2 0.48036555E-01 0.14008727E+04</pdfrwt>
<totfact> 0.46234993E+01</totfact>
</mgrwt>
</event>
<event>
 6    1  0.5196787E-004  0.1295694E+04  0.7818608E-02  0.9032987E-01
         -2   -1    0    0    0  501 -0.00000000000E+00  0.00000000000E+00  0.49348983286E+03  0.49348983286E+03  0.00000000000E+00 0. -1.
          2   -1    0    0  501    0  0.00000000000E+00 -0.00000000000E+00 -0.85048520738E+03  0.85048520738E+03  0.00000000000E+00 0.  1.
         23    2    1    2    0    0 -0.51064303011E+03  0.26285968510E+03  0.12452419434E+03  0.59450014844E+03  0.89847833945E+02 0.  0.
         13    1    3    3    0    0 -0.17962513792E+03  0.12949951153E+03  0.77166399174E+02  0.23449939620E+03  0.00000000000E+00 0. -1.
        -13    1    3    3    0    0 -0.33101789219E+03  0.13336017357E+03  0.47357795169E+02  0.36000075223E+03  0.00000000000E+00 0.  1.
         22    1    1    2    0    0  0.51064303011E+03 -0.26285968510E+03 -0.48151956886E+03  0.74947489181E+03  0.00000000000E+00 0.  1.
<mgrwt>
<rscale>  0 0.12956941E+04</rscale>
<asrwt>0</asrwt>
<pdfrwt beam="1">  1        2 0.13084388E+00 0.12956941E+04</pdfrwt>
<pdfrwt beam="2">  1       -2 0.75921513E-01 0.12956941E+04</pdfrwt>
<totfact> 0.48341254E+01</totfact>
</mgrwt>
</event>
<event>
 6    1  0.5196787E-004  0.1736293E+04  0.7818608E-02  0.8740932E-01
         -2   -1    0    0    0  501 -0.00000000000E+00  0.00000000000E+00  0.42261979087E+03  0.42261979087E+03  0.00000000000E+00 0. -1.
          2   -1    0    0  501    0  0.00000000000E+00 -0.00000000000E+00 -0.17833485913E+04  0.17833485913E+04  0.00000000000E+00 0.  1.
         23    2    1    2    0    0 -0.52484356215E+03  0.46066358011E+03 -0.13322876010E+04  0.15070545101E+04  0.92473486225E+02 0.  0.
         11    1    3    3    0    0 -0.94428472467E+02  0.10835084882E+03 -0.20972486794E+03  0.25424626465E+03  0.00000000000E+00 0. -1.
        -11    1    3    3    0    0 -0.43041508968E+03  0.35231273129E+03 -0.11225627331E+04  0.12528082454E+04  0.00000000000E+00 0.  1.
         22    1    1    2    0    0  0.52484356215E+03 -0.46066358011E+03 -0.28441199386E+02  0.69891387209E+03  0.00000000000E+00 0. -1.
<mgrwt>
<rscale>  0 0.17362931E+04</rscale>
<asrwt>0</asrwt>
<pdfrwt beam="1">  1        2 0.27436132E+00 0.17362931E+04</pdfrwt>
<pdfrwt beam="2">  1       -2 0.65018430E-01 0.17362931E+04</pdfrwt>
<totfact> 0.18245949E+01</totfact>
</mgrwt>
</event>
<event>
 6    1  0.5196787E-004  0.4797173E+03  0.7818608E-02  0.1019213E+00
          2   -1    0    0  501    0  0.00000000000E+00  0.00000000000E+00  0.76535641710E+03  0.76535641710E+03  0.00000000000E+00 0.  1.
         -2   -1    0    0    0  501 -0.00000000000E+00 -0.00000000000E+00 -0.75170430773E+02  0.75170430773E+02  0.00000000000E+00 0. -1.
         23    2    1    2    0    0  0.35613413780E+01 -0.96505360032E+02  0.72547550644E+03  0.73770993343E+03  0.92602741688E+02 0.  0.
         13    1    3    3    0    0 -0.40470629466E+02 -0.48543959993E+02  0.25325131227E+03  0.26101841902E+03  0.00000000000E+00 0.  1.
        -13    1    3    3    0    0  0.44031970844E+02 -0.47961400039E+02  0.47222419417E+03  0.47669151441E+03  0.00000000000E+00 0. -1.
         22    1    1    2    0    0 -0.35613413780E+01  0.96505360032E+02 -0.35289520108E+02  0.10281691445E+03  0.00000000000E+00 0. -1.
<mgrwt>
<rscale>  0 0.47971730E+03</rscale>
<asrwt>0</asrwt>
<pdfrwt beam="1">  1        2 0.11774714E+00 0.47971730E+03</pdfrwt>
<pdfrwt beam="2">  1       -2 0.11564682E-01 0.47971730E+03</pdfrwt>
<totfact> 0.19769029E+03</totfact>
</mgrwt>
</event>
<event>
 6    1  0.5196787E-004  0.1098604E+04  0.7818608E-02  0.9206553E-01
          1   -1    0    0  501    0  0.00000000000E+00  0.00000000000E+00  0.10898066134E+04  0.10898066134E+04  0.00000000000E+00 0.  1.
         -1   -1    0    0    0  501 -0.00000000000E+00 -0.00000000000E+00 -0.27686834197E+03  0.27686834197E+03  0.00000000000E+00 0. -1.
         23    2    1    2    0    0  0.95090650561E+02 -0.32133466611E+03 -0.12585981890E+03  0.36986000068E+03  0.93045830761E+02 0.  0.
         13    1    3    3    0    0  0.43254057085E+02 -0.49705941194E+02 -0.51152402427E+02  0.83415599969E+02  0.00000000000E+00 0.  1.
        -13    1    3    3    0    0  0.51836593477E+02 -0.27162872492E+03 -0.74707416475E+02  0.28644440071E+03  0.00000000000E+00 0. -1.
         22    1    1    2    0    0 -0.95090650561E+02  0.32133466611E+03  0.93879809033E+03  0.99681495468E+03  0.00000000000E+00 0.  1.
<mgrwt>
<rscale>  0 0.10986045E+04</rscale>
<asrwt>0</asrwt>
<pdfrwt beam="1">  1        1 0.16766255E+00 0.10986045E+04</pdfrwt>
<pdfrwt beam="2">  1       -1 0.42595130E-01 0.10986045E+04</pdfrwt>
<totfact> 0.69722028E+01</totfact>
</mgrwt>
</event>
<event>
 6    1  0.1127784E-003  0.2774342E+04  0.7818608E-02  0.8311279E-01
          2   -1    0    0  501    0  0.00000000000E+00  0.00000000000E+00  0.16831678252E+04  0.16831678252E+04  0.00000000000E+00 0.  1.
         -2   -1    0    0    0  501 -0.00000000000E+00 -0.00000000000E+00 -0.11432274202E+04  0.11432274202E+04  0.00000000000E+00 0. -1.
         23    2    1    2    0    0 -0.30261823956E+03  0.85289258714E+03  0.13395481739E+04  0.16187627896E+04  0.83666567052E+02 0.  0.
         13    1    3    3    0    0 -0.21268643195E+03  0.47946639778E+03  0.79092724274E+03  0.94904659961E+03  0.00000000000E+00 0. -1.
        -13    1    3    3    0    0 -0.89931807607E+02  0.37342618936E+03  0.54862093119E+03  0.66971618994E+03  0.00000000000E+00 0.  1.
         22    1    1    2    0    0  0.30261823956E+03 -0.85289258714E+03 -0.79960776901E+03  0.12076324558E+04  0.00000000000E+00 0. -1.
<mgrwt>
<rscale>  0 0.27743422E+04</rscale>
<asrwt>0</asrwt>
<pdfrwt beam="1">  1        2 0.25894890E+00 0.27743422E+04</pdfrwt>
<pdfrwt beam="2">  1       -2 0.17588114E+00 0.27743422E+04</pdfrwt>
<totfact> 0.16928385E+00</totfact>
</mgrwt>
</event>
<event>
 6    1  0.5196787E-004  0.2655732E+04  0.7818608E-02  0.8349513E-01
         -2   -1    0    0    0  501 -0.00000000000E+00  0.00000000000E+00  0.19417862865E+04  0.19417862865E+04  0.00000000000E+00 0.  1.
          2   -1    0    0  501    0  0.00000000000E+00 -0.00000000000E+00 -0.90804449442E+03  0.90804449442E+03  0.00000000000E+00 0. -1.
         23    2    1    2    0    0 -0.78764651866E+03 -0.70395691487E+03  0.13777044947E+04  0.17388615118E+04  0.98118836070E+02 0.  0.
         11    1    3    3    0    0 -0.39895681152E+03 -0.38585527523E+03  0.79488287958E+03  0.96947904729E+03  0.00000000000E+00 0. -1.
        -11    1    3    3    0    0 -0.38868970714E+03 -0.31810163963E+03  0.58282161514E+03  0.76938246448E+03  0.00000000000E+00 0.  1.
         22    1    1    2    0    0  0.78764651866E+03  0.70395691487E+03 -0.34396270259E+03  0.11109692692E+04  0.00000000000E+00 0. -1.
<mgrwt>
<rscale>  0 0.26557322E+04</rscale>
<asrwt>0</asrwt>
<pdfrwt beam="1">  1        2 0.13969915E+00 0.26557322E+04</pdfrwt>
<pdfrwt beam="2">  1       -2 0.29873635E+00 0.26557322E+04</pdfrwt>
<totfact> 0.82496768E-01</totfact>
</mgrwt>
</event>
<event>
 6    1  0.5196787E-004  0.2244251E+04  0.7818608E-02  0.8500233E-01
         -2   -1    0    0    0  501 -0.00000000000E+00  0.00000000000E+00  0.65677381915E+03  0.65677381915E+03  0.00000000000E+00 0. -1.
          2   -1    0    0  501    0  0.00000000000E+00 -0.00000000000E+00 -0.19171975757E+04  0.19171975757E+04  0.00000000000E+00 0.  1.
         23    2    1    2    0    0  0.87790749715E+03 -0.66003614303E+03 -0.37775038104E+03  0.11649002215E+04  0.89038711020E+02 0.  0.
         13    1    3    3    0    0  0.44022095782E+03 -0.38197586295E+03 -0.21859625264E+03  0.62248242806E+03  0.00000000000E+00 0.  1.
        -13    1    3    3    0    0  0.43768653934E+03 -0.27806028008E+03 -0.15915412840E+03  0.54241779346E+03  0.00000000000E+00 0. -1.
         22    1    1    2    0    0 -0.87790749715E+03  0.66003614303E+03 -0.88267337553E+03  0.14090711733E+04  0.00000000000E+00 0.  1.
<mgrwt>
<rscale>  0 0.22442506E+04</rscale>
<asrwt>0</asrwt>
<pdfrwt beam="1">  1        2 0.29495347E+00 0.22442506E+04</pdfrwt>
<pdfrwt beam="2">  1       -2 0.10104213E+00 0.22442506E+04</pdfrwt>
<totfact> 0.54518033E+00</totfact>
</mgrwt>
</event>
<event>
 6    1  0.5196787E-004  0.8626698E+03  0.7818608E-02  0.9473488E-01
         -2   -1    0    0    0  501 -0.00000000000E+00  0.00000000000E+00  0.90371883709E+02  0.90371883709E+02  0.00000000000E+00 0. -1.
          2   -1    0    0  501    0  0.00000000000E+00 -0.00000000000E+00 -0.20587134167E+04  0.20587134167E+04  0.00000000000E+00 0.  1.
         23    2    1    2    0    0 -0.35886154672E+03  0.22818628378E+03 -0.92243584201E+03  0.10200284798E+04  0.93378943496E+02 0.  0.
         13    1    3    3    0    0 -0.30690874983E+03  0.15666052748E+03 -0.77444763724E+03  0.84764653271E+03  0.00000000000E+00 0.  1.
        -13    1    3    3    0    0 -0.51952796894E+02  0.71525756299E+02 -0.14798820477E+03  0.17238194705E+03  0.00000000000E+00 0. -1.
         22    1    1    2    0    0  0.35886154672E+03 -0.22818628378E+03 -0.10459056910E+04  0.11290568207E+04  0.00000000000E+00 0.  1.
<mgrwt>
<rscale>  0 0.86266983E+03</rscale>
<asrwt>0</asrwt>
<pdfrwt beam="1">  1        2 0.31672511E+00 0.86266983E+03</pdfrwt>
<pdfrwt beam="2">  1       -2 0.13903368E-01 0.86266983E+03</pdfrwt>
<totfact> 0.25068282E+02</totfact>
</mgrwt>
</event>
<event>
 6    1  0.5196787E-004  0.1488997E+04  0.7818608E-02  0.8891803E-01
         -1   -1    0    0    0  501 -0.00000000000E+00  0.00000000000E+00  0.46946982513E+03  0.46946982513E+03  0.00000000000E+00 0. -1.
          1   -1    0    0  501    0  0.00000000000E+00 -0.00000000000E+00 -0.11806461651E+04  0.11806461651E+04  0.00000000000E+00 0.  1.
         23    2    1    2    0    0  0.43253954450E+03  0.10920357127E+03  0.30002651314E+03  0.54487977672E+03  0.88668962784E+02 0.  0.
         13    1    3    3    0    0  0.13714107668E+03  0.75178631833E+02  0.12157020758E+03  0.19808790213E+03  0.00000000000E+00 0. -1.
        -13    1    3    3    0    0  0.29539846781E+03  0.34024939438E+02  0.17845630556E+03  0.34679187459E+03  0.00000000000E+00 0.  1.
         22    1    1    2    0    0 -0.43253954450E+03 -0.10920357127E+03 -0.10112028531E+04  0.11052362135E+04  0.00000000000E+00 0.  1.
<mgrwt>
<rscale>  0 0.14889966E+04</rscale>
<asrwt>0</asrwt>
<pdfrwt beam="1">  1        1 0.18163787E+00 0.14889966E+04</pdfrwt>
<pdfrwt beam="2">  1       -1 0.72226128E-01 0.14889966E+04</pdfrwt>
<totfact> 0.20676347E+01</totfact>
</mgrwt>
</event>
<event>
 6    1  0.5196787E-004  0.3604533E+04  0.7818608E-02  0.8089454E-01
          2   -1    0    0  501    0  0.00000000000E+00  0.00000000000E+00  0.19989827070E+04  0.19989827070E+04  0.00000000000E+00 0.  1.
         -2   -1    0    0    0  501 -0.00000000000E+00 -0.00000000000E+00 -0.16249092008E+04  0.16249092008E+04  0.00000000000E+00 0. -1.
         23    2    1    2    0    0 -0.10589707977E+04  0.10045508182E+04  0.12483773189E+04  0.19224370440E+04  0.82321086034E+02 0.  0.
         13    1    3    3    0    0 -0.11406222686E+03  0.14225853306E+03  0.14115454312E+03  0.23059116823E+03  0.00000000000E+00 0. -1.
        -13    1    3    3    0    0 -0.94490857080E+03  0.86229228519E+03  0.11072227757E+04  0.16918458758E+04  0.00000000000E+00 0.  1.
         22    1    1    2    0    0  0.10589707977E+04 -0.10045508182E+04 -0.87430381264E+03  0.17014548638E+04  0.00000000000E+00 0. -1.
<mgrwt>
<rscale>  0 0.36045335E+04</rscale>
<asrwt>0</asrwt>
<pdfrwt beam="1">  1        2 0.30753580E+00 0.36045335E+04</pdfrwt>
<pdfrwt beam="2">  1       -2 0.24998603E+00 0.36045335E+04</pdfrwt>
<totfact> 0.35035082E-01</totfact>
</mgrwt>
</event>
<event>
 6    1  0.5196787E-004  0.1508160E+04  0.7818608E-02  0.8879044E-01
         -2   -1    0    0    0  501 -0.00000000000E+00  0.00000000000E+00  0.47108713470E+03  0.47108713470E+03  0.00000000000E+00 0.  1.
          2   -1    0    0  501    0  0.00000000000E+00 -0.00000000000E+00 -0.12070738762E+04  0.12070738762E+04  0.00000000000E+00 0. -1.
         23    2    1    2    0    0 -0.32505189810E+03 -0.44618473988E+03 -0.93637494318E+03  0.10908834020E+04  0.92135790895E+02 0.  0.
         13    1    3    3    0    0 -0.87453769329E+02 -0.73433157251E+02 -0.24452658393E+03  0.26987745478E+03  0.00000000000E+00 0. -1.
        -13    1    3    3    0    0 -0.23759812877E+03 -0.37275158263E+03 -0.69184835925E+03  0.82100594720E+03  0.00000000000E+00 0.  1.
         22    1    1    2    0    0  0.32505189810E+03  0.44618473988E+03  0.20038820168E+03  0.58727760892E+03  0.00000000000E+00 0.  1.
<mgrwt>
<rscale>  0 0.15081604E+04</rscale>
<asrwt>0</asrwt>
<pdfrwt beam="1">  1        2 0.18570367E+00 0.15081604E+04</pdfrwt>
<pdfrwt beam="2">  1       -2 0.72474944E-01 0.15081604E+04</pdfrwt>
<totfact> 0.31199747E+01</totfact>
</mgrwt>
</event>
<event>
 6    1  0.6557803E-004  0.3807730E+04  0.7818608E-02  0.8044498E-01
         -2   -1    0    0    0  501 -0.00000000000E+00  0.00000000000E+00  0.15045830939E+04  0.15045830939E+04  0.00000000000E+00 0. -1.
          2   -1    0    0  501    0  0.00000000000E+00 -0.00000000000E+00 -0.24091072799E+04  0.24091072799E+04  0.00000000000E+00 0.  1.
         23    2    1    2    0    0 -0.15233541014E+04  0.98372827790E+03  0.13987456779E+03  0.18210609751E+04  0.91482989603E+02 0.  0.
         11    1    3    3    0    0 -0.92307040694E+03  0.54832653905E+03  0.10309401105E+03  0.10785867349E+04  0.00000000000E+00 0. -1.
        -11    1    3    3    0    0 -0.60028369450E+03  0.43540173885E+03  0.36780556735E+02  0.74247424025E+03  0.00000000000E+00 0.  1.
         22    1    1    2    0    0  0.15233541014E+04 -0.98372827790E+03 -0.10443987538E+04  0.20926293986E+04  0.00000000000E+00 0.  1.
<mgrwt>
<rscale>  0 0.38077301E+04</rscale>
<asrwt>0</asrwt>
<pdfrwt beam="1">  1        2 0.37063189E+00 0.38077301E+04</pdfrwt>
<pdfrwt beam="2">  1       -2 0.23147432E+00 0.38077301E+04</pdfrwt>
<totfact> 0.26345390E-01</totfact>
</mgrwt>
</event>
<event>
 6    1  0.5196787E-004  0.1847415E+04  0.7818608E-02  0.8681483E-01
          3   -1    0    0  501    0  0.00000000000E+00  0.00000000000E+00  0.45391994081E+03  0.45391994081E+03  0.00000000000E+00 0. -1.
         -3   -1    0    0    0  501 -0.00000000000E+00 -0.00000000000E+00 -0.18797051090E+04  0.18797051090E+04  0.00000000000E+00 0.  1.
         23    2    1    2    0    0 -0.72729783436E+03 -0.50503578195E+03 -0.10370456447E+04  0.13665978020E+04  0.90014456057E+02 0.  0.
         13    1    3    3    0    0 -0.68026161846E+03 -0.44743234340E+03 -0.92735826022E+03  0.12340765431E+04  0.00000000000E+00 0.  1.
        -13    1    3    3    0    0 -0.47036215900E+02 -0.57603438555E+02 -0.10968738451E+03  0.13252125890E+03  0.00000000000E+00 0. -1.
         22    1    1    2    0    0  0.72729783436E+03  0.50503578195E+03 -0.38873952349E+03  0.96702724783E+03  0.00000000000E+00 0.  1.
<mgrwt>
<rscale>  0 0.18474151E+04</rscale>
<asrwt>0</asrwt>
<pdfrwt beam="1">  1        3 0.69833836E-01 0.18474151E+04</pdfrwt>
<pdfrwt beam="2">  1       -3 0.28918540E+00 0.18474151E+04</pdfrwt>
<totfact> 0.21123355E-01</totfact>
</mgrwt>
</event>
<event>
 6    1  0.5196787E-004  0.3607371E+04  0.7818608E-02  0.8088805E-01
         -2   -1    0    0    0  501 -0.00000000000E+00  0.00000000000E+00  0.14749997017E+04  0.14749997017E+04  0.00000000000E+00 0. -1.
          2   -1    0    0  501    0  0.00000000000E+00 -0.00000000000E+00 -0.22056146420E+04  0.22056146420E+04  0.00000000000E+00 0.  1.
         23    2    1    2    0    0 -0.11691945785E+04  0.69416203660E+03  0.84168911299E+03  0.16019087533E+04  0.93777373543E+02 0.  0.
         13    1    3    3    0    0 -0.40079279020E+03  0.21459933597E+03  0.32814045211E+03  0.56068163157E+03  0.00000000000E+00 0. -1.
        -13    1    3    3    0    0 -0.76840178825E+03  0.47956270062E+03  0.51354866088E+03  0.10412271218E+04  0.00000000000E+00 0.  1.
         22    1    1    2    0    0  0.11691945785E+04 -0.69416203660E+03 -0.15723040533E+04  0.20787055904E+04  0.00000000000E+00 0.  1.
<mgrwt>
<rscale>  0 0.36073708E+04</rscale>
<asrwt>0</asrwt>
<pdfrwt beam="1">  1        2 0.33932533E+00 0.36073708E+04</pdfrwt>
<pdfrwt beam="2">  1       -2 0.22692303E+00 0.36073708E+04</pdfrwt>
<totfact> 0.37324297E-01</totfact>
</mgrwt>
</event>
<event>
 6    1  0.5196787E-004  0.1264068E+04  0.7818608E-02  0.9058555E-01
         -2   -1    0    0    0  501 -0.00000000000E+00  0.00000000000E+00  0.20035786473E+03  0.20035786473E+03  0.00000000000E+00 0.  1.
          2   -1    0    0  501    0  0.00000000000E+00 -0.00000000000E+00 -0.19937689575E+04  0.19937689575E+04  0.00000000000E+00 0. -1.
         23    2    1    2    0    0  0.13475016496E+03  0.29305374108E+03 -0.18380809252E+04  0.18684989732E+04  0.93321076914E+02 0.  0.
         11    1    3    3    0    0  0.30162369783E+02  0.12955397210E+03 -0.96361117113E+03  0.97274893439E+03  0.00000000000E+00 0.  1.
        -11    1    3    3    0    0  0.10458779518E+03  0.16349976898E+03 -0.87446975404E+03  0.89575003885E+03  0.00000000000E+00 0. -1.
         22    1    1    2    0    0 -0.13475016496E+03 -0.29305374108E+03  0.44669832381E+02  0.32562784900E+03  0.00000000000E+00 0.  1.
<mgrwt>
<rscale>  0 0.12640685E+04</rscale>
<asrwt>0</asrwt>
<pdfrwt beam="1">  1        2 0.30673370E+00 0.12640685E+04</pdfrwt>
<pdfrwt beam="2">  1       -2 0.30824286E-01 0.12640685E+04</pdfrwt>
<totfact> 0.64563535E+01</totfact>
</mgrwt>
</event>
<event>
 6    1  0.5196787E-004  0.4015844E+04  0.7818608E-02  0.8001358E-01
          2   -1    0    0  501    0  0.00000000000E+00  0.00000000000E+00  0.29753551717E+04  0.29753551717E+04  0.00000000000E+00 0.  1.
         -2   -1    0    0    0  501 -0.00000000000E+00 -0.00000000000E+00 -0.13550485615E+04  0.13550485615E+04  0.00000000000E+00 0. -1.
         23    2    1    2    0    0 -0.20039233149E+04  0.10757878596E+03  0.78746926668E+03  0.21576405413E+04  0.89571269778E+02 0.  0.
         11    1    3    3    0    0 -0.61023284096E+03 -0.25106544695E+01  0.21641877564E+03  0.64747780659E+03  0.00000000000E+00 0.  1.
        -11    1    3    3    0    0 -0.13936904740E+04  0.11008944043E+03  0.57105049105E+03  0.15101627348E+04  0.00000000000E+00 0. -1.
         22    1    1    2    0    0  0.20039233149E+04 -0.10757878596E+03  0.83283734354E+03  0.21727631919E+04  0.00000000000E+00 0.  1.
<mgrwt>
<rscale>  0 0.40158440E+04</rscale>
<asrwt>0</asrwt>
<pdfrwt beam="1">  1        2 0.45774695E+00 0.40158440E+04</pdfrwt>
<pdfrwt beam="2">  1       -2 0.20846901E+00 0.40158440E+04</pdfrwt>
<totfact> 0.16641302E-01</totfact>
</mgrwt>
</event>
<event>
 6    1  0.5196787E-004  0.3467895E+04  0.7818608E-02  0.8121441E-01
          1   -1    0    0  501    0  0.00000000000E+00  0.00000000000E+00  0.11569450043E+04  0.11569450043E+04  0.00000000000E+00 0. -1.
         -1   -1    0    0    0  501 -0.00000000000E+00 -0.00000000000E+00 -0.25987186155E+04  0.25987186155E+04  0.00000000000E+00 0.  1.
         23    2    1    2    0    0 -0.95139009449E+03 -0.60906606296E+03  0.70157430345E+03  0.13328460732E+04  0.90374612286E+02 0.  0.
         11    1    3    3    0    0 -0.33376827816E+03 -0.19857602759E+03  0.19353826841E+03  0.43392483632E+03  0.00000000000E+00 0. -1.
        -11    1    3    3    0    0 -0.61762181633E+03 -0.41049003538E+03  0.50803603504E+03  0.89892123684E+03  0.00000000000E+00 0.  1.
         22    1    1    2    0    0  0.95139009449E+03  0.60906606296E+03 -0.21433479147E+04  0.24228175467E+04  0.00000000000E+00 0.  1.
<mgrwt>
<rscale>  0 0.34678953E+04</rscale>
<asrwt>0</asrwt>
<pdfrwt beam="1">  1        1 0.17799154E+00 0.34678953E+04</pdfrwt>
<pdfrwt beam="2">  1       -1 0.39980286E+00 0.34678953E+04</pdfrwt>
<totfact> 0.67420067E-02</totfact>
</mgrwt>
</event>
<event>
 6    1  0.5196787E-004  0.1501147E+04  0.7818608E-02  0.8883690E-01
         -2   -1    0    0    0  501 -0.00000000000E+00  0.00000000000E+00  0.36232063063E+03  0.36232063063E+03  0.00000000000E+00 0. -1.
          2   -1    0    0  501    0  0.00000000000E+00 -0.00000000000E+00 -0.15548683973E+04  0.15548683973E+04  0.00000000000E+00 0.  1.
         23    2    1    2    0    0 -0.69373213769E+03 -0.27430412923E+03 -0.52572185457E+03  0.91660728152E+03  0.85313574451E+02 0.  0.
         11    1    3    3    0    0 -0.60565168507E+03 -0.26290288396E+03 -0.44191802865E+03  0.79449571054E+03  0.00000000000E+00 0. -1.
        -11    1    3    3    0    0 -0.88080452617E+02 -0.11401245266E+02 -0.83803825928E+02  0.12211157098E+03  0.00000000000E+00 0.  1.
         22    1    1    2    0    0  0.69373213769E+03  0.27430412923E+03 -0.66682591205E+03  0.10005817464E+04  0.00000000000E+00 0. -1.
<mgrwt>
<rscale>  0 0.15011474E+04</rscale>
<asrwt>0</asrwt>
<pdfrwt beam="1">  1        2 0.23921052E+00 0.15011474E+04</pdfrwt>
<pdfrwt beam="2">  1       -2 0.55741635E-01 0.15011474E+04</pdfrwt>
<totfact> 0.34523605E+01</totfact>
</mgrwt>
</event>
<event>
 6    1  0.5196787E-004  0.5737332E+03  0.7818608E-02  0.9961451E-01
          2   -1    0    0  501    0  0.00000000000E+00  0.00000000000E+00  0.14360334877E+04  0.14360334877E+04  0.00000000000E+00 0.  1.
         -2   -1    0    0    0  501 -0.00000000000E+00 -0.00000000000E+00 -0.57305386824E+02  0.57305386824E+02  0.00000000000E+00 0. -1.
         23    2    1    2    0    0  0.42294695370E+02 -0.12187980117E+03  0.13512599666E+04  0.13614372991E+04  0.10471148399E+03 0.  0.
         11    1    3    3    0    0  0.76220772206E+02 -0.82544834772E+02  0.82392511866E+03  0.83155027330E+03  0.00000000000E+00 0.  1.
        -11    1    3    3    0    0 -0.33926076836E+02 -0.39334966402E+02  0.52733484795E+03  0.52988702582E+03  0.00000000000E+00 0. -1.
         22    1    1    2    0    0 -0.42294695370E+02  0.12187980117E+03  0.27468134250E+02  0.13190157539E+03  0.00000000000E+00 0. -1.
<mgrwt>
<rscale>  0 0.57373323E+03</rscale>
<asrwt>0</asrwt>
<pdfrwt beam="1">  1        2 0.22092820E+00 0.57373323E+03</pdfrwt>
<pdfrwt beam="2">  1       -2 0.88162144E-02 0.57373323E+03</pdfrwt>
<totfact> 0.11821764E+03</totfact>
</mgrwt>
</event>
<event>
 6    1  0.5196787E-004  0.1971457E+04  0.7818608E-02  0.8620083E-01
          2   -1    0    0  501    0  0.00000000000E+00  0.00000000000E+00  0.15235996640E+04  0.15235996640E+04  0.00000000000E+00 0.  1.
         -2   -1    0    0    0  501 -0.00000000000E+00 -0.00000000000E+00 -0.63774004217E+03  0.63774004217E+03  0.00000000000E+00 0. -1.
         23    2    1    2    0    0 -0.29526567330E+03 -0.73096159631E+03 -0.20094807811E+03  0.81871628549E+03  0.91812596711E+02 0.  0.
         13    1    3    3    0    0 -0.13176050917E+03 -0.37989578739E+03 -0.14489737762E+03  0.42740717249E+03  0.00000000000E+00 0. -1.
        -13    1    3    3    0    0 -0.16350516413E+03 -0.35106580892E+03 -0.56050700492E+02  0.39130911300E+03  0.00000000000E+00 0.  1.
         22    1    1    2    0    0  0.29526567330E+03  0.73096159631E+03  0.10868076999E+04  0.13426234207E+04  0.00000000000E+00 0.  1.
<mgrwt>
<rscale>  0 0.19714568E+04</rscale>
<asrwt>0</asrwt>
<pdfrwt beam="1">  1        2 0.23439995E+00 0.19714568E+04</pdfrwt>
<pdfrwt beam="2">  1       -2 0.98113853E-01 0.19714568E+04</pdfrwt>
<totfact> 0.99056565E+00</totfact>
</mgrwt>
</event>
<event>
 6    1  0.5196787E-004  0.1595104E+04  0.7818608E-02  0.8823561E-01
          2   -1    0    0  501    0  0.00000000000E+00  0.00000000000E+00  0.37504515082E+04  0.37504515082E+04  0.00000000000E+00 0.  1.
         -2   -1    0    0    0  501 -0.00000000000E+00 -0.00000000000E+00 -0.16960336236E+03  0.16960336236E+03  0.00000000000E+00 0. -1.
         23    2    1    2    0    0  0.58484618847E+03  0.34543369434E+03  0.78148722003E+03  0.10394661991E+04  0.91641707797E+02 0.  0.
         11    1    3    3    0    0  0.17979472923E+03  0.13836910554E+03  0.31167834451E+03  0.38550686695E+03  0.00000000000E+00 0. -1.
        -11    1    3    3    0    0  0.40505145924E+03  0.20706458880E+03  0.46980887552E+03  0.65395933213E+03  0.00000000000E+00 0.  1.
         22    1    1    2    0    0 -0.58484618847E+03 -0.34543369434E+03  0.27993609258E+04  0.28805886715E+04  0.00000000000E+00 0.  1.
<mgrwt>
<rscale>  0 0.15951040E+04</rscale>
<asrwt>0</asrwt>
<pdfrwt beam="1">  1        2 0.57699248E+00 0.15951040E+04</pdfrwt>
<pdfrwt beam="2">  1       -2 0.26092828E-01 0.15951040E+04</pdfrwt>
<totfact> 0.69239386E+00</totfact>
</mgrwt>
</event>
<event>
 6    1  0.5196787E-004  0.1358300E+04  0.7818608E-02  0.8984569E-01
          2   -1    0    0  501    0  0.00000000000E+00  0.00000000000E+00  0.25887533710E+04  0.25887533710E+04  0.00000000000E+00 0.  1.
         -2   -1    0    0    0  501 -0.00000000000E+00 -0.00000000000E+00 -0.17817257972E+03  0.17817257972E+03  0.00000000000E+00 0. -1.
         23    2    1    2    0    0  0.27575366329E+03 -0.31365660095E+03  0.12731470537E+03  0.44577869878E+03  0.89939245836E+02 0.  0.
         11    1    3    3    0    0  0.22768258953E+03 -0.19985455613E+03  0.10207670388E+03  0.31968869022E+03  0.00000000000E+00 0. -1.
        -11    1    3    3    0    0  0.48071073758E+02 -0.11380204482E+03  0.25238001491E+02  0.12609000855E+03  0.00000000000E+00 0.  1.
         22    1    1    2    0    0 -0.27575366329E+03  0.31365660095E+03  0.22832660859E+04  0.23211472519E+04  0.00000000000E+00 0.  1.
<mgrwt>
<rscale>  0 0.13583002E+04</rscale>
<asrwt>0</asrwt>
<pdfrwt beam="1">  1        2 0.39826972E+00 0.13583002E+04</pdfrwt>
<pdfrwt beam="2">  1       -2 0.27411168E-01 0.13583002E+04</pdfrwt>
<totfact> 0.36750074E+01</totfact>
</mgrwt>
</event>
<event>
 6    1  0.5196787E-004  0.1055053E+04  0.7818608E-02  0.9250143E-01
          2   -1    0    0  501    0  0.00000000000E+00  0.00000000000E+00  0.24319833294E+04  0.24319833294E+04  0.00000000000E+00 0.  1.
         -2   -1    0    0    0  501 -0.00000000000E+00 -0.00000000000E+00 -0.11442681359E+03  0.11442681359E+03  0.00000000000E+00 0. -1.
         23    2    1    2    0    0 -0.39056750478E+03  0.11254761084E+03  0.37755657475E+03  0.56428761604E+03  0.10325505305E+03 0.  0.
         11    1    3    3    0    0 -0.25143474921E+03  0.26968030916E+02  0.19506835806E+03  0.31937183989E+03  0.00000000000E+00 0. -1.
        -11    1    3    3    0    0 -0.13913275557E+03  0.85579579929E+02  0.18248821669E+03  0.24491577615E+03  0.00000000000E+00 0.  1.
         22    1    1    2    0    0  0.39056750478E+03 -0.11254761084E+03  0.19399999411E+04  0.19821225270E+04  0.00000000000E+00 0.  1.
<mgrwt>
<rscale>  0 0.10550528E+04</rscale>
<asrwt>0</asrwt>
<pdfrwt beam="1">  1        2 0.37415124E+00 0.10550528E+04</pdfrwt>
<pdfrwt beam="2">  1       -2 0.17604127E-01 0.10550528E+04</pdfrwt>
<totfact> 0.10219937E+02</totfact>
</mgrwt>
</event>
<event>
 6    1  0.5196787E-004  0.3396052E+04  0.7818608E-02  0.8138876E-01
          2   -1    0    0  501    0  0.00000000000E+00  0.00000000000E+00  0.29347137692E+04  0.29347137692E+04  0.00000000000E+00 0.  1.
         -2   -1    0    0    0  501 -0.00000000000E+00 -0.00000000000E+00 -0.98247827686E+03  0.98247827686E+03  0.00000000000E+00 0. -1.
         23    2    1    2    0    0 -0.37385799318E+03 -0.14826167119E+04  0.12824700867E+03  0.15370962283E+04  0.91079121397E+02 0.  0.
         13    1    3    3    0    0 -0.26034340464E+03 -0.85396377290E+03  0.64127928364E+02  0.89506715109E+03  0.00000000000E+00 0. -1.
        -13    1    3    3    0    0 -0.11351458854E+03 -0.62865293898E+03  0.64119080310E+02  0.64202907719E+03  0.00000000000E+00 0.  1.
         22    1    1    2    0    0  0.37385799318E+03  0.14826167119E+04  0.18239884837E+04  0.23800958178E+04  0.00000000000E+00 0.  1.
<mgrwt>
<rscale>  0 0.33960521E+04</rscale>
<asrwt>0</asrwt>
<pdfrwt beam="1">  1        2 0.45149442E+00 0.33960521E+04</pdfrwt>
<pdfrwt beam="2">  1       -2 0.15115051E+00 0.33960521E+04</pdfrwt>
<totfact> 0.46496524E-01</totfact>
</mgrwt>
</event>
<event>
 6    1  0.5196787E-004  0.4099583E+04  0.7818608E-02  0.7984753E-01
         -2   -1    0    0    0  501 -0.00000000000E+00  0.00000000000E+00  0.11821496809E+04  0.11821496809E+04  0.00000000000E+00 0. -1.
          2   -1    0    0  501    0  0.00000000000E+00 -0.00000000000E+00 -0.35542408101E+04  0.35542408101E+04  0.00000000000E+00 0.  1.
         23    2    1    2    0    0 -0.12752179392E+04 -0.15489405137E+03  0.65691428310E+03  0.14462466116E+04  0.99598827243E+02 0.  0.
         13    1    3    3    0    0 -0.99877776267E+03 -0.11889779365E+03  0.55931879695E+03  0.11508828008E+04  0.00000000000E+00 0. -1.
        -13    1    3    3    0    0 -0.27644017657E+03 -0.35996257720E+02  0.97595486151E+02  0.29536381077E+03  0.00000000000E+00 0.  1.
         22    1    1    2    0    0  0.12752179392E+04  0.15489405137E+03 -0.30290054122E+04  0.32901438794E+04  0.00000000000E+00 0.  1.
<mgrwt>
<rscale>  0 0.40995827E+04</rscale>
<asrwt>0</asrwt>
<pdfrwt beam="1">  1        2 0.54680626E+00 0.40995827E+04</pdfrwt>
<pdfrwt beam="2">  1       -2 0.18186919E+00 0.40995827E+04</pdfrwt>
<totfact> 0.10233751E-01</totfact>
</mgrwt>
</event>
<event>
 6    1  0.5196787E-004  0.3268248E+04  0.7818608E-02  0.8171022E-01
          2   -1    0    0  501    0  0.00000000000E+00  0.00000000000E+00  0.21593930369E+04  0.21593930369E+04  0.00000000000E+00 0.  1.
         -2   -1    0    0    0  501 -0.00000000000E+00 -0.00000000000E+00 -0.12366260774E+04  0.12366260774E+04  0.00000000000E+00 0. -1.
         23    2    1    2    0    0  0.11791170194E+04  0.92344399259E+03 -0.21410466960E+03  0.15157151884E+04  0.92119324714E+02 0.  0.
         11    1    3    3    0    0  0.99917140353E+03  0.75249316556E+03 -0.15348625042E+03  0.12602172380E+04  0.00000000000E+00 0. -1.
        -11    1    3    3    0    0  0.17994561583E+03  0.17095082703E+03 -0.60618419182E+02  0.25549795040E+03  0.00000000000E+00 0.  1.
         22    1    1    2    0    0 -0.11791170194E+04 -0.92344399259E+03  0.11368716290E+04  0.18803039259E+04  0.00000000000E+00 0.  1.
<mgrwt>
<rscale>  0 0.32682483E+04</rscale>
<asrwt>0</asrwt>
<pdfrwt beam="1">  1        2 0.33221431E+00 0.32682483E+04</pdfrwt>
<pdfrwt beam="2">  1       -2 0.19025017E+00 0.32682483E+04</pdfrwt>
<totfact> 0.70368779E-01</totfact>
</mgrwt>
</event>
<event>
 6    1  0.5196787E-004  0.2216199E+04  0.7818608E-02  0.8511716E-01
         -2   -1    0    0    0  501 -0.00000000000E+00  0.00000000000E+00  0.69281614524E+03  0.69281614524E+03  0.00000000000E+00 0. -1.
          2   -1    0    0  501    0  0.00000000000E+00 -0.00000000000E+00 -0.17723091786E+04  0.17723091786E+04  0.00000000000E+00 0.  1.
         23    2    1    2    0    0 -0.83472049171E+03  0.44028863498E+03  0.10130268682E+03  0.95353976087E+03  0.91451953689E+02 0.  0.
         13    1    3    3    0    0 -0.16539275132E+03  0.99816715532E+02 -0.14474876510E+02  0.19372057439E+03  0.00000000000E+00 0.  1.
        -13    1    3    3    0    0 -0.66932774038E+03  0.34047191945E+03  0.11577756333E+03  0.75981918648E+03  0.00000000000E+00 0. -1.
         22    1    1    2    0    0  0.83472049171E+03 -0.44028863498E+03 -0.11807957202E+04  0.15115855630E+04  0.00000000000E+00 0.  1.
<mgrwt>
<rscale>  0 0.22161989E+04</rscale>
<asrwt>0</asrwt>
<pdfrwt beam="1">  1        2 0.27266295E+00 0.22161989E+04</pdfrwt>
<pdfrwt beam="2">  1       -2 0.10658710E+00 0.22161989E+04</pdfrwt>
<totfact> 0.57861795E+00</totfact>
</mgrwt>
</event>
<event>
 6    1  0.5196787E-004  0.3570297E+04  0.7818608E-02  0.8097329E-01
         -2   -1    0    0    0  501 -0.00000000000E+00  0.00000000000E+00  0.20643201430E+04  0.20643201430E+04  0.00000000000E+00 0. -1.
          2   -1    0    0  501    0  0.00000000000E+00 -0.00000000000E+00 -0.15437314869E+04  0.15437314869E+04  0.00000000000E+00 0.  1.
         23    2    1    2    0    0  0.13329492569E+04  0.51459053211E+03  0.13399514813E+04  0.19609594719E+04  0.91295897526E+02 0.  0.
         11    1    3    3    0    0  0.11738623446E+04  0.42273948541E+03  0.11525393107E+04  0.16985312300E+04  0.00000000000E+00 0. -1.
        -11    1    3    3    0    0  0.15908691234E+03  0.91851046693E+02  0.18741217064E+03  0.26242824192E+03  0.00000000000E+00 0.  1.
         22    1    1    2    0    0 -0.13329492569E+04 -0.51459053211E+03 -0.81936282524E+03  0.16470921579E+04  0.00000000000E+00 0.  1.
<mgrwt>
<rscale>  0 0.35702975E+04</rscale>
<asrwt>0</asrwt>
<pdfrwt beam="1">  1        2 0.23749715E+00 0.35702975E+04</pdfrwt>
<pdfrwt beam="2">  1       -2 0.31758771E+00 0.35702975E+04</pdfrwt>
<totfact> 0.24275907E-01</totfact>
</mgrwt>
</event>
<event>
 6    1  0.5196787E-004  0.1415366E+04  0.7818608E-02  0.8942770E-01
          2   -1    0    0  501    0  0.00000000000E+00  0.00000000000E+00  0.28755108697E+04  0.28755108697E+04  0.00000000000E+00 0.  1.
         -2   -1    0    0    0  501 -0.00000000000E+00 -0.00000000000E+00 -0.17416571602E+03  0.17416571602E+03  0.00000000000E+00 0. -1.
         23    2    1    2    0    0 -0.26266749183E+03  0.62993849780E+03  0.17351097076E+04  0.18667025118E+04  0.90309733085E+02 0.  0.
         13    1    3    3    0    0 -0.30378337633E+02  0.77476195245E+02  0.14191816424E+03  0.16451799163E+03  0.00000000000E+00 0.  1.
        -13    1    3    3    0    0 -0.23228915420E+03  0.55246230255E+03  0.15931915434E+04  0.17021845202E+04  0.00000000000E+00 0. -1.
         22    1    1    2    0    0  0.26266749183E+03 -0.62993849780E+03  0.96623544607E+03  0.11829740739E+04  0.00000000000E+00 0. -1.
<mgrwt>
<rscale>  0 0.14153663E+04</rscale>
<asrwt>0</asrwt>
<pdfrwt beam="1">  1        2 0.44238625E+00 0.14153663E+04</pdfrwt>
<pdfrwt beam="2">  1       -2 0.26794728E-01 0.14153663E+04</pdfrwt>
<totfact> 0.25749213E+01</totfact>
</mgrwt>
</event>
<event>
 6    1  0.5196787E-004  0.1446775E+04  0.7818608E-02  0.8920639E-01
         -2   -1    0    0    0  501 -0.00000000000E+00  0.00000000000E+00  0.51251861984E+03  0.51251861984E+03  0.00000000000E+00 0. -1.
          2   -1    0    0  501    0  0.00000000000E+00 -0.00000000000E+00 -0.10210155304E+04  0.10210155304E+04  0.00000000000E+00 0.  1.
         23    2    1    2    0    0 -0.35921309378E+03  0.27665453911E+03 -0.84871622180E+03  0.96668235261E+03  0.92648610081E+02 0.  0.
         11    1    3    3    0    0 -0.19421401713E+03  0.95936801133E+02 -0.36063127736E+03  0.42068738093E+03  0.00000000000E+00 0.  1.
        -11    1    3    3    0    0 -0.16499907665E+03  0.18071773798E+03 -0.48808494443E+03  0.54599497168E+03  0.00000000000E+00 0. -1.
         22    1    1    2    0    0  0.35921309378E+03 -0.27665453911E+03  0.34021931123E+03  0.56685179764E+03  0.00000000000E+00 0. -1.
<mgrwt>
<rscale>  0 0.14467750E+04</rscale>
<asrwt>0</asrwt>
<pdfrwt beam="1">  1        2 0.15707931E+00 0.14467750E+04</pdfrwt>
<pdfrwt beam="2">  1       -2 0.78849018E-01 0.14467750E+04</pdfrwt>
<totfact> 0.33834958E+01</totfact>
</mgrwt>
</event>
<event>
 6    1  0.5196787E-004  0.3002383E+04  0.7818608E-02  0.8243051E-01
          4   -1    0    0  501    0  0.00000000000E+00  0.00000000000E+00  0.15761322729E+04  0.15761322729E+04  0.00000000000E+00 0.  1.
         -4   -1    0    0    0  501 -0.00000000000E+00 -0.00000000000E+00 -0.14298142118E+04  0.14298142118E+04  0.00000000000E+00 0. -1.
         23    2    1    2    0    0  0.24041241328E+03 -0.34676072066E+03  0.15144668260E+04  0.15742090197E+04  0.80517978592E+02 0.  0.
         13    1    3    3    0    0  0.22649731159E+03 -0.28779598330E+03  0.12301767373E+04  0.12835351048E+04  0.00000000000E+00 0.  1.
        -13    1    3    3    0    0  0.13915101690E+02 -0.58964737362E+02  0.28429008871E+03  0.29067391497E+03  0.00000000000E+00 0. -1.
         22    1    1    2    0    0 -0.24041241328E+03  0.34676072066E+03 -0.13681487649E+04  0.14317374650E+04  0.00000000000E+00 0. -1.
<mgrwt>
<rscale>  0 0.30023833E+04</rscale>
<asrwt>0</asrwt>
<pdfrwt beam="1">  1        4 0.24248189E+00 0.30023833E+04</pdfrwt>
<pdfrwt beam="2">  1       -4 0.21997142E+00 0.30023833E+04</pdfrwt>
<totfact> 0.11659734E-02</totfact>
</mgrwt>
</event>
<event>
 6    1  0.5196787E-004  0.2323816E+04  0.7818608E-02  0.8468590E-01
          2   -1    0    0  501    0  0.00000000000E+00  0.00000000000E+00  0.27347070444E+04  0.27347070444E+04  0.00000000000E+00 0.  1.
         -2   -1    0    0    0  501 -0.00000000000E+00 -0.00000000000E+00 -0.49366540040E+03  0.49366540040E+03  0.00000000000E+00 0. -1.
         23    2    1    2    0    0 -0.74321496889E+03  0.55648785815E+03  0.20885624194E+04  0.22874701437E+04  0.91539348628E+02 0.  0.
         13    1    3    3    0    0 -0.40939686581E+03  0.36196106461E+03  0.12037783098E+04  0.13220074981E+04  0.00000000000E+00 0. -1.
        -13    1    3    3    0    0 -0.33381810308E+03  0.19452679354E+03  0.88478410963E+03  0.96546264558E+03  0.00000000000E+00 0.  1.
         22    1    1    2    0    0  0.74321496889E+03 -0.55648785815E+03  0.15247922458E+03  0.94090230108E+03  0.00000000000E+00 0. -1.
<mgrwt>
<rscale>  0 0.23238160E+04</rscale>
<asrwt>0</asrwt>
<pdfrwt beam="1">  1        2 0.42072415E+00 0.23238160E+04</pdfrwt>
<pdfrwt beam="2">  1       -2 0.75948525E-01 0.23238160E+04</pdfrwt>
<totfact> 0.35578688E+00</totfact>
</mgrwt>
</event>
<event>
 6    1  0.5196787E-004  0.2233705E+04  0.7818608E-02  0.8504529E-01
         -2   -1    0    0    0  501 -0.00000000000E+00  0.00000000000E+00  0.10391093386E+04  0.10391093386E+04  0.00000000000E+00 0. -1.
          2   -1    0    0  501    0  0.00000000000E+00 -0.00000000000E+00 -0.12004123403E+04  0.12004123403E+04  0.00000000000E+00 0.  1.
         23    2    1    2    0    0  0.45125317623E+03  0.65214489028E+03 -0.86648875966E+03  0.11782915718E+04  0.92983174215E+02 0.  0.
         11    1    3    3    0    0  0.30054716373E+02  0.67309059962E+02 -0.11865669896E+03  0.13968968372E+03  0.00000000000E+00 0. -1.
        -11    1    3    3    0    0  0.42119845985E+03  0.58483583031E+03 -0.74783206070E+03  0.10386018881E+04  0.00000000000E+00 0.  1.
         22    1    1    2    0    0 -0.45125317623E+03 -0.65214489028E+03  0.70518575794E+03  0.10612301071E+04  0.00000000000E+00 0. -1.
<mgrwt>
<rscale>  0 0.22337051E+04</rscale>
<asrwt>0</asrwt>
<pdfrwt beam="1">  1        2 0.18467882E+00 0.22337051E+04</pdfrwt>
<pdfrwt beam="2">  1       -2 0.15986297E+00 0.22337051E+04</pdfrwt>
<totfact> 0.43568456E+00</totfact>
</mgrwt>
</event>
<event>
 6    1  0.5196787E-004  0.1000299E+04  0.7818608E-02  0.9308217E-01
         -2   -1    0    0    0  501 -0.00000000000E+00  0.00000000000E+00  0.21503196134E+03  0.21503196134E+03  0.00000000000E+00 0. -1.
          2   -1    0    0  501    0  0.00000000000E+00 -0.00000000000E+00 -0.11633138244E+04  0.11633138244E+04  0.00000000000E+00 0.  1.
         23    2    1    2    0    0  0.58069237824E+02 -0.33367184621E+03  0.21906684539E+02  0.35073946266E+03  0.88483504149E+02 0.  0.
         11    1    3    3    0    0  0.79240538162E+02 -0.22156907817E+03  0.46580524621E+01  0.23535848560E+03  0.00000000000E+00 0. -1.
        -11    1    3    3    0    0 -0.21171300338E+02 -0.11210276804E+03  0.17248632077E+02  0.11538097706E+03  0.00000000000E+00 0.  1.
         22    1    1    2    0    0 -0.58069237824E+02  0.33367184621E+03 -0.97018854762E+03  0.10276063231E+04  0.00000000000E+00 0.  1.
<mgrwt>
<rscale>  0 0.10002993E+04</rscale>
<asrwt>0</asrwt>
<pdfrwt beam="1">  1        2 0.17897136E+00 0.10002993E+04</pdfrwt>
<pdfrwt beam="2">  1       -2 0.33081840E-01 0.10002993E+04</pdfrwt>
<totfact> 0.16947901E+02</totfact>
</mgrwt>
</event>
<event>
 6    1  0.5196787E-004  0.3357338E+04  0.7818608E-02  0.8148457E-01
          2   -1    0    0  501    0  0.00000000000E+00  0.00000000000E+00  0.32430050948E+04  0.32430050948E+04  0.00000000000E+00 0.  1.
         -2   -1    0    0    0  501 -0.00000000000E+00 -0.00000000000E+00 -0.86892551411E+03  0.86892551411E+03  0.00000000000E+00 0. -1.
         23    2    1    2    0    0  0.96866581781E+03  0.12396059174E+04  0.47500110577E+03  0.16458739691E+04  0.91316890725E+02 0.  0.
         13    1    3    3    0    0  0.32356358436E+03  0.38887082926E+03  0.11145325461E+03  0.51801133476E+03  0.00000000000E+00 0. -1.
        -13    1    3    3    0    0  0.64510223345E+03  0.85073508813E+03  0.36354785117E+03  0.11278626343E+04  0.00000000000E+00 0.  1.
         22    1    1    2    0    0 -0.96866581781E+03 -0.12396059174E+04  0.18990784749E+04  0.24660566399E+04  0.00000000000E+00 0.  1.
<mgrwt>
<rscale>  0 0.33573382E+04</rscale>
<asrwt>0</asrwt>
<pdfrwt beam="1">  1        2 0.49892386E+00 0.33573382E+04</pdfrwt>
<pdfrwt beam="2">  1       -2 0.13368085E+00 0.33573382E+04</pdfrwt>
<totfact> 0.40822264E-01</totfact>
</mgrwt>
</event>
<event>
 6    1  0.5196787E-004  0.1832140E+04  0.7818608E-02  0.8689392E-01
          2   -1    0    0  501    0  0.00000000000E+00  0.00000000000E+00  0.19446236091E+04  0.19446236091E+04  0.00000000000E+00 0.  1.
         -2   -1    0    0    0  501 -0.00000000000E+00 -0.00000000000E+00 -0.43154053301E+03  0.43154053301E+03  0.00000000000E+00 0. -1.
         23    2    1    2    0    0  0.17276388255E+03 -0.16683810821E+03  0.19018207318E+04  0.19192185453E+04  0.93783874724E+02 0.  0.
         11    1    3    3    0    0  0.14253219343E+03 -0.93630233264E+02  0.15002526467E+04  0.15099139217E+04  0.00000000000E+00 0. -1.
        -11    1    3    3    0    0  0.30231689115E+02 -0.73207874944E+02  0.40156808504E+03  0.40930462361E+03  0.00000000000E+00 0.  1.
         22    1    1    2    0    0 -0.17276388255E+03  0.16683810821E+03 -0.38873765573E+03  0.45694559681E+03  0.00000000000E+00 0. -1.
<mgrwt>
<rscale>  0 0.18321396E+04</rscale>
<asrwt>0</asrwt>
<pdfrwt beam="1">  1        2 0.29917286E+00 0.18321396E+04</pdfrwt>
<pdfrwt beam="2">  1       -2 0.66390852E-01 0.18321396E+04</pdfrwt>
<totfact> 0.14085035E+01</totfact>
</mgrwt>
</event>
<event>
 6    1  0.5196787E-004  0.4494794E+04  0.7818608E-02  0.7911549E-01
          2   -1    0    0  501    0  0.00000000000E+00  0.00000000000E+00  0.33613579092E+04  0.33613579092E+04  0.00000000000E+00 0.  1.
         -2   -1    0    0    0  501 -0.00000000000E+00 -0.00000000000E+00 -0.15026050150E+04  0.15026050150E+04  0.00000000000E+00 0. -1.
         23    2    1    2    0    0  0.13219928594E+04 -0.12415551270E+03  0.28907919847E+04  0.31822422590E+04  0.83113084147E+02 0.  0.
         11    1    3    3    0    0  0.79681357041E+03 -0.77998686995E+02  0.16448832868E+04  0.18293815043E+04  0.00000000000E+00 0. -1.
        -11    1    3    3    0    0  0.52517928895E+03 -0.46156825703E+02  0.12459086979E+04  0.13528607547E+04  0.00000000000E+00 0.  1.
         22    1    1    2    0    0 -0.13219928594E+04  0.12415551270E+03 -0.10320390905E+04  0.16817206652E+04  0.00000000000E+00 0. -1.
<mgrwt>
<rscale>  0 0.44947940E+04</rscale>
<asrwt>0</asrwt>
<pdfrwt beam="1">  1        2 0.51713198E+00 0.44947940E+04</pdfrwt>
<pdfrwt beam="2">  1       -2 0.23117000E+00 0.44947940E+04</pdfrwt>
<totfact> 0.64456075E-02</totfact>
</mgrwt>
</event>
<event>
 6    1  0.5196787E-004  0.1381013E+04  0.7818608E-02  0.8967678E-01
          2   -1    0    0  501    0  0.00000000000E+00  0.00000000000E+00  0.17091835911E+04  0.17091835911E+04  0.00000000000E+00 0.  1.
         -2   -1    0    0    0  501 -0.00000000000E+00 -0.00000000000E+00 -0.27896304205E+03  0.27896304205E+03  0.00000000000E+00 0. -1.
         23    2    1    2    0    0  0.19954153595E+03 -0.46866049329E+03  0.13829206528E+04  0.14765835748E+04  0.91487916566E+02 0.  0.
         11    1    3    3    0    0  0.66506980803E+02 -0.67567471769E+02  0.24060794383E+03  0.25861307850E+03  0.00000000000E+00 0. -1.
        -11    1    3    3    0    0  0.13303455515E+03 -0.40109302153E+03  0.11423127089E+04  0.12179704963E+04  0.00000000000E+00 0.  1.
         22    1    1    2    0    0 -0.19954153595E+03  0.46866049329E+03  0.47299896309E+02  0.51156305842E+03  0.00000000000E+00 0. -1.
<mgrwt>
<rscale>  0 0.13810128E+04</rscale>
<asrwt>0</asrwt>
<pdfrwt beam="1">  1        2 0.26295132E+00 0.13810128E+04</pdfrwt>
<pdfrwt beam="2">  1       -2 0.42917392E-01 0.13810128E+04</pdfrwt>
<totfact> 0.48617204E+01</totfact>
</mgrwt>
</event>
<event>
 6    1  0.5196787E-004  0.2769042E+04  0.7818608E-02  0.8312944E-01
         -2   -1    0    0    0  501 -0.00000000000E+00  0.00000000000E+00  0.11502263697E+04  0.11502263697E+04  0.00000000000E+00 0. -1.
          2   -1    0    0  501    0  0.00000000000E+00 -0.00000000000E+00 -0.16665405806E+04  0.16665405806E+04  0.00000000000E+00 0.  1.
         23    2    1    2    0    0 -0.31850422377E+03 -0.47688944172E+03  0.10217315823E+04  0.11752879398E+04  0.92183703320E+02 0.  0.
         13    1    3    3    0    0 -0.90461816943E+02 -0.21330946467E+03  0.43430429563E+03  0.49224433897E+03  0.00000000000E+00 0. -1.
        -13    1    3    3    0    0 -0.22804240683E+03 -0.26357997704E+03  0.58742728664E+03  0.68304360088E+03  0.00000000000E+00 0.  1.
         22    1    1    2    0    0  0.31850422377E+03  0.47688944172E+03 -0.15380457931E+04  0.16414790105E+04  0.00000000000E+00 0.  1.
<mgrwt>
<rscale>  0 0.27690424E+04</rscale>
<asrwt>0</asrwt>
<pdfrwt beam="1">  1        2 0.25639086E+00 0.27690424E+04</pdfrwt>
<pdfrwt beam="2">  1       -2 0.17695790E+00 0.27690424E+04</pdfrwt>
<totfact> 0.17003560E+00</totfact>
</mgrwt>
</event>
<event>
 6    1  0.5196787E-004  0.2410341E+04  0.7818608E-02  0.8435642E-01
          2   -1    0    0  501    0  0.00000000000E+00  0.00000000000E+00  0.10678347803E+04  0.10678347803E+04  0.00000000000E+00 0.  1.
         -2   -1    0    0    0  501 -0.00000000000E+00 -0.00000000000E+00 -0.13601689411E+04  0.13601689411E+04  0.00000000000E+00 0. -1.
         23    2    1    2    0    0  0.70969060207E+03  0.40755525329E+03  0.74245079105E+03  0.11087077228E+04  0.90761238149E+02 0.  0.
         11    1    3    3    0    0  0.40726596299E+03  0.28092441770E+03  0.42269858508E+03  0.65073664942E+03  0.00000000000E+00 0. -1.
        -11    1    3    3    0    0  0.30242463908E+03  0.12663083559E+03  0.31975220597E+03  0.45797107340E+03  0.00000000000E+00 0.  1.
         22    1    1    2    0    0 -0.70969060207E+03 -0.40755525329E+03 -0.10347849519E+04  0.13192959985E+04  0.00000000000E+00 0. -1.
<mgrwt>
<rscale>  0 0.24103408E+04</rscale>
<asrwt>0</asrwt>
<pdfrwt beam="1">  1        2 0.16428227E+00 0.24103408E+04</pdfrwt>
<pdfrwt beam="2">  1       -2 0.20925676E+00 0.24103408E+04</pdfrwt>
<totfact> 0.23726983E+00</totfact>
</mgrwt>
</event>
<event>
 6    1  0.5196787E-004  0.4865626E+04  0.7818608E-02  0.7849577E-01
         -2   -1    0    0    0  501 -0.00000000000E+00  0.00000000000E+00  0.17395437559E+04  0.17395437559E+04  0.00000000000E+00 0. -1.
          2   -1    0    0  501    0  0.00000000000E+00 -0.00000000000E+00 -0.34023743177E+04  0.34023743177E+04  0.00000000000E+00 0.  1.
         23    2    1    2    0    0  0.52517481817E+03 -0.93308914404E+03 -0.31392714750E+04  0.33180919551E+04  0.90801368403E+02 0.  0.
         13    1    3    3    0    0  0.39510384169E+03 -0.67714102464E+03 -0.21746158832E+04  0.23116187515E+04  0.00000000000E+00 0. -1.
        -13    1    3    3    0    0  0.13007097648E+03 -0.25594811939E+03 -0.96465559174E+03  0.10064732035E+04  0.00000000000E+00 0.  1.
         22    1    1    2    0    0 -0.52517481817E+03  0.93308914404E+03  0.14764409132E+04  0.18238261185E+04  0.00000000000E+00 0. -1.
<mgrwt>
<rscale>  0 0.48656260E+04</rscale>
<asrwt>0</asrwt>
<pdfrwt beam="1">  1        2 0.52344220E+00 0.48656260E+04</pdfrwt>
<pdfrwt beam="2">  1       -2 0.26762212E+00 0.48656260E+04</pdfrwt>
<totfact> 0.34970885E-02</totfact>
</mgrwt>
</event>
<event>
 6    1  0.5196787E-004  0.1052845E+04  0.7818608E-02  0.9252412E-01
         -2   -1    0    0    0  501 -0.00000000000E+00  0.00000000000E+00  0.10860380722E+03  0.10860380722E+03  0.00000000000E+00 0. -1.
          2   -1    0    0  501    0  0.00000000000E+00 -0.00000000000E+00 -0.25516649939E+04  0.25516649939E+04  0.00000000000E+00 0.  1.
         23    2    1    2    0    0 -0.20153719396E+03 -0.25971003288E+03 -0.22569365684E+04  0.22825004657E+04  0.89326146854E+02 0.  0.
         11    1    3    3    0    0 -0.13191791270E+02 -0.77282476824E+02 -0.50402584170E+03  0.51008690797E+03  0.00000000000E+00 0. -1.
        -11    1    3    3    0    0 -0.18834540269E+03 -0.18242755605E+03 -0.17529107267E+04  0.17724135577E+04  0.00000000000E+00 0.  1.
         22    1    1    2    0    0  0.20153719396E+03  0.25971003288E+03 -0.18612461833E+03  0.37776833546E+03  0.00000000000E+00 0. -1.
<mgrwt>
<rscale>  0 0.10528448E+04</rscale>
<asrwt>0</asrwt>
<pdfrwt beam="1">  1        2 0.39256386E+00 0.10528448E+04</pdfrwt>
<pdfrwt beam="2">  1       -2 0.16708278E-01 0.10528448E+04</pdfrwt>
<totfact> 0.95543249E+01</totfact>
</mgrwt>
</event>
<event>
 6    1  0.6537021E-004  0.4702476E+04  0.7818608E-02  0.7876117E-01
          2   -1    0    0  501    0  0.00000000000E+00  0.00000000000E+00  0.25510569656E+04  0.25510569656E+04  0.00000000000E+00 0.  1.
         -2   -1    0    0    0  501 -0.00000000000E+00 -0.00000000000E+00 -0.21670705482E+04  0.21670705482E+04  0.00000000000E+00 0. -1.
         23    2    1    2    0    0  0.13244330946E+03  0.38439153395E+03  0.25147110728E+04  0.25489604758E+04  0.90164549094E+02 0.  0.
         11    1    3    3    0    0  0.83579036451E+02  0.33959200709E+03  0.21545559661E+04  0.21827550475E+04  0.00000000000E+00 0.  1.
        -11    1    3    3    0    0  0.48864273011E+02  0.44799526857E+02  0.36015510674E+03  0.36620542827E+03  0.00000000000E+00 0. -1.
         22    1    1    2    0    0 -0.13244330946E+03 -0.38439153395E+03 -0.21307246554E+04  0.21691670380E+04  0.00000000000E+00 0. -1.
<mgrwt>
<rscale>  0 0.47024761E+04</rscale>
<asrwt>0</asrwt>
<pdfrwt beam="1">  1        2 0.39247030E+00 0.47024761E+04</pdfrwt>
<pdfrwt beam="2">  1       -2 0.33339547E+00 0.47024761E+04</pdfrwt>
<totfact> 0.47914760E-02</totfact>
</mgrwt>
</event>
<event>
 6    1  0.5196787E-004  0.2110886E+04  0.7818608E-02  0.8556463E-01
         -2   -1    0    0    0  501 -0.00000000000E+00  0.00000000000E+00  0.19237676943E+04  0.19237676943E+04  0.00000000000E+00 0. -1.
          2   -1    0    0  501    0  0.00000000000E+00 -0.00000000000E+00 -0.57905135200E+03  0.57905135200E+03  0.00000000000E+00 0.  1.
         23    2    1    2    0    0  0.59107471443E+03  0.48797295135E+03  0.15303823373E+04  0.17141754126E+04  0.94023016603E+02 0.  0.
         13    1    3    3    0    0  0.30239809777E+03  0.19142549620E+03  0.67980874357E+03  0.76826314370E+03  0.00000000000E+00 0.  1.
        -13    1    3    3    0    0  0.28867661666E+03  0.29654745515E+03  0.85057359372E+03  0.94591226892E+03  0.00000000000E+00 0. -1.
         22    1    1    2    0    0 -0.59107471443E+03 -0.48797295135E+03 -0.18566599496E+03  0.78864363370E+03  0.00000000000E+00 0.  1.
<mgrwt>
<rscale>  0 0.21108863E+04</rscale>
<asrwt>0</asrwt>
<pdfrwt beam="1">  1        2 0.89084824E-01 0.21108863E+04</pdfrwt>
<pdfrwt beam="2">  1       -2 0.29596426E+00 0.21108863E+04</pdfrwt>
<totfact> 0.16047005E+00</totfact>
</mgrwt>
</event>
<event>
 6    1  0.5196787E-004  0.1495832E+04  0.7818608E-02  0.8887229E-01
          2   -1    0    0  501    0  0.00000000000E+00  0.00000000000E+00  0.87152361372E+03  0.87152361372E+03  0.00000000000E+00 0.  1.
         -2   -1    0    0    0  501 -0.00000000000E+00 -0.00000000000E+00 -0.64183939357E+03  0.64183939357E+03  0.00000000000E+00 0. -1.
         23    2    1    2    0    0  0.73725604657E+03 -0.78043717363E+02  0.39868482938E+02  0.74807396770E+03  0.91585289233E+02 0.  0.
         13    1    3    3    0    0  0.62709004368E+03 -0.67242692593E+02  0.66618029039E+02  0.63419355435E+03  0.00000000000E+00 0. -1.
        -13    1    3    3    0    0  0.11016600289E+03 -0.10801024770E+02 -0.26749546101E+02  0.11388041335E+03  0.00000000000E+00 0.  1.
         22    1    1    2    0    0 -0.73725604657E+03  0.78043717363E+02  0.18981573722E+03  0.76528903959E+03  0.00000000000E+00 0.  1.
<mgrwt>
<rscale>  0 0.14958318E+04</rscale>
<asrwt>0</asrwt>
<pdfrwt beam="1">  1        2 0.13408056E+00 0.14958318E+04</pdfrwt>
<pdfrwt beam="2">  1       -2 0.98744522E-01 0.14958318E+04</pdfrwt>
<totfact> 0.25229585E+01</totfact>
</mgrwt>
</event>
<event>
 6    1  0.5196787E-004  0.9324221E+03  0.7818608E-02  0.9385936E-01
         -2   -1    0    0    0  501 -0.00000000000E+00  0.00000000000E+00  0.26049747005E+03  0.26049747005E+03  0.00000000000E+00 0.  1.
          2   -1    0    0  501    0  0.00000000000E+00 -0.00000000000E+00 -0.83437556382E+03  0.83437556382E+03  0.00000000000E+00 0. -1.
         23    2    1    2    0    0 -0.11607908351E+03 -0.42211841922E+03 -0.11734405468E+03  0.46235296122E+03  0.91336302225E+02 0.  0.
         11    1    3    3    0    0 -0.96921205691E+02 -0.27432122433E+03 -0.11627870540E+03  0.31331548248E+03  0.00000000000E+00 0. -1.
        -11    1    3    3    0    0 -0.19157877822E+02 -0.14779719489E+03 -0.10653492769E+01  0.14903747874E+03  0.00000000000E+00 0.  1.
         22    1    1    2    0    0  0.11607908351E+03  0.42211841922E+03 -0.45653403909E+03  0.63252007266E+03  0.00000000000E+00 0.  1.
<mgrwt>
<rscale>  0 0.93242206E+03</rscale>
<asrwt>0</asrwt>
<pdfrwt beam="1">  1        2 0.12836547E+00 0.93242206E+03</pdfrwt>
<pdfrwt beam="2">  1       -2 0.40076534E-01 0.93242206E+03</pdfrwt>
<totfact> 0.19195675E+02</totfact>
</mgrwt>
</event>
<event>
 6    1  0.5196787E-004  0.3258757E+04  0.7818608E-02  0.8173470E-01
          2   -1    0    0  501    0  0.00000000000E+00  0.00000000000E+00  0.26848788606E+04  0.26848788606E+04  0.00000000000E+00 0.  1.
         -2   -1    0    0    0  501 -0.00000000000E+00 -0.00000000000E+00 -0.98882479815E+03  0.98882479815E+03  0.00000000000E+00 0. -1.
         23    2    1    2    0    0 -0.15352643021E+04 -0.54062550777E+03  0.80571036337E+03  0.18184343200E+04  0.90673974576E+02 0.  0.
         13    1    3    3    0    0 -0.76809465972E+03 -0.22916985243E+03  0.42217502580E+03  0.90593596902E+03  0.00000000000E+00 0. -1.
        -13    1    3    3    0    0 -0.76716964233E+03 -0.31145565533E+03  0.38353533757E+03  0.91249835097E+03  0.00000000000E+00 0.  1.
         22    1    1    2    0    0  0.15352643021E+04  0.54062550777E+03  0.89034369903E+03  0.18552693387E+04  0.00000000000E+00 0.  1.
<mgrwt>
<rscale>  0 0.32587573E+04</rscale>
<asrwt>0</asrwt>
<pdfrwt beam="1">  1        2 0.41305828E+00 0.32587573E+04</pdfrwt>
<pdfrwt beam="2">  1       -2 0.15212689E+00 0.32587573E+04</pdfrwt>
<totfact> 0.65547302E-01</totfact>
</mgrwt>
</event>
<event>
 6    1  0.5196787E-004  0.7061696E+03  0.7818608E-02  0.9706739E-01
          2   -1    0    0  501    0  0.00000000000E+00  0.00000000000E+00  0.87284612061E+03  0.87284612061E+03  0.00000000000E+00 0.  1.
         -2   -1    0    0    0  501 -0.00000000000E+00 -0.00000000000E+00 -0.14283029175E+03  0.14283029175E+03  0.00000000000E+00 0. -1.
         23    2    1    2    0    0 -0.20823433078E+03  0.25383740829E+03  0.53327402440E+03  0.63292021844E+03  0.91716145997E+02 0.  0.
         11    1    3    3    0    0 -0.15703430354E+02  0.34280954308E+02  0.20736964781E+02  0.43032583719E+02  0.00000000000E+00 0. -1.
        -11    1    3    3    0    0 -0.19253090043E+03  0.21955645398E+03  0.51253705962E+03  0.58988763472E+03  0.00000000000E+00 0.  1.
         22    1    1    2    0    0  0.20823433078E+03 -0.25383740829E+03  0.19674180446E+03  0.38275619392E+03  0.00000000000E+00 0. -1.
<mgrwt>
<rscale>  0 0.70616957E+03</rscale>
<asrwt>0</asrwt>
<pdfrwt beam="1">  1        2 0.13428401E+00 0.70616957E+03</pdfrwt>
<pdfrwt beam="2">  1       -2 0.21973892E-01 0.70616957E+03</pdfrwt>
<totfact> 0.55631173E+02</totfact>
</mgrwt>
</event>
<event>
 6    1  0.5196787E-004  0.5950562E+04  0.7818608E-02  0.7696562E-01
         -1   -1    0    0    0  501 -0.00000000000E+00  0.00000000000E+00  0.28311489484E+04  0.28311489484E+04  0.00000000000E+00 0. -1.
          1   -1    0    0  501    0  0.00000000000E+00 -0.00000000000E+00 -0.31267510072E+04  0.31267510072E+04  0.00000000000E+00 0.  1.
         23    2    1    2    0    0 -0.29441422204E+03  0.17907328238E+04 -0.25075673181E+04  0.30967473751E+04  0.92448200190E+02 0.  0.
         11    1    3    3    0    0 -0.19738904842E+03  0.12423102479E+04 -0.18085755090E+04  0.22030076169E+04  0.00000000000E+00 0. -1.
        -11    1    3    3    0    0 -0.97025173626E+02  0.54842257589E+03 -0.69899180916E+03  0.89373975817E+03  0.00000000000E+00 0.  1.
         22    1    1    2    0    0  0.29441422204E+03 -0.17907328238E+04  0.22119652593E+04  0.28611525805E+04  0.00000000000E+00 0. -1.
<mgrwt>
<rscale>  0 0.59505623E+04</rscale>
<asrwt>0</asrwt>
<pdfrwt beam="1">  1        1 0.48103861E+00 0.59505623E+04</pdfrwt>
<pdfrwt beam="2">  1       -1 0.43556138E+00 0.59505623E+04</pdfrwt>
<totfact> 0.13194181E-03</totfact>
</mgrwt>
</event>
<event>
 6    1  0.5196787E-004  0.9147695E+03  0.7818608E-02  0.9407305E-01
          2   -1    0    0  501    0  0.00000000000E+00  0.00000000000E+00  0.57246517497E+03  0.57246517497E+03  0.00000000000E+00 0. -1.
         -2   -1    0    0    0  501 -0.00000000000E+00 -0.00000000000E+00 -0.36543852632E+03  0.36543852632E+03  0.00000000000E+00 0.  1.
         23    2    1    2    0    0  0.64987706146E+02 -0.44774181826E+03  0.12534421608E+03  0.47815577300E+03  0.90695275405E+02 0.  0.
         11    1    3    3    0    0  0.10085155630E+00 -0.28690447216E+03  0.94017895912E+02  0.30191646373E+03  0.00000000000E+00 0.  1.
        -11    1    3    3    0    0  0.64886854590E+02 -0.16083734610E+03  0.31326320171E+02  0.17623930928E+03  0.00000000000E+00 0. -1.
         22    1    1    2    0    0 -0.64987706146E+02  0.44774181826E+03  0.81682432562E+02  0.45974792828E+03  0.00000000000E+00 0. -1.
<mgrwt>
<rscale>  0 0.91476954E+03</rscale>
<asrwt>0</asrwt>
<pdfrwt beam="1">  1        2 0.88071565E-01 0.91476954E+03</pdfrwt>
<pdfrwt beam="2">  1       -2 0.56221312E-01 0.91476954E+03</pdfrwt>
<totfact> 0.15634288E+02</totfact>
</mgrwt>
</event>
<event>
 6    1  0.9055094E-004  0.2628422E+04  0.7818608E-02  0.8358610E-01
          2   -1    0    0  501    0  0.00000000000E+00  0.00000000000E+00  0.16244955836E+04  0.16244955836E+04  0.00000000000E+00 0.  1.
         -2   -1    0    0    0  501 -0.00000000000E+00 -0.00000000000E+00 -0.10631922557E+04  0.10631922557E+04  0.00000000000E+00 0. -1.
         23    2    1    2    0    0 -0.87234819847E+03 -0.92561851631E+03  0.61242245925E+03  0.14147486487E+04  0.93227964807E+02 0.  0.
         13    1    3    3    0    0 -0.47513403948E+03 -0.44991161556E+03  0.28338241938E+03  0.71307672302E+03  0.00000000000E+00 0.  1.
        -13    1    3    3    0    0 -0.39721415898E+03 -0.47570690075E+03  0.32904003987E+03  0.70167192573E+03  0.00000000000E+00 0. -1.
         22    1    1    2    0    0  0.87234819847E+03  0.92561851631E+03 -0.51119131365E+02  0.12729391905E+04  0.00000000000E+00 0. -1.
<mgrwt>
<rscale>  0 0.26284224E+04</rscale>
<asrwt>0</asrwt>
<pdfrwt beam="1">  1        2 0.24992240E+00 0.26284224E+04</pdfrwt>
<pdfrwt beam="2">  1       -2 0.16356804E+00 0.26284224E+04</pdfrwt>
<totfact> 0.22616641E+00</totfact>
</mgrwt>
</event>
<event>
 6    1  0.5196787E-004  0.1380971E+04  0.7818608E-02  0.8967709E-01
          2   -1    0    0  501    0  0.00000000000E+00  0.00000000000E+00  0.55441709318E+03  0.55441709318E+03  0.00000000000E+00 0.  1.
         -2   -1    0    0    0  501 -0.00000000000E+00 -0.00000000000E+00 -0.85994877554E+03  0.85994877554E+03  0.00000000000E+00 0. -1.
         23    2    1    2    0    0  0.31229001901E+03 -0.58474649281E+03  0.33950681954E+02  0.66958281808E+03  0.87948761440E+02 0.  0.
         11    1    3    3    0    0  0.17277573239E+03 -0.41082979131E+03  0.27486456156E+02  0.44652892000E+03  0.00000000000E+00 0. -1.
        -11    1    3    3    0    0  0.13951428662E+03 -0.17391670151E+03  0.64642257978E+01  0.22305389808E+03  0.00000000000E+00 0.  1.
         22    1    1    2    0    0 -0.31229001901E+03  0.58474649281E+03 -0.33948236431E+03  0.74478305063E+03  0.00000000000E+00 0.  1.
<mgrwt>
<rscale>  0 0.13809711E+04</rscale>
<asrwt>0</asrwt>
<pdfrwt beam="1">  1        2 0.85294938E-01 0.13809711E+04</pdfrwt>
<pdfrwt beam="2">  1       -2 0.13229981E+00 0.13809711E+04</pdfrwt>
<totfact> 0.22065354E+01</totfact>
</mgrwt>
</event>
<event>
 6    1  0.5196787E-004  0.2794714E+04  0.7818608E-02  0.8304911E-01
         -2   -1    0    0    0  501 -0.00000000000E+00  0.00000000000E+00  0.10859609753E+04  0.10859609753E+04  0.00000000000E+00 0. -1.
          2   -1    0    0  501    0  0.00000000000E+00 -0.00000000000E+00 -0.17980445508E+04  0.17980445508E+04  0.00000000000E+00 0.  1.
         23    2    1    2    0    0 -0.12164123788E+03  0.59401804964E+03  0.94096264430E+03  0.11232625469E+04  0.93026970733E+02 0.  0.
         11    1    3    3    0    0  0.10824016929E+02  0.13405928255E+03  0.22095970168E+03  0.25867400401E+03  0.00000000000E+00 0.  1.
        -11    1    3    3    0    0 -0.13246525481E+03  0.45995876709E+03  0.72000294262E+03  0.86458854292E+03  0.00000000000E+00 0. -1.
         22    1    1    2    0    0  0.12164123788E+03 -0.59401804964E+03 -0.16530462198E+04  0.17607429792E+04  0.00000000000E+00 0.  1.
<mgrwt>
<rscale>  0 0.27947137E+04</rscale>
<asrwt>0</asrwt>
<pdfrwt beam="1">  1        2 0.27662224E+00 0.27947137E+04</pdfrwt>
<pdfrwt beam="2">  1       -2 0.16707092E+00 0.27947137E+04</pdfrwt>
<totfact> 0.16846262E+00</totfact>
</mgrwt>
</event>
<event>
 6    1  0.5196787E-004  0.3822292E+04  0.7818608E-02  0.8041388E-01
         -2   -1    0    0    0  501 -0.00000000000E+00  0.00000000000E+00  0.11105801476E+04  0.11105801476E+04  0.00000000000E+00 0. -1.
          2   -1    0    0  501    0  0.00000000000E+00 -0.00000000000E+00 -0.32888022585E+04  0.32888022585E+04  0.00000000000E+00 0.  1.
         23    2    1    2    0    0  0.13957934529E+04  0.11706851678E+04 -0.17503205614E+04  0.25280612521E+04  0.93426450350E+02 0.  0.
         13    1    3    3    0    0  0.21731826864E+03  0.22187670633E+03 -0.32293882469E+03  0.44804685826E+03  0.00000000000E+00 0. -1.
        -13    1    3    3    0    0  0.11784751842E+04  0.94880846148E+03 -0.14273817367E+04  0.20800143938E+04  0.00000000000E+00 0.  1.
         22    1    1    2    0    0 -0.13957934529E+04 -0.11706851678E+04 -0.42790154961E+03  0.18713211540E+04  0.00000000000E+00 0. -1.
<mgrwt>
<rscale>  0 0.38222917E+04</rscale>
<asrwt>0</asrwt>
<pdfrwt beam="1">  1        2 0.50596958E+00 0.38222917E+04</pdfrwt>
<pdfrwt beam="2">  1       -2 0.17085848E+00 0.38222917E+04</pdfrwt>
<totfact> 0.19036426E-01</totfact>
</mgrwt>
</event>
<event>
 6    1  0.5196787E-004  0.1964451E+04  0.7818608E-02  0.8623423E-01
         -2   -1    0    0    0  501 -0.00000000000E+00  0.00000000000E+00  0.48996968169E+03  0.48996968169E+03  0.00000000000E+00 0. -1.
          2   -1    0    0  501    0  0.00000000000E+00 -0.00000000000E+00 -0.19690347920E+04  0.19690347920E+04  0.00000000000E+00 0.  1.
         23    2    1    2    0    0 -0.53451231682E+03  0.63464705084E+03 -0.13950939466E+04  0.16250191907E+04  0.76941239820E+02 0.  0.
         13    1    3    3    0    0 -0.44801402680E+03  0.48501327257E+03 -0.10909408199E+04  0.12751887372E+04  0.00000000000E+00 0.  1.
        -13    1    3    3    0    0 -0.86498290014E+02  0.14963377827E+03 -0.30415312661E+03  0.34983045351E+03  0.00000000000E+00 0. -1.
         22    1    1    2    0    0  0.53451231682E+03 -0.63464705084E+03 -0.83971163785E+02  0.83398528304E+03  0.00000000000E+00 0. -1.
<mgrwt>
<rscale>  0 0.19644514E+04</rscale>
<asrwt>0</asrwt>
<pdfrwt beam="1">  1        2 0.30292844E+00 0.19644514E+04</pdfrwt>
<pdfrwt beam="2">  1       -2 0.75379950E-01 0.19644514E+04</pdfrwt>
<totfact> 0.10226213E+01</totfact>
</mgrwt>
</event>
<event>
 6    1  0.5196787E-004  0.2342460E+04  0.7818608E-02  0.8461365E-01
          2   -1    0    0  501    0  0.00000000000E+00  0.00000000000E+00  0.33581975739E+04  0.33581975739E+04  0.00000000000E+00 0.  1.
         -2   -1    0    0    0  501 -0.00000000000E+00 -0.00000000000E+00 -0.40848694359E+03  0.40848694359E+03  0.00000000000E+00 0. -1.
         23    2    1    2    0    0 -0.10328633244E+04 -0.35503143823E+03  0.21494478284E+04  0.24126998347E+04  0.90225032136E+02 0.  0.
         13    1    3    3    0    0 -0.34525951295E+03 -0.81911652026E+02  0.64481811424E+03  0.73600546905E+03  0.00000000000E+00 0. -1.
        -13    1    3    3    0    0 -0.68760381147E+03 -0.27311978620E+03  0.15046297142E+04  0.16766943657E+04  0.00000000000E+00 0.  1.
         22    1    1    2    0    0  0.10328633244E+04  0.35503143823E+03  0.80026280194E+03  0.13539846828E+04  0.00000000000E+00 0.  1.
<mgrwt>
<rscale>  0 0.23424601E+04</rscale>
<asrwt>0</asrwt>
<pdfrwt beam="1">  1        2 0.51664576E+00 0.23424601E+04</pdfrwt>
<pdfrwt beam="2">  1       -2 0.62844147E-01 0.23424601E+04</pdfrwt>
<totfact> 0.21622079E+00</totfact>
</mgrwt>
</event>
<event>
 6    1  0.5196787E-004  0.3721663E+04  0.7818608E-02  0.8063178E-01
          2   -1    0    0  501    0  0.00000000000E+00  0.00000000000E+00  0.24038086759E+04  0.24038086759E+04  0.00000000000E+00 0.  1.
         -2   -1    0    0    0  501 -0.00000000000E+00 -0.00000000000E+00 -0.14405032042E+04  0.14405032042E+04  0.00000000000E+00 0. -1.
         23    2    1    2    0    0  0.53649308317E+03 -0.10338590115E+04 -0.10155951022E+04  0.15480678239E+04  0.91603995021E+02 0.  0.
         13    1    3    3    0    0  0.40555137928E+03 -0.73812646652E+03 -0.68526122999E+03  0.10857649631E+04  0.00000000000E+00 0. -1.
        -13    1    3    3    0    0  0.13094170390E+03 -0.29573254501E+03 -0.33033387221E+03  0.46230286082E+03  0.00000000000E+00 0.  1.
         22    1    1    2    0    0 -0.53649308317E+03  0.10338590115E+04  0.19789005739E+04  0.22962440561E+04  0.00000000000E+00 0.  1.
<mgrwt>
<rscale>  0 0.37216631E+04</rscale>
<asrwt>0</asrwt>
<pdfrwt beam="1">  1        2 0.36981672E+00 0.37216631E+04</pdfrwt>
<pdfrwt beam="2">  1       -2 0.22161588E+00 0.37216631E+04</pdfrwt>
<totfact> 0.30813626E-01</totfact>
</mgrwt>
</event>
<event>
 6    1  0.5196787E-004  0.3306495E+04  0.7818608E-02  0.8161245E-01
         -2   -1    0    0    0  501 -0.00000000000E+00  0.00000000000E+00  0.88265959566E+03  0.88265959566E+03  0.00000000000E+00 0. -1.
          2   -1    0    0  501    0  0.00000000000E+00 -0.00000000000E+00 -0.30965823300E+04  0.30965823300E+04  0.00000000000E+00 0.  1.
         23    2    1    2    0    0  0.16305361224E+04  0.12309161751E+03 -0.13907410759E+04  0.21485514452E+04  0.91175542646E+02 0.  0.
         11    1    3    3    0    0  0.24993881408E+03 -0.67114569135E+01 -0.18600882012E+03  0.31163076805E+03  0.00000000000E+00 0.  1.
        -11    1    3    3    0    0  0.13805973083E+04  0.12980307442E+03 -0.12047322558E+04  0.18369206771E+04  0.00000000000E+00 0. -1.
         22    1    1    2    0    0 -0.16305361224E+04 -0.12309161751E+03 -0.82318165840E+03  0.18306904805E+04  0.00000000000E+00 0.  1.
<mgrwt>
<rscale>  0 0.33064955E+04</rscale>
<asrwt>0</asrwt>
<pdfrwt beam="1">  1        2 0.47639728E+00 0.33064955E+04</pdfrwt>
<pdfrwt beam="2">  1       -2 0.13579378E+00 0.33064955E+04</pdfrwt>
<totfact> 0.49025070E-01</totfact>
</mgrwt>
</event>
<event>
 6    1  0.5196787E-004  0.1340609E+04  0.7818608E-02  0.8997967E-01
          2   -1    0    0  501    0  0.00000000000E+00  0.00000000000E+00  0.31206557565E+04  0.31206557565E+04  0.00000000000E+00 0.  1.
         -2   -1    0    0    0  501 -0.00000000000E+00 -0.00000000000E+00 -0.14397883485E+03  0.14397883485E+03  0.00000000000E+00 0. -1.
         23    2    1    2    0    0  0.66473880319E+03  0.55817427121E+02  0.13704298145E+04  0.15253752573E+04  0.60815603573E+02 0.  0.
         13    1    3    3    0    0  0.23685484153E+03  0.28999276199E+02  0.55457242937E+03  0.60373152427E+03  0.00000000000E+00 0. -1.
        -13    1    3    3    0    0  0.42788396167E+03  0.26818150922E+02  0.81585738510E+03  0.92164373306E+03  0.00000000000E+00 0.  1.
         22    1    1    2    0    0 -0.66473880319E+03 -0.55817427121E+02  0.16062471072E+04  0.17392593340E+04  0.00000000000E+00 0. -1.
<mgrwt>
<rscale>  0 0.13406094E+04</rscale>
<asrwt>0</asrwt>
<pdfrwt beam="1">  1        2 0.48010083E+00 0.13406094E+04</pdfrwt>
<pdfrwt beam="2">  1       -2 0.22150592E-01 0.13406094E+04</pdfrwt>
<totfact> 0.25763832E+01</totfact>
</mgrwt>
</event>
<event>
 6    1  0.5196787E-004  0.1113006E+04  0.7818608E-02  0.9192608E-01
         -2   -1    0    0    0  501 -0.00000000000E+00  0.00000000000E+00  0.13758947625E+03  0.13758947625E+03  0.00000000000E+00 0. -1.
          2   -1    0    0  501    0  0.00000000000E+00 -0.00000000000E+00 -0.22508653243E+04  0.22508653243E+04  0.00000000000E+00 0.  1.
         23    2    1    2    0    0 -0.74767376596E+02 -0.41364922523E+03 -0.18343792407E+04  0.18839955259E+04  0.88295531911E+02 0.  0.
         11    1    3    3    0    0 -0.29612272227E+02 -0.22032437459E+03 -0.77868131150E+03  0.80979275224E+03  0.00000000000E+00 0.  1.
        -11    1    3    3    0    0 -0.45155104368E+02 -0.19332485064E+03 -0.10556979292E+04  0.10742027737E+04  0.00000000000E+00 0. -1.
         22    1    1    2    0    0  0.74767376596E+02  0.41364922523E+03 -0.27889660734E+03  0.50445927459E+03  0.00000000000E+00 0. -1.
<mgrwt>
<rscale>  0 0.11130056E+04</rscale>
<asrwt>0</asrwt>
<pdfrwt beam="1">  1        2 0.34628697E+00 0.11130056E+04</pdfrwt>
<pdfrwt beam="2">  1       -2 0.21167612E-01 0.11130056E+04</pdfrwt>
<totfact> 0.93177149E+01</totfact>
</mgrwt>
</event>
<event>
 6    1  0.5196787E-004  0.2307097E+04  0.7818608E-02  0.8475128E-01
          2   -1    0    0  501    0  0.00000000000E+00  0.00000000000E+00  0.20493488011E+04  0.20493488011E+04  0.00000000000E+00 0.  1.
         -2   -1    0    0    0  501 -0.00000000000E+00 -0.00000000000E+00 -0.64931545434E+03  0.64931545434E+03  0.00000000000E+00 0. -1.
         23    2    1    2    0    0 -0.72990030236E+03  0.88848134217E+03  0.77437616728E+03  0.13896186286E+04  0.96062156009E+02 0.  0.
         13    1    3    3    0    0 -0.68723833425E+03  0.83195794138E+03  0.75227175936E+03  0.13154327593E+04  0.00000000000E+00 0.  1.
        -13    1    3    3    0    0 -0.42661968115E+02  0.56523400791E+02  0.22104407917E+02  0.74185869340E+02  0.00000000000E+00 0. -1.
         22    1    1    2    0    0  0.72990030236E+03 -0.88848134217E+03  0.62565717944E+03  0.13090456268E+04  0.00000000000E+00 0.  1.
<mgrwt>
<rscale>  0 0.23070967E+04</rscale>
<asrwt>0</asrwt>
<pdfrwt beam="1">  1        2 0.31528443E+00 0.23070967E+04</pdfrwt>
<pdfrwt beam="2">  1       -2 0.99894686E-01 0.23070967E+04</pdfrwt>
<totfact> 0.47050974E+00</totfact>
</mgrwt>
</event>
<event>
 6    1  0.5196787E-004  0.9483807E+03  0.7818608E-02  0.9367045E-01
         -1   -1    0    0    0  501 -0.00000000000E+00  0.00000000000E+00  0.21905147229E+03  0.21905147229E+03  0.00000000000E+00 0. -1.
          1   -1    0    0  501    0  0.00000000000E+00 -0.00000000000E+00 -0.10265007940E+04  0.10265007940E+04  0.00000000000E+00 0.  1.
         23    2    1    2    0    0 -0.17551946549E+02 -0.18726594808E+03 -0.97299961248E+03  0.99498589806E+03  0.88837409404E+02 0.  0.
         11    1    3    3    0    0  0.12949500834E+02 -0.23112998019E+02 -0.31579827694E+03  0.31690763949E+03  0.00000000000E+00 0.  1.
        -11    1    3    3    0    0 -0.30501447383E+02 -0.16415295006E+03 -0.65720133555E+03  0.67807825857E+03  0.00000000000E+00 0. -1.
         22    1    1    2    0    0  0.17551946549E+02  0.18726594808E+03  0.16555029074E+03  0.25056636826E+03  0.00000000000E+00 0. -1.
<mgrwt>
<rscale>  0 0.94838075E+03</rscale>
<asrwt>0</asrwt>
<pdfrwt beam="1">  1        1 0.15792320E+00 0.94838075E+03</pdfrwt>
<pdfrwt beam="2">  1       -1 0.33700226E-01 0.94838075E+03</pdfrwt>
<totfact> 0.12030519E+02</totfact>
</mgrwt>
</event>
<event>
 6    1  0.5196787E-004  0.1639456E+04  0.7818608E-02  0.8796669E-01
          2   -1    0    0  501    0  0.00000000000E+00  0.00000000000E+00  0.85363639102E+03  0.85363639102E+03  0.00000000000E+00 0.  1.
         -2   -1    0    0    0  501 -0.00000000000E+00 -0.00000000000E+00 -0.78716626747E+03  0.78716626747E+03  0.00000000000E+00 0. -1.
         23    2    1    2    0    0 -0.37969611798E+03 -0.36004478862E+03  0.66151407892E+03  0.84841468493E+03  0.91679927861E+02 0.  0.
         11    1    3    3    0    0 -0.23734635411E+03 -0.20421165061E+03  0.32579140078E+03  0.45185808268E+03  0.00000000000E+00 0. -1.
        -11    1    3    3    0    0 -0.14234976386E+03 -0.15583313802E+03  0.33572267814E+03  0.39655660225E+03  0.00000000000E+00 0.  1.
         22    1    1    2    0    0  0.37969611798E+03  0.36004478862E+03 -0.59504395537E+03  0.79238797356E+03  0.00000000000E+00 0. -1.
<mgrwt>
<rscale>  0 0.16394557E+04</rscale>
<asrwt>0</asrwt>
<pdfrwt beam="1">  1        2 0.13132868E+00 0.16394557E+04</pdfrwt>
<pdfrwt beam="2">  1       -2 0.12110250E+00 0.16394557E+04</pdfrwt>
<totfact> 0.15657080E+01</totfact>
</mgrwt>
</event>
<event>
 6    1  0.5196787E-004  0.3969878E+03  0.7818608E-02  0.1044828E+00
         -1   -1    0    0    0  501 -0.00000000000E+00  0.00000000000E+00  0.26304871378E+02  0.26304871378E+02  0.00000000000E+00 0.  1.
          1   -1    0    0  501    0  0.00000000000E+00 -0.00000000000E+00 -0.14978147912E+04  0.14978147912E+04  0.00000000000E+00 0. -1.
         23    2    1    2    0    0  0.22878457295E+02  0.18347787867E+03 -0.90654693088E+03  0.92966971966E+03  0.90944455505E+02 0.  0.
         13    1    3    3    0    0  0.26110743511E+02  0.14548513319E+03 -0.84057162557E+03  0.85346842509E+03  0.00000000000E+00 0. -1.
        -13    1    3    3    0    0 -0.32322862161E+01  0.37992745480E+02 -0.65975305311E+02  0.76201294570E+02  0.00000000000E+00 0.  1.
         22    1    1    2    0    0 -0.22878457295E+02 -0.18347787867E+03 -0.56496298898E+03  0.59444994297E+03  0.00000000000E+00 0.  1.
<mgrwt>
<rscale>  0 0.39698779E+03</rscale>
<asrwt>0</asrwt>
<pdfrwt beam="1">  1        1 0.23043303E+00 0.39698779E+03</pdfrwt>
<pdfrwt beam="2">  1       -1 0.40469035E-02 0.39698779E+03</pdfrwt>
<totfact> 0.17299204E+03</totfact>
</mgrwt>
</event>
<event>
 6    1  0.5196787E-004  0.9469214E+03  0.7818608E-02  0.9368756E-01
          2   -1    0    0  501    0  0.00000000000E+00  0.00000000000E+00  0.13879408839E+04  0.13879408839E+04  0.00000000000E+00 0.  1.
         -2   -1    0    0    0  501 -0.00000000000E+00 -0.00000000000E+00 -0.16150905162E+03  0.16150905162E+03  0.00000000000E+00 0. -1.
         23    2    1    2    0    0  0.35776545709E+03  0.12363501869E+03  0.10722395457E+04  0.11407238642E+04  0.90948066217E+02 0.  0.
         11    1    3    3    0    0  0.28426605449E+03  0.59397315089E+02  0.84087187204E+03  0.88960706829E+03  0.00000000000E+00 0.  1.
        -11    1    3    3    0    0  0.73499402604E+02  0.64237703596E+02  0.23136767370E+03  0.25111679590E+03  0.00000000000E+00 0. -1.
         22    1    1    2    0    0 -0.35776545709E+03 -0.12363501869E+03  0.15419228649E+03  0.40872607128E+03  0.00000000000E+00 0. -1.
<mgrwt>
<rscale>  0 0.94692136E+03</rscale>
<asrwt>0</asrwt>
<pdfrwt beam="1">  1        2 0.21352936E+00 0.94692136E+03</pdfrwt>
<pdfrwt beam="2">  1       -2 0.24847547E-01 0.94692136E+03</pdfrwt>
<totfact> 0.21321714E+02</totfact>
</mgrwt>
</event>
<event>
 6    1  0.5196787E-004  0.1660955E+04  0.7818608E-02  0.8783952E-01
         -2   -1    0    0    0  501 -0.00000000000E+00  0.00000000000E+00  0.19350754587E+03  0.19350754587E+03  0.00000000000E+00 0. -1.
          2   -1    0    0  501    0  0.00000000000E+00 -0.00000000000E+00 -0.35641641916E+04  0.35641641916E+04  0.00000000000E+00 0.  1.
         23    2    1    2    0    0  0.33588234601E+03  0.86538777151E+02 -0.33912323959E+04  0.34102105572E+04  0.93664140782E+02 0.  0.
         11    1    3    3    0    0  0.26162948192E+03  0.28636665705E+02 -0.23336233961E+04  0.23484182335E+04  0.00000000000E+00 0. -1.
        -11    1    3    3    0    0  0.74252864093E+02  0.57902111447E+02 -0.10576089998E+04  0.10617923238E+04  0.00000000000E+00 0.  1.
         22    1    1    2    0    0 -0.33588234601E+03 -0.86538777151E+02  0.20575750133E+02  0.34746118029E+03  0.00000000000E+00 0. -1.
<mgrwt>
<rscale>  0 0.16609547E+04</rscale>
<asrwt>0</asrwt>
<pdfrwt beam="1">  1        2 0.54833297E+00 0.16609547E+04</pdfrwt>
<pdfrwt beam="2">  1       -2 0.29770391E-01 0.16609547E+04</pdfrwt>
<totfact> 0.73561469E+00</totfact>
</mgrwt>
</event>
<event>
 6    1  0.5196787E-004  0.4799209E+04  0.7818608E-02  0.7860250E-01
         -2   -1    0    0    0  501 -0.00000000000E+00  0.00000000000E+00  0.19142001011E+04  0.19142001011E+04  0.00000000000E+00 0. -1.
          2   -1    0    0  501    0  0.00000000000E+00 -0.00000000000E+00 -0.30080980622E+04  0.30080980622E+04  0.00000000000E+00 0.  1.
         23    2    1    2    0    0  0.67439509680E+03 -0.38078976164E+03  0.17813304074E+04  0.19445896885E+04  0.92094772938E+02 0.  0.
         11    1    3    3    0    0  0.12649867098E+03 -0.71712119912E+02  0.43227572909E+03  0.45607767744E+03  0.00000000000E+00 0. -1.
        -11    1    3    3    0    0  0.54789642581E+03 -0.30907764173E+03  0.13490546783E+04  0.14885120111E+04  0.00000000000E+00 0.  1.
         22    1    1    2    0    0 -0.67439509680E+03  0.38078976164E+03 -0.28752283685E+04  0.29777084747E+04  0.00000000000E+00 0.  1.
<mgrwt>
<rscale>  0 0.47992089E+04</rscale>
<asrwt>0</asrwt>
<pdfrwt beam="1">  1        2 0.46278432E+00 0.47992089E+04</pdfrwt>
<pdfrwt beam="2">  1       -2 0.29449232E+00 0.47992089E+04</pdfrwt>
<totfact> 0.43700709E-02</totfact>
</mgrwt>
</event>
<event>
 6    1  0.5196787E-004  0.3910479E+04  0.7818608E-02  0.8022853E-01
         -2   -1    0    0    0  501 -0.00000000000E+00  0.00000000000E+00  0.10930909516E+04  0.10930909516E+04  0.00000000000E+00 0. -1.
          2   -1    0    0  501    0  0.00000000000E+00 -0.00000000000E+00 -0.34973866230E+04  0.34973866230E+04  0.00000000000E+00 0.  1.
         23    2    1    2    0    0  0.36111284931E+03 -0.12332279840E+04 -0.29310845996E+04  0.32016794160E+04  0.90776660699E+02 0.  0.
         13    1    3    3    0    0  0.68272528404E+02 -0.37065140212E+03 -0.82202420467E+03  0.90430492263E+03  0.00000000000E+00 0. -1.
        -13    1    3    3    0    0  0.29284032091E+03 -0.86257658191E+03 -0.21090603950E+04  0.22973744934E+04  0.00000000000E+00 0.  1.
         22    1    1    2    0    0 -0.36111284931E+03  0.12332279840E+04  0.52678892822E+03  0.13887981586E+04  0.00000000000E+00 0. -1.
<mgrwt>
<rscale>  0 0.39104791E+04</rscale>
<asrwt>0</asrwt>
<pdfrwt beam="1">  1        2 0.53805948E+00 0.39104791E+04</pdfrwt>
<pdfrwt beam="2">  1       -2 0.16816784E+00 0.39104791E+04</pdfrwt>
<totfact> 0.14223653E-01</totfact>
</mgrwt>
</event>
<event>
 6    1  0.5196787E-004  0.2638574E+04  0.7818608E-02  0.8355215E-01
          2   -1    0    0  501    0  0.00000000000E+00  0.00000000000E+00  0.23732166495E+04  0.23732166495E+04  0.00000000000E+00 0.  1.
         -2   -1    0    0    0  501 -0.00000000000E+00 -0.00000000000E+00 -0.73340046058E+03  0.73340046058E+03  0.00000000000E+00 0. -1.
         23    2    1    2    0    0 -0.71128034026E+03 -0.98304395209E+03  0.14258637121E+04  0.18745169532E+04  0.91822372273E+02 0.  0.
         13    1    3    3    0    0 -0.28735252831E+03 -0.34185656517E+03  0.57093773895E+03  0.72484983854E+03  0.00000000000E+00 0.  1.
        -13    1    3    3    0    0 -0.42392781196E+03 -0.64118738692E+03  0.85492597318E+03  0.11496671147E+04  0.00000000000E+00 0. -1.
         22    1    1    2    0    0  0.71128034026E+03  0.98304395209E+03  0.21395247676E+03  0.12321001568E+04  0.00000000000E+00 0. -1.
<mgrwt>
<rscale>  0 0.26385740E+04</rscale>
<asrwt>0</asrwt>
<pdfrwt beam="1">  1        2 0.36511025E+00 0.26385740E+04</pdfrwt>
<pdfrwt beam="2">  1       -2 0.11283084E+00 0.26385740E+04</pdfrwt>
<totfact> 0.22426490E+00</totfact>
</mgrwt>
</event>
<event>
 6    1  0.5196787E-004  0.2078405E+04  0.7818608E-02  0.8570816E-01
          2   -1    0    0  501    0  0.00000000000E+00  0.00000000000E+00  0.14293895983E+04  0.14293895983E+04  0.00000000000E+00 0. -1.
         -2   -1    0    0    0  501 -0.00000000000E+00 -0.00000000000E+00 -0.75552641707E+03  0.75552641707E+03  0.00000000000E+00 0.  1.
         23    2    1    2    0    0 -0.54742291074E+03  0.59047702474E+03 -0.34967353382E+03  0.88262481638E+03  0.91760701249E+02 0.  0.
         11    1    3    3    0    0 -0.15248292036E+02  0.44274613780E+02 -0.10403566681E+02  0.47968594258E+02  0.00000000000E+00 0. -1.
        -11    1    3    3    0    0 -0.53217461870E+03  0.54620241096E+03 -0.33926996714E+03  0.83465622212E+03  0.00000000000E+00 0.  1.
         22    1    1    2    0    0  0.54742291074E+03 -0.59047702474E+03  0.10235367151E+04  0.13022911990E+04  0.00000000000E+00 0. -1.
<mgrwt>
<rscale>  0 0.20784048E+04</rscale>
<asrwt>0</asrwt>
<pdfrwt beam="1">  1        2 0.21990609E+00 0.20784048E+04</pdfrwt>
<pdfrwt beam="2">  1       -2 0.11623483E+00 0.20784048E+04</pdfrwt>
<totfact> 0.73839071E+00</totfact>
</mgrwt>
</event>
<event>
 6    1  0.5196787E-004  0.3629793E+04  0.7818608E-02  0.8083701E-01
          2   -1    0    0  501    0  0.00000000000E+00  0.00000000000E+00  0.19350457789E+04  0.19350457789E+04  0.00000000000E+00 0.  1.
         -2   -1    0    0    0  501 -0.00000000000E+00 -0.00000000000E+00 -0.17022076101E+04  0.17022076101E+04  0.00000000000E+00 0. -1.
         23    2    1    2    0    0  0.12713291449E+04 -0.53715298970E+03 -0.10627735295E+04  0.17442608370E+04  0.90261639181E+02 0.  0.
         11    1    3    3    0    0  0.91349846483E+02 -0.65093946181E+02 -0.83280701723E+02  0.13970573203E+03  0.00000000000E+00 0. -1.
        -11    1    3    3    0    0  0.11799792984E+04 -0.47205904352E+03 -0.97949282776E+03  0.16045551050E+04  0.00000000000E+00 0.  1.
         22    1    1    2    0    0 -0.12713291449E+04  0.53715298970E+03  0.12956116983E+04  0.18929925520E+04  0.00000000000E+00 0.  1.
<mgrwt>
<rscale>  0 0.36297932E+04</rscale>
<asrwt>0</asrwt>
<pdfrwt beam="1">  1        2 0.29769935E+00 0.36297932E+04</pdfrwt>
<pdfrwt beam="2">  1       -2 0.26187809E+00 0.36297932E+04</pdfrwt>
<totfact> 0.32077788E-01</totfact>
</mgrwt>
</event>
<event>
 6    1  0.5196787E-004  0.2004447E+04  0.7818608E-02  0.8604545E-01
          4   -1    0    0  501    0  0.00000000000E+00  0.00000000000E+00  0.14057114510E+04  0.14057114510E+04  0.00000000000E+00 0.  1.
         -4   -1    0    0    0  501 -0.00000000000E+00 -0.00000000000E+00 -0.71455027266E+03  0.71455027266E+03  0.00000000000E+00 0. -1.
         23    2    1    2    0    0  0.32456860660E+03  0.82019028946E+03  0.84490032023E+03  0.12248888321E+04  0.91865165016E+02 0.  0.
         13    1    3    3    0    0  0.85720099840E+02  0.33758749415E+03  0.33948019130E+03  0.48637439489E+03  0.00000000000E+00 0. -1.
        -13    1    3    3    0    0  0.23884850676E+03  0.48260279531E+03  0.50542012893E+03  0.73851443719E+03  0.00000000000E+00 0.  1.
         22    1    1    2    0    0 -0.32456860660E+03 -0.82019028946E+03 -0.15373914184E+03  0.89537289162E+03  0.00000000000E+00 0. -1.
<mgrwt>
<rscale>  0 0.20044466E+04</rscale>
<asrwt>0</asrwt>
<pdfrwt beam="1">  1        4 0.21626330E+00 0.20044466E+04</pdfrwt>
<pdfrwt beam="2">  1       -4 0.10993081E+00 0.20044466E+04</pdfrwt>
<totfact> 0.12577065E-01</totfact>
</mgrwt>
</event>
<event>
 6    1  0.5196787E-004  0.4857701E+04  0.7818608E-02  0.7850841E-01
          2   -1    0    0  501    0  0.00000000000E+00  0.00000000000E+00  0.33725202939E+04  0.33725202939E+04  0.00000000000E+00 0.  1.
         -2   -1    0    0    0  501 -0.00000000000E+00 -0.00000000000E+00 -0.17492305491E+04  0.17492305491E+04  0.00000000000E+00 0. -1.
         23    2    1    2    0    0 -0.36208165088E+03 -0.23590624339E+04  0.34161716769E+03  0.24126987424E+04  0.90190040232E+02 0.  0.
         11    1    3    3    0    0 -0.10158369860E+03 -0.80702657559E+03  0.15346966747E+03  0.82774638650E+03  0.00000000000E+00 0.  1.
        -11    1    3    3    0    0 -0.26049795228E+03 -0.15520358583E+04  0.18814750022E+03  0.15849523559E+04  0.00000000000E+00 0. -1.
         22    1    1    2    0    0  0.36208165088E+03  0.23590624339E+04  0.12816725772E+04  0.27090521006E+04  0.00000000000E+00 0.  1.
<mgrwt>
<rscale>  0 0.48577013E+04</rscale>
<asrwt>0</asrwt>
<pdfrwt beam="1">  1        2 0.51884927E+00 0.48577013E+04</pdfrwt>
<pdfrwt beam="2">  1       -2 0.26911239E+00 0.48577013E+04</pdfrwt>
<totfact> 0.35913922E-02</totfact>
</mgrwt>
</event>
<event>
 6    1  0.5196787E-004  0.2494153E+03  0.7818608E-02  0.1113675E+00
         -2   -1    0    0    0  501 -0.00000000000E+00  0.00000000000E+00  0.88295258564E+02  0.88295258564E+02  0.00000000000E+00 0. -1.
          2   -1    0    0  501    0  0.00000000000E+00 -0.00000000000E+00 -0.17613631934E+03  0.17613631934E+03  0.00000000000E+00 0.  1.
         23    2    1    2    0    0  0.34707390072E+02 -0.20339558808E+02 -0.15599894538E+03  0.18528741948E+03  0.91528445194E+02 0.  0.
         11    1    3    3    0    0  0.58938424553E+02  0.37174665322E+01 -0.12858955929E+03  0.14150205725E+03  0.00000000000E+00 0. -1.
        -11    1    3    3    0    0 -0.24231034481E+02 -0.24057025340E+02 -0.27409386093E+02  0.43785362237E+02  0.00000000000E+00 0.  1.
         22    1    1    2    0    0 -0.34707390072E+02  0.20339558808E+02  0.68157884608E+02  0.79144158422E+02  0.00000000000E+00 0. -1.
<mgrwt>
<rscale>  0 0.24941533E+03</rscale>
<asrwt>0</asrwt>
<pdfrwt beam="1">  1        2 0.27097895E-01 0.24941533E+03</pdfrwt>
<pdfrwt beam="2">  1       -2 0.13583886E-01 0.24941533E+03</pdfrwt>
<totfact> 0.78133785E+03</totfact>
</mgrwt>
</event>
<event>
 6    1  0.5196787E-004  0.1325058E+04  0.7818608E-02  0.9009927E-01
         -4   -1    0    0    0  501 -0.00000000000E+00  0.00000000000E+00  0.55209627556E+03  0.55209627556E+03  0.00000000000E+00 0. -1.
          4   -1    0    0  501    0  0.00000000000E+00 -0.00000000000E+00 -0.79505108524E+03  0.79505108524E+03  0.00000000000E+00 0.  1.
         23    2    1    2    0    0 -0.81787061741E+02  0.53322847344E+03 -0.50716120070E+03  0.74645880138E+03  0.94691764728E+02 0.  0.
         11    1    3    3    0    0 -0.27141481633E+02  0.41181715196E+03 -0.35615538052E+03  0.54513913980E+03  0.00000000000E+00 0.  1.
        -11    1    3    3    0    0 -0.54645580109E+02  0.12141132149E+03 -0.15100582018E+03  0.20131966158E+03  0.00000000000E+00 0. -1.
         22    1    1    2    0    0  0.81787061741E+02 -0.53322847344E+03  0.26420639103E+03  0.60068855942E+03  0.00000000000E+00 0. -1.
<mgrwt>
<rscale>  0 0.13250581E+04</rscale>
<asrwt>0</asrwt>
<pdfrwt beam="1">  1        4 0.12231555E+00 0.13250581E+04</pdfrwt>
<pdfrwt beam="2">  1       -4 0.84937889E-01 0.13250581E+04</pdfrwt>
<totfact> 0.11931415E+00</totfact>
</mgrwt>
</event>
<event>
 6    1  0.5196787E-004  0.1858775E+04  0.7818608E-02  0.8675653E-01
         -2   -1    0    0    0  501 -0.00000000000E+00  0.00000000000E+00  0.65854158124E+03  0.65854158124E+03  0.00000000000E+00 0.  1.
          2   -1    0    0  501    0  0.00000000000E+00 -0.00000000000E+00 -0.13116270068E+04  0.13116270068E+04  0.00000000000E+00 0. -1.
         23    2    1    2    0    0 -0.65053293280E+03  0.64869229831E+03 -0.19332325861E+03  0.94285361943E+03  0.87202470246E+02 0.  0.
         13    1    3    3    0    0 -0.50643322430E+03  0.46368767737E+03 -0.11919273680E+03  0.69691303713E+03  0.00000000000E+00 0.  1.
        -13    1    3    3    0    0 -0.14409970850E+03  0.18500462094E+03 -0.74130521813E+02  0.24594058230E+03  0.00000000000E+00 0. -1.
         22    1    1    2    0    0  0.65053293280E+03 -0.64869229831E+03 -0.45976216692E+03  0.10273149686E+04  0.00000000000E+00 0. -1.
<mgrwt>
<rscale>  0 0.18587748E+04</rscale>
<asrwt>0</asrwt>
<pdfrwt beam="1">  1        2 0.20178877E+00 0.18587748E+04</pdfrwt>
<pdfrwt beam="2">  1       -2 0.10131409E+00 0.18587748E+04</pdfrwt>
<totfact> 0.12247660E+01</totfact>
</mgrwt>
</event>
<event>
 6    1  0.5196787E-004  0.1115688E+04  0.7818608E-02  0.9190034E-01
         -2   -1    0    0    0  501 -0.00000000000E+00  0.00000000000E+00  0.20939702453E+03  0.20939702453E+03  0.00000000000E+00 0. -1.
          2   -1    0    0  501    0  0.00000000000E+00 -0.00000000000E+00 -0.14861248512E+04  0.14861248512E+04  0.00000000000E+00 0.  1.
         23    2    1    2    0    0  0.52998692548E+03  0.70171575636E+02 -0.86400370821E+03  0.10201320704E+04  0.91415764433E+02 0.  0.
         13    1    3    3    0    0  0.23289307791E+03  0.71433562625E+02 -0.42936291284E+03  0.49365418112E+03  0.00000000000E+00 0. -1.
        -13    1    3    3    0    0  0.29709384757E+03 -0.12619869889E+01 -0.43464079536E+03  0.52647788925E+03  0.00000000000E+00 0.  1.
         22    1    1    2    0    0 -0.52998692548E+03 -0.70171575636E+02 -0.41272411844E+03  0.67538980533E+03  0.00000000000E+00 0. -1.
<mgrwt>
<rscale>  0 0.11156883E+04</rscale>
<asrwt>0</asrwt>
<pdfrwt beam="1">  1        2 0.22863460E+00 0.11156883E+04</pdfrwt>
<pdfrwt beam="2">  1       -2 0.32214926E-01 0.11156883E+04</pdfrwt>
<totfact> 0.11491698E+02</totfact>
</mgrwt>
</event>
<event>
 6    1  0.5196787E-004  0.2129211E+04  0.7818608E-02  0.8548484E-01
          1   -1    0    0  501    0  0.00000000000E+00  0.00000000000E+00  0.36488014915E+04  0.36488014915E+04  0.00000000000E+00 0.  1.
         -1   -1    0    0    0  501 -0.00000000000E+00 -0.00000000000E+00 -0.31061852932E+03  0.31061852932E+03  0.00000000000E+00 0. -1.
         23    2    1    2    0    0  0.10116619633E+04 -0.30869876433E+03  0.14791640224E+04  0.18205637205E+04  0.88154410877E+02 0.  0.
         13    1    3    3    0    0  0.85643142549E+03 -0.25693603696E+03  0.13012506433E+04  0.15788426617E+04  0.00000000000E+00 0. -1.
        -13    1    3    3    0    0  0.15523053778E+03 -0.51762727369E+02  0.17791337905E+03  0.24172105876E+03  0.00000000000E+00 0.  1.
         22    1    1    2    0    0 -0.10116619633E+04  0.30869876433E+03  0.18590189398E+04  0.21388563003E+04  0.00000000000E+00 0.  1.
<mgrwt>
<rscale>  0 0.21292115E+04</rscale>
<asrwt>0</asrwt>
<pdfrwt beam="1">  1        1 0.56135405E+00 0.21292115E+04</pdfrwt>
<pdfrwt beam="2">  1       -1 0.47787469E-01 0.21292115E+04</pdfrwt>
<totfact> 0.76537488E-01</totfact>
</mgrwt>
</event>
<event>
 6    1  0.5196787E-004  0.3657436E+03  0.7818608E-02  0.1056333E+00
          2   -1    0    0  501    0  0.00000000000E+00  0.00000000000E+00  0.13578171311E+04  0.13578171311E+04  0.00000000000E+00 0.  1.
         -2   -1    0    0    0  501 -0.00000000000E+00 -0.00000000000E+00 -0.24629307343E+02  0.24629307343E+02  0.00000000000E+00 0. -1.
         23    2    1    2    0    0 -0.13285176960E+03 -0.11018169739E+03  0.60722909321E+03  0.63625230983E+03  0.79373994430E+02 0.  0.
         13    1    3    3    0    0 -0.12700114087E+02 -0.23877297420E+02  0.30101934404E+02  0.40466587263E+02  0.00000000000E+00 0. -1.
        -13    1    3    3    0    0 -0.12015165552E+03 -0.86304399973E+02  0.57712715881E+03  0.59578572257E+03  0.00000000000E+00 0.  1.
         22    1    1    2    0    0  0.13285176960E+03  0.11018169739E+03  0.72595873059E+03  0.74619412866E+03  0.00000000000E+00 0.  1.
<mgrwt>
<rscale>  0 0.36574360E+03</rscale>
<asrwt>0</asrwt>
<pdfrwt beam="1">  1        2 0.20889488E+00 0.36574360E+03</pdfrwt>
<pdfrwt beam="2">  1       -2 0.37891253E-02 0.36574360E+03</pdfrwt>
<totfact> 0.48775475E+03</totfact>
</mgrwt>
</event>
<event>
 6    1  0.5196787E-004  0.2746842E+04  0.7818608E-02  0.8319965E-01
         -2   -1    0    0    0  501 -0.00000000000E+00  0.00000000000E+00  0.98688222917E+03  0.98688222917E+03  0.00000000000E+00 0.  1.
          2   -1    0    0  501    0  0.00000000000E+00 -0.00000000000E+00 -0.19113574119E+04  0.19113574119E+04  0.00000000000E+00 0. -1.
         23    2    1    2    0    0 -0.89575629573E+03 -0.12294025374E+03  0.62603196167E+03  0.11033674862E+04  0.89499415120E+02 0.  0.
         11    1    3    3    0    0 -0.73858671483E+03 -0.12235904013E+03  0.48362695951E+03  0.89127835494E+03  0.00000000000E+00 0. -1.
        -11    1    3    3    0    0 -0.15716958090E+03 -0.58121360853E+00  0.14240500216E+03  0.21208913129E+03  0.00000000000E+00 0.  1.
         22    1    1    2    0    0  0.89575629573E+03  0.12294025374E+03 -0.15505071444E+04  0.17948721548E+04  0.00000000000E+00 0. -1.
<mgrwt>
<rscale>  0 0.27468416E+04</rscale>
<asrwt>0</asrwt>
<pdfrwt beam="1">  1        2 0.29405498E+00 0.27468416E+04</pdfrwt>
<pdfrwt beam="2">  1       -2 0.15182804E+00 0.27468416E+04</pdfrwt>
<totfact> 0.18977753E+00</totfact>
</mgrwt>
</event>
<event>
 6    1  0.5196787E-004  0.1191282E+04  0.7818608E-02  0.9120522E-01
         -1   -1    0    0    0  501 -0.00000000000E+00  0.00000000000E+00  0.58457969570E+03  0.58457969570E+03  0.00000000000E+00 0. -1.
          1   -1    0    0  501    0  0.00000000000E+00 -0.00000000000E+00 -0.60691172686E+03  0.60691172686E+03  0.00000000000E+00 0.  1.
         23    2    1    2    0    0  0.43791248864E+03 -0.34726957547E+03  0.18482125930E+03  0.59544109624E+03  0.89597407601E+02 0.  0.
         13    1    3    3    0    0  0.10812918443E+03 -0.77237465379E+02  0.54205932690E+01  0.13299221562E+03  0.00000000000E+00 0. -1.
        -13    1    3    3    0    0  0.32978330421E+03 -0.27003211009E+03  0.17940066603E+03  0.46244888062E+03  0.00000000000E+00 0.  1.
         22    1    1    2    0    0 -0.43791248864E+03  0.34726957547E+03 -0.20715329047E+03  0.59605032632E+03  0.00000000000E+00 0.  1.
<mgrwt>
<rscale>  0 0.11912821E+04</rscale>
<asrwt>0</asrwt>
<pdfrwt beam="1">  1        1 0.93371035E-01 0.11912821E+04</pdfrwt>
<pdfrwt beam="2">  1       -1 0.89935338E-01 0.11912821E+04</pdfrwt>
<totfact> 0.40381882E+01</totfact>
</mgrwt>
</event>
<event>
 6    1  0.5196787E-004  0.3367003E+04  0.7818608E-02  0.8146053E-01
         -2   -1    0    0    0  501 -0.00000000000E+00  0.00000000000E+00  0.16061370525E+04  0.16061370525E+04  0.00000000000E+00 0. -1.
          2   -1    0    0  501    0  0.00000000000E+00 -0.00000000000E+00 -0.17645927144E+04  0.17645927144E+04  0.00000000000E+00 0.  1.
         23    2    1    2    0    0 -0.10313776687E+04 -0.77401019684E+03  0.10031714773E+04  0.16351580194E+04  0.67505963639E+02 0.  0.
         13    1    3    3    0    0 -0.54764749615E+03 -0.41103231229E+03  0.57526546601E+03  0.89431297551E+03  0.00000000000E+00 0.  1.
        -13    1    3    3    0    0 -0.48373017254E+03 -0.36297788455E+03  0.42790601132E+03  0.74084504387E+03  0.00000000000E+00 0. -1.
         22    1    1    2    0    0  0.10313776687E+04  0.77401019684E+03 -0.11616271392E+04  0.17355717475E+04  0.00000000000E+00 0.  1.
<mgrwt>
<rscale>  0 0.33670033E+04</rscale>
<asrwt>0</asrwt>
<pdfrwt beam="1">  1        2 0.27147580E+00 0.33670033E+04</pdfrwt>
<pdfrwt beam="2">  1       -2 0.24709801E+00 0.33670033E+04</pdfrwt>
<totfact> 0.50222335E-01</totfact>
</mgrwt>
</event>
<event>
 6    1  0.5196787E-004  0.8751337E+03  0.7818608E-02  0.9457211E-01
         -2   -1    0    0    0  501 -0.00000000000E+00  0.00000000000E+00  0.79548690817E+02  0.79548690817E+02  0.00000000000E+00 0. -1.
          2   -1    0    0  501    0  0.00000000000E+00 -0.00000000000E+00 -0.24068874698E+04  0.24068874698E+04  0.00000000000E+00 0.  1.
         23    2    1    2    0    0  0.88715322612E+02  0.41223166177E+03 -0.89717146819E+03  0.99540165790E+03  0.90013697761E+02 0.  0.
         13    1    3    3    0    0  0.36155680446E+02  0.22614484220E+03 -0.38529882812E+03  0.44822305812E+03  0.00000000000E+00 0. -1.
        -13    1    3    3    0    0  0.52559642166E+02  0.18608681957E+03 -0.51187264007E+03  0.54717859978E+03  0.00000000000E+00 0.  1.
         22    1    1    2    0    0 -0.88715322612E+02 -0.41223166177E+03 -0.14301673108E+04  0.14910345027E+04  0.00000000000E+00 0. -1.
<mgrwt>
<rscale>  0 0.87513370E+03</rscale>
<asrwt>0</asrwt>
<pdfrwt beam="1">  1        2 0.37029040E+00 0.87513370E+03</pdfrwt>
<pdfrwt beam="2">  1       -2 0.12238260E-01 0.87513370E+03</pdfrwt>
<totfact> 0.19855250E+02</totfact>
</mgrwt>
</event>
<event>
 6    1  0.5196787E-004  0.2044347E+04  0.7818608E-02  0.8586163E-01
         -2   -1    0    0    0  501 -0.00000000000E+00  0.00000000000E+00  0.10812725242E+04  0.10812725242E+04  0.00000000000E+00 0. -1.
          2   -1    0    0  501    0  0.00000000000E+00 -0.00000000000E+00 -0.96630485760E+03  0.96630485760E+03  0.00000000000E+00 0.  1.
         23    2    1    2    0    0  0.88067700326E+03  0.51471083949E+03  0.50628874341E+02  0.10254919096E+04  0.92472381497E+02 0.  0.
         11    1    3    3    0    0  0.36628949496E+03  0.24104252766E+03 -0.17698813300E+02  0.43884250278E+03  0.00000000000E+00 0.  1.
        -11    1    3    3    0    0  0.51438750831E+03  0.27366831183E+03  0.68327687641E+02  0.58664940680E+03  0.00000000000E+00 0. -1.
         22    1    1    2    0    0 -0.88067700326E+03 -0.51471083949E+03  0.64338792276E+02  0.10220854722E+04  0.00000000000E+00 0.  1.
<mgrwt>
<rscale>  0 0.20443472E+04</rscale>
<asrwt>0</asrwt>
<pdfrwt beam="1">  1        2 0.14866229E+00 0.20443472E+04</pdfrwt>
<pdfrwt beam="2">  1       -2 0.16634962E+00 0.20443472E+04</pdfrwt>
<totfact> 0.55496939E+00</totfact>
</mgrwt>
</event>
<event>
 6    1  0.5196787E-004  0.3367362E+04  0.7818608E-02  0.8145963E-01
         -2   -1    0    0    0  501 -0.00000000000E+00  0.00000000000E+00  0.10544396634E+04  0.10544396634E+04  0.00000000000E+00 0. -1.
          2   -1    0    0  501    0  0.00000000000E+00 -0.00000000000E+00 -0.26884250903E+04  0.26884250903E+04  0.00000000000E+00 0.  1.
         23    2    1    2    0    0  0.23126148995E+03  0.14214175982E+04 -0.17844308962E+04  0.22949201054E+04  0.92492169328E+02 0.  0.
         13    1    3    3    0    0  0.10460762426E+03  0.38652793613E+03 -0.50187972771E+03  0.64205129199E+03  0.00000000000E+00 0. -1.
        -13    1    3    3    0    0  0.12665386570E+03  0.10348896621E+04 -0.12825511685E+04  0.16528688134E+04  0.00000000000E+00 0.  1.
         22    1    1    2    0    0 -0.23126148995E+03 -0.14214175982E+04  0.15044546933E+03  0.14479446483E+04  0.00000000000E+00 0. -1.
<mgrwt>
<rscale>  0 0.33673622E+04</rscale>
<asrwt>0</asrwt>
<pdfrwt beam="1">  1        2 0.41360385E+00 0.33673622E+04</pdfrwt>
<pdfrwt beam="2">  1       -2 0.16222149E+00 0.33673622E+04</pdfrwt>
<totfact> 0.54345441E-01</totfact>
</mgrwt>
</event>
<event>
 6    1  0.5196787E-004  0.2794589E+04  0.7818608E-02  0.8304950E-01
          2   -1    0    0  501    0  0.00000000000E+00  0.00000000000E+00  0.11919433553E+04  0.11919433553E+04  0.00000000000E+00 0.  1.
         -2   -1    0    0    0  501 -0.00000000000E+00 -0.00000000000E+00 -0.16380244139E+04  0.16380244139E+04  0.00000000000E+00 0. -1.
         23    2    1    2    0    0  0.10366497347E+04  0.55183324836E+03  0.54072479939E+03  0.12960354344E+04  0.90343411391E+02 0.  0.
         13    1    3    3    0    0  0.32091736206E+03  0.17733688609E+03  0.21504911461E+03  0.42506757831E+03  0.00000000000E+00 0.  1.
        -13    1    3    3    0    0  0.71573237268E+03  0.37449636227E+03  0.32567568478E+03  0.87096785607E+03  0.00000000000E+00 0. -1.
         22    1    1    2    0    0 -0.10366497347E+04 -0.55183324836E+03 -0.98680585797E+03  0.15339323348E+04  0.00000000000E+00 0. -1.
<mgrwt>
<rscale>  0 0.27945893E+04</rscale>
<asrwt>0</asrwt>
<pdfrwt beam="1">  1        2 0.18337590E+00 0.27945893E+04</pdfrwt>
<pdfrwt beam="2">  1       -2 0.25200376E+00 0.27945893E+04</pdfrwt>
<totfact> 0.10414363E+00</totfact>
</mgrwt>
</event>
<event>
 6    1  0.5196787E-004  0.1162762E+04  0.7818608E-02  0.9146090E-01
          2   -1    0    0  501    0  0.00000000000E+00  0.00000000000E+00  0.11663757387E+04  0.11663757387E+04  0.00000000000E+00 0.  1.
         -2   -1    0    0    0  501 -0.00000000000E+00 -0.00000000000E+00 -0.28978996182E+03  0.28978996182E+03  0.00000000000E+00 0. -1.
         23    2    1    2    0    0  0.22468595074E+03 -0.19051270516E+03  0.10634965941E+04  0.11072896181E+04  0.91029805228E+02 0.  0.
         11    1    3    3    0    0  0.19311331102E+03 -0.12547051701E+03  0.89041074947E+03  0.91971022844E+03  0.00000000000E+00 0. -1.
        -11    1    3    3    0    0  0.31572639712E+02 -0.65042188157E+02  0.17308584462E+03  0.18757938966E+03  0.00000000000E+00 0.  1.
         22    1    1    2    0    0 -0.22468595074E+03  0.19051270516E+03 -0.18691081721E+03  0.34887608241E+03  0.00000000000E+00 0. -1.
<mgrwt>
<rscale>  0 0.11627622E+04</rscale>
<asrwt>0</asrwt>
<pdfrwt beam="1">  1        2 0.17944242E+00 0.11627622E+04</pdfrwt>
<pdfrwt beam="2">  1       -2 0.44583072E-01 0.11627622E+04</pdfrwt>
<totfact> 0.93598482E+01</totfact>
</mgrwt>
</event>
<event>
 6    1  0.5196787E-004  0.1603228E+04  0.7818608E-02  0.8818567E-01
          2   -1    0    0  501    0  0.00000000000E+00  0.00000000000E+00  0.13361885597E+04  0.13361885597E+04  0.00000000000E+00 0.  1.
         -2   -1    0    0    0  501 -0.00000000000E+00 -0.00000000000E+00 -0.48090909799E+03  0.48090909799E+03  0.00000000000E+00 0. -1.
         23    2    1    2    0    0  0.34974115619E+03  0.59157675053E+03  0.89121282127E+03  0.11289311557E+04  0.89125380512E+02 0.  0.
         13    1    3    3    0    0  0.20325810179E+03  0.26170465786E+03  0.40156389253E+03  0.52063110133E+03  0.00000000000E+00 0. -1.
        -13    1    3    3    0    0  0.14648305439E+03  0.32987209267E+03  0.48964892874E+03  0.60830005439E+03  0.00000000000E+00 0.  1.
         22    1    1    2    0    0 -0.34974115619E+03 -0.59157675053E+03 -0.35933359576E+02  0.68816650197E+03  0.00000000000E+00 0. -1.
<mgrwt>
<rscale>  0 0.16032283E+04</rscale>
<asrwt>0</asrwt>
<pdfrwt beam="1">  1        2 0.20556747E+00 0.16032283E+04</pdfrwt>
<pdfrwt beam="2">  1       -2 0.73986016E-01 0.16032283E+04</pdfrwt>
<totfact> 0.24848771E+01</totfact>
</mgrwt>
</event>
<event>
 6    1  0.5196787E-004  0.1442474E+04  0.7818608E-02  0.8923635E-01
         -1   -1    0    0    0  501 -0.00000000000E+00  0.00000000000E+00  0.74061100763E+03  0.74061100763E+03  0.00000000000E+00 0. -1.
          1   -1    0    0  501    0  0.00000000000E+00 -0.00000000000E+00 -0.70236987754E+03  0.70236987754E+03  0.00000000000E+00 0.  1.
         23    2    1    2    0    0  0.48785194277E+03  0.43227254527E+03 -0.28270142480E+03  0.71643894212E+03  0.92225759616E+02 0.  0.
         11    1    3    3    0    0  0.27869691985E+03  0.24426286048E+03 -0.21002038126E+03  0.42596347107E+03  0.00000000000E+00 0.  1.
        -11    1    3    3    0    0  0.20915502292E+03  0.18800968479E+03 -0.72681043540E+02  0.29047547105E+03  0.00000000000E+00 0. -1.
         22    1    1    2    0    0 -0.48785194277E+03 -0.43227254527E+03  0.32094255488E+03  0.72654194304E+03  0.00000000000E+00 0. -1.
<mgrwt>
<rscale>  0 0.14424741E+04</rscale>
<asrwt>0</asrwt>
<pdfrwt beam="1">  1        1 0.10805690E+00 0.14424741E+04</pdfrwt>
<pdfrwt beam="2">  1       -1 0.11394016E+00 0.14424741E+04</pdfrwt>
<totfact> 0.18493002E+01</totfact>
</mgrwt>
</event>
<event>
 6    1  0.5196787E-004  0.2359783E+04  0.7818608E-02  0.8454715E-01
         -2   -1    0    0    0  501 -0.00000000000E+00  0.00000000000E+00  0.10422835283E+04  0.10422835283E+04  0.00000000000E+00 0. -1.
          2   -1    0    0  501    0  0.00000000000E+00 -0.00000000000E+00 -0.13356676794E+04  0.13356676794E+04  0.00000000000E+00 0.  1.
         23    2    1    2    0    0 -0.25218734748E+03 -0.57522843744E+03  0.85786099619E+03  0.10665200800E+04  0.83984395719E+02 0.  0.
         13    1    3    3    0    0 -0.15449139408E+03 -0.24887305237E+03  0.40514311748E+03  0.49994632980E+03  0.00000000000E+00 0.  1.
        -13    1    3    3    0    0 -0.97695953402E+02 -0.32635538507E+03  0.45271787871E+03  0.56657375017E+03  0.00000000000E+00 0. -1.
         22    1    1    2    0    0  0.25218734748E+03  0.57522843744E+03 -0.11512451473E+04  0.13114311277E+04  0.00000000000E+00 0.  1.
<mgrwt>
<rscale>  0 0.23597834E+04</rscale>
<asrwt>0</asrwt>
<pdfrwt beam="1">  1        2 0.20548734E+00 0.23597834E+04</pdfrwt>
<pdfrwt beam="2">  1       -2 0.16035131E+00 0.23597834E+04</pdfrwt>
<totfact> 0.35606629E+00</totfact>
</mgrwt>
</event>
<event>
 6    1  0.5196787E-004  0.1701093E+04  0.7818608E-02  0.8760741E-01
          2   -1    0    0  501    0  0.00000000000E+00  0.00000000000E+00  0.11712742598E+04  0.11712742598E+04  0.00000000000E+00 0.  1.
         -2   -1    0    0    0  501 -0.00000000000E+00 -0.00000000000E+00 -0.61764267209E+03  0.61764267209E+03  0.00000000000E+00 0. -1.
         23    2    1    2    0    0  0.13841796660E+03 -0.28017771071E+03  0.11067529101E+04  0.11536199303E+04  0.90982725924E+02 0.  0.
         13    1    3    3    0    0  0.80223614844E+02 -0.69272429406E+02  0.32655317960E+03  0.34332415727E+03  0.00000000000E+00 0.  1.
        -13    1    3    3    0    0  0.58194351754E+02 -0.21090528131E+03  0.78019973052E+03  0.81029577302E+03  0.00000000000E+00 0. -1.
         22    1    1    2    0    0 -0.13841796660E+03  0.28017771071E+03 -0.55312132237E+03  0.63529700166E+03  0.00000000000E+00 0. -1.
<mgrwt>
<rscale>  0 0.17010925E+04</rscale>
<asrwt>0</asrwt>
<pdfrwt beam="1">  1        2 0.18019604E+00 0.17010925E+04</pdfrwt>
<pdfrwt beam="2">  1       -2 0.95021950E-01 0.17010925E+04</pdfrwt>
<totfact> 0.17471088E+01</totfact>
</mgrwt>
</event>
<event>
 6    1  0.5196787E-004  0.6688368E+04  0.7818608E-02  0.7610457E-01
          2   -1    0    0  501    0  0.00000000000E+00  0.00000000000E+00  0.45970395886E+04  0.45970395886E+04  0.00000000000E+00 0.  1.
         -2   -1    0    0    0  501 -0.00000000000E+00 -0.00000000000E+00 -0.24327758896E+04  0.24327758896E+04  0.00000000000E+00 0. -1.
         23    2    1    2    0    0  0.15502911123E+04  0.10926928494E+04 -0.18118549373E+04  0.26244892013E+04  0.88006014073E+02 0.  0.
         11    1    3    3    0    0  0.73169873516E+03  0.54444758126E+03 -0.92242184064E+03  0.12971770349E+04  0.00000000000E+00 0. -1.
        -11    1    3    3    0    0  0.81859237709E+03  0.54824526809E+03 -0.88943309661E+03  0.13273121664E+04  0.00000000000E+00 0.  1.
         22    1    1    2    0    0 -0.15502911123E+04 -0.10926928494E+04  0.39761186363E+04  0.44053262769E+04  0.00000000000E+00 0.  1.
<mgrwt>
<rscale>  0 0.66883681E+04</rscale>
<asrwt>0</asrwt>
<pdfrwt beam="1">  1        2 0.70723686E+00 0.66883681E+04</pdfrwt>
<pdfrwt beam="2">  1       -2 0.37427321E+00 0.66883681E+04</pdfrwt>
<totfact> 0.67531787E-04</totfact>
</mgrwt>
</event>
<event>
 6    1  0.5196787E-004  0.2273756E+04  0.7818608E-02  0.8488341E-01
          2   -1    0    0  501    0  0.00000000000E+00  0.00000000000E+00  0.15439532244E+04  0.15439532244E+04  0.00000000000E+00 0.  1.
         -2   -1    0    0    0  501 -0.00000000000E+00 -0.00000000000E+00 -0.83713150114E+03  0.83713150114E+03  0.00000000000E+00 0. -1.
         23    2    1    2    0    0  0.71058057760E+03 -0.62749680948E+03  0.10076447798E+04  0.13865137052E+04  0.91625593132E+02 0.  0.
         11    1    3    3    0    0  0.60146545552E+03 -0.48821840772E+03  0.79765121950E+03  0.11119196805E+04  0.00000000000E+00 0.  1.
        -11    1    3    3    0    0  0.10911512208E+03 -0.13927840175E+03  0.20999356033E+03  0.27459402477E+03  0.00000000000E+00 0. -1.
         22    1    1    2    0    0 -0.71058057760E+03  0.62749680948E+03 -0.30082305653E+03  0.99457102034E+03  0.00000000000E+00 0.  1.
<mgrwt>
<rscale>  0 0.22737563E+04</rscale>
<asrwt>0</asrwt>
<pdfrwt beam="1">  1        2 0.23753127E+00 0.22737563E+04</pdfrwt>
<pdfrwt beam="2">  1       -2 0.12878946E+00 0.22737563E+04</pdfrwt>
<totfact> 0.48451726E+00</totfact>
</mgrwt>
</event>
<event>
 6    1  0.5196787E-004  0.1661678E+04  0.7818608E-02  0.8783528E-01
          2   -1    0    0  501    0  0.00000000000E+00  0.00000000000E+00  0.18650614915E+04  0.18650614915E+04  0.00000000000E+00 0.  1.
         -2   -1    0    0    0  501 -0.00000000000E+00 -0.00000000000E+00 -0.37011835215E+03  0.37011835215E+03  0.00000000000E+00 0. -1.
         23    2    1    2    0    0  0.46346057586E+03  0.48752579851E+03  0.99597317841E+02  0.68615851676E+03  0.91742982332E+02 0.  0.
         11    1    3    3    0    0  0.39034866873E+03  0.42448029647E+03  0.53428356293E+02  0.57914609083E+03  0.00000000000E+00 0.  1.
        -11    1    3    3    0    0  0.73111907131E+02  0.63045502040E+02  0.46168961549E+02  0.10701242593E+03  0.00000000000E+00 0. -1.
         22    1    1    2    0    0 -0.46346057586E+03 -0.48752579851E+03  0.13953458215E+04  0.15490213269E+04  0.00000000000E+00 0.  1.
<mgrwt>
<rscale>  0 0.16616781E+04</rscale>
<asrwt>0</asrwt>
<pdfrwt beam="1">  1        2 0.28693253E+00 0.16616781E+04</pdfrwt>
<pdfrwt beam="2">  1       -2 0.56941286E-01 0.16616781E+04</pdfrwt>
<totfact> 0.21912898E+01</totfact>
</mgrwt>
</event>
<event>
 6    1  0.5196787E-004  0.5765593E+04  0.7818608E-02  0.7720165E-01
          2   -1    0    0  501    0  0.00000000000E+00  0.00000000000E+00  0.26068671491E+04  0.26068671491E+04  0.00000000000E+00 0.  1.
         -2   -1    0    0    0  501 -0.00000000000E+00 -0.00000000000E+00 -0.31879317775E+04  0.31879317775E+04  0.00000000000E+00 0. -1.
         23    2    1    2    0    0  0.10492275176E+04 -0.49194554570E+03  0.23615869378E+04  0.26321912931E+04  0.91920266203E+02 0.  0.
         11    1    3    3    0    0  0.75255401569E+03 -0.39698201402E+03  0.17113403316E+04  0.19111823557E+04  0.00000000000E+00 0.  1.
        -11    1    3    3    0    0  0.29667350193E+03 -0.94963531681E+02  0.65024660615E+03  0.72100893747E+03  0.00000000000E+00 0. -1.
         22    1    1    2    0    0 -0.10492275176E+04  0.49194554570E+03 -0.29426515661E+04  0.31626076335E+04  0.00000000000E+00 0. -1.
<mgrwt>
<rscale>  0 0.57655926E+04</rscale>
<asrwt>0</asrwt>
<pdfrwt beam="1">  1        2 0.40105649E+00 0.57655926E+04</pdfrwt>
<pdfrwt beam="2">  1       -2 0.49045104E+00 0.57655926E+04</pdfrwt>
<totfact> 0.39488420E-03</totfact>
</mgrwt>
</event>
<event>
 6    1  0.5196787E-004  0.6258857E+03  0.7818608E-02  0.9853111E-01
         -2   -1    0    0    0  501 -0.00000000000E+00  0.00000000000E+00  0.38152633152E+03  0.38152633152E+03  0.00000000000E+00 0. -1.
          2   -1    0    0  501    0  0.00000000000E+00 -0.00000000000E+00 -0.25668800660E+03  0.25668800660E+03  0.00000000000E+00 0.  1.
         23    2    1    2    0    0 -0.29339800400E+03  0.83859293862E+02  0.35993517447E+02  0.32039651336E+03  0.90794397180E+02 0.  0.
         13    1    3    3    0    0 -0.51338619919E+02  0.52143931435E+02 -0.26774717550E+01  0.73224397134E+02  0.00000000000E+00 0.  1.
        -13    1    3    3    0    0 -0.24205938408E+03  0.31715362427E+02  0.38670989202E+02  0.24717211623E+03  0.00000000000E+00 0. -1.
         22    1    1    2    0    0  0.29339800400E+03 -0.83859293862E+02  0.88844807469E+02  0.31781782476E+03  0.00000000000E+00 0. -1.
<mgrwt>
<rscale>  0 0.62588572E+03</rscale>
<asrwt>0</asrwt>
<pdfrwt beam="1">  1        2 0.39490462E-01 0.62588572E+03</pdfrwt>
<pdfrwt beam="2">  1       -2 0.58696359E-01 0.62588572E+03</pdfrwt>
<totfact> 0.35795085E+02</totfact>
</mgrwt>
</event>
<event>
 6    1  0.5196787E-004  0.5407323E+04  0.7818608E-02  0.7768572E-01
          2   -1    0    0  501    0  0.00000000000E+00  0.00000000000E+00  0.26217610574E+04  0.26217610574E+04  0.00000000000E+00 0.  1.
         -2   -1    0    0    0  501 -0.00000000000E+00 -0.00000000000E+00 -0.27881207359E+04  0.27881207359E+04  0.00000000000E+00 0. -1.
         23    2    1    2    0    0 -0.29577030845E+03  0.23273711610E+04  0.12595089387E+04  0.26644787428E+04  0.94591795464E+02 0.  0.
         13    1    3    3    0    0 -0.26015473757E+03  0.18576768413E+04  0.97295922110E+03  0.21131240806E+04  0.00000000000E+00 0. -1.
        -13    1    3    3    0    0 -0.35615570879E+02  0.46969431965E+03  0.28654971765E+03  0.55135466216E+03  0.00000000000E+00 0.  1.
         22    1    1    2    0    0  0.29577030845E+03 -0.23273711610E+04 -0.14258686172E+04  0.27454030505E+04  0.00000000000E+00 0. -1.
<mgrwt>
<rscale>  0 0.54073233E+04</rscale>
<asrwt>0</asrwt>
<pdfrwt beam="1">  1        2 0.40334786E+00 0.54073233E+04</pdfrwt>
<pdfrwt beam="2">  1       -2 0.42894165E+00 0.54073233E+04</pdfrwt>
<totfact> 0.99895593E-03</totfact>
</mgrwt>
</event>
<event>
 6    1  0.5196787E-004  0.2183924E+04  0.7818608E-02  0.8525149E-01
          1   -1    0    0  501    0  0.00000000000E+00  0.00000000000E+00  0.10729302732E+04  0.10729302732E+04  0.00000000000E+00 0.  1.
         -1   -1    0    0    0  501 -0.00000000000E+00 -0.00000000000E+00 -0.11113314292E+04  0.11113314292E+04  0.00000000000E+00 0. -1.
         23    2    1    2    0    0 -0.29208967893E+03 -0.49052393346E+03  0.90951008613E+03  0.10777058597E+04  0.91165856767E+02 0.  0.
         11    1    3    3    0    0 -0.13797722107E+02 -0.10353968181E+01  0.12679727680E+02  0.18767649719E+02  0.00000000000E+00 0. -1.
        -11    1    3    3    0    0 -0.27829195683E+03 -0.48948853664E+03  0.89683035845E+03  0.10589382100E+04  0.00000000000E+00 0.  1.
         22    1    1    2    0    0  0.29208967893E+03  0.49052393346E+03 -0.94791124215E+03  0.11065558426E+04  0.00000000000E+00 0. -1.
<mgrwt>
<rscale>  0 0.21839241E+04</rscale>
<asrwt>0</asrwt>
<pdfrwt beam="1">  1        1 0.16506620E+00 0.21839241E+04</pdfrwt>
<pdfrwt beam="2">  1       -1 0.17097407E+00 0.21839241E+04</pdfrwt>
<totfact> 0.29374026E+00</totfact>
</mgrwt>
</event>
<event>
 6    1  0.5196787E-004  0.2288428E+04  0.7818608E-02  0.8482498E-01
         -2   -1    0    0    0  501 -0.00000000000E+00  0.00000000000E+00  0.87886385868E+03  0.87886385868E+03  0.00000000000E+00 0. -1.
          2   -1    0    0  501    0  0.00000000000E+00 -0.00000000000E+00 -0.14896803576E+04  0.14896803576E+04  0.00000000000E+00 0.  1.
         23    2    1    2    0    0  0.70441615869E+03  0.73300307207E+03 -0.84553423156E+03  0.13251899896E+04  0.87776668270E+02 0.  0.
         11    1    3    3    0    0  0.42755598344E+03  0.49869594132E+03 -0.51937413362E+03  0.83740745849E+03  0.00000000000E+00 0.  1.
        -11    1    3    3    0    0  0.27686017525E+03  0.23430713075E+03 -0.32616009795E+03  0.48778253111E+03  0.00000000000E+00 0. -1.
         22    1    1    2    0    0 -0.70441615869E+03 -0.73300307207E+03  0.23471773265E+03  0.10433542267E+04  0.00000000000E+00 0. -1.
<mgrwt>
<rscale>  0 0.22884285E+04</rscale>
<asrwt>0</asrwt>
<pdfrwt beam="1">  1        2 0.22918159E+00 0.22884285E+04</pdfrwt>
<pdfrwt beam="2">  1       -2 0.13520982E+00 0.22884285E+04</pdfrwt>
<totfact> 0.45885481E+00</totfact>
</mgrwt>
</event>
<event>
 6    1  0.5196787E-004  0.2644472E+04  0.7818608E-02  0.8353250E-01
         -2   -1    0    0    0  501 -0.00000000000E+00  0.00000000000E+00  0.17240461384E+04  0.17240461384E+04  0.00000000000E+00 0. -1.
          2   -1    0    0  501    0  0.00000000000E+00 -0.00000000000E+00 -0.10140728605E+04  0.10140728605E+04  0.00000000000E+00 0.  1.
         23    2    1    2    0    0  0.60600673535E+03  0.11387642694E+04  0.62649196473E+02  0.12948391608E+04  0.93033896380E+02 0.  0.
         11    1    3    3    0    0  0.27379088520E+03  0.61343112445E+03  0.32567580812E+02  0.67254727758E+03  0.00000000000E+00 0. -1.
        -11    1    3    3    0    0  0.33221585015E+03  0.52533314498E+03  0.30081615660E+02  0.62229188321E+03  0.00000000000E+00 0.  1.
         22    1    1    2    0    0 -0.60600673535E+03 -0.11387642694E+04  0.64732408150E+03  0.14432798381E+04  0.00000000000E+00 0.  1.
<mgrwt>
<rscale>  0 0.26444723E+04</rscale>
<asrwt>0</asrwt>
<pdfrwt beam="1">  1        2 0.15601121E+00 0.26444723E+04</pdfrwt>
<pdfrwt beam="2">  1       -2 0.26523787E+00 0.26444723E+04</pdfrwt>
<totfact> 0.11267669E+00</totfact>
</mgrwt>
</event>
<event>
 6    1  0.5196787E-004  0.4424720E+04  0.7818608E-02  0.7923950E-01
         -2   -1    0    0    0  501 -0.00000000000E+00  0.00000000000E+00  0.14832390825E+04  0.14832390825E+04  0.00000000000E+00 0. -1.
          2   -1    0    0  501    0  0.00000000000E+00 -0.00000000000E+00 -0.32998969685E+04  0.32998969685E+04  0.00000000000E+00 0.  1.
         23    2    1    2    0    0  0.18361666873E+04  0.22441750255E+03  0.40118315799E+03  0.18951107368E+04  0.92873351717E+02 0.  0.
         13    1    3    3    0    0  0.98141401149E+03  0.13706397693E+03  0.25893342357E+03  0.10242101901E+04  0.00000000000E+00 0.  1.
        -13    1    3    3    0    0  0.85475267578E+03  0.87353525615E+02  0.14224973443E+03  0.87090054663E+03  0.00000000000E+00 0. -1.
         22    1    1    2    0    0 -0.18361666873E+04 -0.22441750255E+03 -0.22178410440E+04  0.28880253142E+04  0.00000000000E+00 0.  1.
<mgrwt>
<rscale>  0 0.44247197E+04</rscale>
<asrwt>0</asrwt>
<pdfrwt beam="1">  1        2 0.50767645E+00 0.44247197E+04</pdfrwt>
<pdfrwt beam="2">  1       -2 0.22819063E+00 0.44247197E+04</pdfrwt>
<totfact> 0.74437960E-02</totfact>
</mgrwt>
</event>
<event>
 6    1  0.5196787E-004  0.3789668E+04  0.7818608E-02  0.8048376E-01
          2   -1    0    0  501    0  0.00000000000E+00  0.00000000000E+00  0.21822917296E+04  0.21822917296E+04  0.00000000000E+00 0.  1.
         -2   -1    0    0    0  501 -0.00000000000E+00 -0.00000000000E+00 -0.16452411342E+04  0.16452411342E+04  0.00000000000E+00 0. -1.
         23    2    1    2    0    0  0.11266423493E+04 -0.72121228478E+03  0.16225168804E+04  0.21048294073E+04  0.90970674650E+02 0.  0.
         13    1    3    3    0    0  0.36935988932E+03 -0.20145182435E+03  0.55791364739E+03  0.69876834739E+03  0.00000000000E+00 0.  1.
        -13    1    3    3    0    0  0.75728246003E+03 -0.51976046043E+03  0.10646032330E+04  0.14060610599E+04  0.00000000000E+00 0. -1.
         22    1    1    2    0    0 -0.11266423493E+04  0.72121228478E+03 -0.10854662850E+04  0.17227034565E+04  0.00000000000E+00 0. -1.
<mgrwt>
<rscale>  0 0.37896681E+04</rscale>
<asrwt>0</asrwt>
<pdfrwt beam="1">  1        2 0.33573719E+00 0.37896681E+04</pdfrwt>
<pdfrwt beam="2">  1       -2 0.25311402E+00 0.37896681E+04</pdfrwt>
<totfact> 0.26073921E-01</totfact>
</mgrwt>
</event>
<event>
 6    1  0.5196787E-004  0.3395174E+04  0.7818608E-02  0.8139092E-01
          2   -1    0    0  501    0  0.00000000000E+00  0.00000000000E+00  0.13044790981E+04  0.13044790981E+04  0.00000000000E+00 0.  1.
         -2   -1    0    0    0  501 -0.00000000000E+00 -0.00000000000E+00 -0.22091587071E+04  0.22091587071E+04  0.00000000000E+00 0. -1.
         23    2    1    2    0    0  0.11360784234E+04 -0.51174431141E+02 -0.17552473109E+04  0.20935116058E+04  0.92761602378E+02 0.  0.
         11    1    3    3    0    0  0.68667410061E+03 -0.33277598293E+02 -0.97674515405E+03  0.11944286563E+04  0.00000000000E+00 0.  1.
        -11    1    3    3    0    0  0.44940432275E+03 -0.17896832847E+02 -0.77850215684E+03  0.89908294954E+03  0.00000000000E+00 0. -1.
         22    1    1    2    0    0 -0.11360784234E+04  0.51174431141E+02  0.85056770193E+03  0.14201261993E+04  0.00000000000E+00 0.  1.
<mgrwt>
<rscale>  0 0.33951738E+04</rscale>
<asrwt>0</asrwt>
<pdfrwt beam="1">  1        2 0.20068909E+00 0.33951738E+04</pdfrwt>
<pdfrwt beam="2">  1       -2 0.33987057E+00 0.33951738E+04</pdfrwt>
<totfact> 0.24524187E-01</totfact>
</mgrwt>
</event>
<event>
 6    1  0.5196787E-004  0.3729196E+04  0.7818608E-02  0.8061522E-01
          2   -1    0    0  501    0  0.00000000000E+00  0.00000000000E+00  0.15724113070E+04  0.15724113070E+04  0.00000000000E+00 0.  1.
         -2   -1    0    0    0  501 -0.00000000000E+00 -0.00000000000E+00 -0.22110789922E+04  0.22110789922E+04  0.00000000000E+00 0. -1.
         23    2    1    2    0    0  0.11643151396E+04  0.14507210853E+04 -0.43295090197E+03  0.19119826699E+04  0.89497680076E+02 0.  0.
         11    1    3    3    0    0  0.93980174389E+03  0.11606919751E+04 -0.38327253222E+03  0.15418595957E+04  0.00000000000E+00 0.  1.
        -11    1    3    3    0    0  0.22451339575E+03  0.29002911025E+03 -0.49678369747E+02  0.37012307424E+03  0.00000000000E+00 0. -1.
         22    1    1    2    0    0 -0.11643151396E+04 -0.14507210853E+04 -0.20571678321E+03  0.18715076293E+04  0.00000000000E+00 0.  1.
<mgrwt>
<rscale>  0 0.37291959E+04</rscale>
<asrwt>0</asrwt>
<pdfrwt beam="1">  1        2 0.24190943E+00 0.37291959E+04</pdfrwt>
<pdfrwt beam="2">  1       -2 0.34016600E+00 0.37291959E+04</pdfrwt>
<totfact> 0.16712664E-01</totfact>
</mgrwt>
</event>
<event>
 6    1  0.5196787E-004  0.7928774E+03  0.7818608E-02  0.9570384E-01
         -2   -1    0    0    0  501 -0.00000000000E+00  0.00000000000E+00  0.11866492161E+03  0.11866492161E+03  0.00000000000E+00 0. -1.
          2   -1    0    0  501    0  0.00000000000E+00 -0.00000000000E+00 -0.13244323586E+04  0.13244323586E+04  0.00000000000E+00 0.  1.
         23    2    1    2    0    0  0.30007439245E+03 -0.32996748386E+02 -0.15796316711E+03  0.35267203545E+03  0.91059189621E+02 0.  0.
         11    1    3    3    0    0  0.21617746504E+03 -0.42002906024E+02 -0.15298910758E+03  0.26814661576E+03  0.00000000000E+00 0.  1.
        -11    1    3    3    0    0  0.83896927418E+02  0.90061576380E+01 -0.49740595229E+01  0.84525419689E+02  0.00000000000E+00 0. -1.
         22    1    1    2    0    0 -0.30007439245E+03  0.32996748386E+02 -0.10478042699E+04  0.10904252448E+04  0.00000000000E+00 0.  1.
<mgrwt>
<rscale>  0 0.79287745E+03</rscale>
<asrwt>0</asrwt>
<pdfrwt beam="1">  1        2 0.20375885E+00 0.79287745E+03</pdfrwt>
<pdfrwt beam="2">  1       -2 0.18256140E-01 0.79287745E+03</pdfrwt>
<totfact> 0.40337483E+02</totfact>
</mgrwt>
</event>
<event>
 6    1  0.5196787E-004  0.2957825E+04  0.7818608E-02  0.8255878E-01
          2   -1    0    0  501    0  0.00000000000E+00  0.00000000000E+00  0.30420111551E+04  0.30420111551E+04  0.00000000000E+00 0.  1.
         -2   -1    0    0    0  501 -0.00000000000E+00 -0.00000000000E+00 -0.71899220015E+03  0.71899220015E+03  0.00000000000E+00 0. -1.
         23    2    1    2    0    0 -0.25662349246E+03 -0.11910772702E+04  0.10007634784E+03  0.12260488162E+04  0.93057744972E+02 0.  0.
         13    1    3    3    0    0 -0.23979361464E+02 -0.46583921013E+02 -0.86381799995E+01  0.53100749777E+02  0.00000000000E+00 0.  1.
        -13    1    3    3    0    0 -0.23264413100E+03 -0.11444933492E+04  0.10871452784E+03  0.11729480664E+04  0.00000000000E+00 0. -1.
         22    1    1    2    0    0  0.25662349246E+03  0.11910772702E+04  0.22229426071E+04  0.25349545390E+04  0.00000000000E+00 0.  1.
<mgrwt>
<rscale>  0 0.29578251E+04</rscale>
<asrwt>0</asrwt>
<pdfrwt beam="1">  1        2 0.46800171E+00 0.29578251E+04</pdfrwt>
<pdfrwt beam="2">  1       -2 0.11061419E+00 0.29578251E+04</pdfrwt>
<totfact> 0.91162168E-01</totfact>
</mgrwt>
</event>
<event>
 6    1  0.5196787E-004  0.7447991E+03  0.7818608E-02  0.9643545E-01
         -2   -1    0    0    0  501 -0.00000000000E+00  0.00000000000E+00  0.12878573314E+03  0.12878573314E+03  0.00000000000E+00 0.  1.
          2   -1    0    0  501    0  0.00000000000E+00 -0.00000000000E+00 -0.10768385020E+04  0.10768385020E+04  0.00000000000E+00 0. -1.
         23    2    1    2    0    0 -0.16012750036E+03  0.16834101213E+03 -0.21884138521E+02  0.25075888099E+03  0.91769211279E+02 0.  0.
         11    1    3    3    0    0 -0.12935106894E+03  0.95132295387E+02  0.18563779426E+02  0.16163683543E+03  0.00000000000E+00 0. -1.
        -11    1    3    3    0    0 -0.30776431426E+02  0.73208716748E+02 -0.40447917947E+02  0.89122045564E+02  0.00000000000E+00 0.  1.
         22    1    1    2    0    0  0.16012750036E+03 -0.16834101213E+03 -0.92616863034E+03  0.95486535416E+03  0.00000000000E+00 0. -1.
<mgrwt>
<rscale>  0 0.74479913E+03</rscale>
<asrwt>0</asrwt>
<pdfrwt beam="1">  1        2 0.16566746E+00 0.74479913E+03</pdfrwt>
<pdfrwt beam="2">  1       -2 0.19813190E-01 0.74479913E+03</pdfrwt>
<totfact> 0.49180969E+02</totfact>
</mgrwt>
</event>
<event>
 6    1  0.5196787E-004  0.3058757E+04  0.7818608E-02  0.8227149E-01
         -2   -1    0    0    0  501 -0.00000000000E+00  0.00000000000E+00  0.77295728466E+03  0.77295728466E+03  0.00000000000E+00 0. -1.
          2   -1    0    0  501    0  0.00000000000E+00 -0.00000000000E+00 -0.30260382108E+04  0.30260382108E+04  0.00000000000E+00 0.  1.
         23    2    1    2    0    0 -0.75447987296E+03 -0.12555605709E+04 -0.58727362510E+03  0.15807560607E+04  0.90703840852E+02 0.  0.
         11    1    3    3    0    0 -0.29749680476E+03 -0.54162674304E+03 -0.28849063143E+03  0.68197560223E+03  0.00000000000E+00 0. -1.
        -11    1    3    3    0    0 -0.45698306820E+03 -0.71393382785E+03 -0.29878299368E+03  0.89878045844E+03  0.00000000000E+00 0.  1.
         22    1    1    2    0    0  0.75447987296E+03  0.12555605709E+04 -0.16658073011E+04  0.22182394348E+04  0.00000000000E+00 0.  1.
<mgrwt>
<rscale>  0 0.30587568E+04</rscale>
<asrwt>0</asrwt>
<pdfrwt beam="1">  1        2 0.46554434E+00 0.30587568E+04</pdfrwt>
<pdfrwt beam="2">  1       -2 0.11891651E+00 0.30587568E+04</pdfrwt>
<totfact> 0.77526574E-01</totfact>
</mgrwt>
</event>
<event>
 6    1  0.5196787E-004  0.3235097E+04  0.7818608E-02  0.8179609E-01
         -2   -1    0    0    0  501 -0.00000000000E+00  0.00000000000E+00  0.14356461714E+04  0.14356461714E+04  0.00000000000E+00 0. -1.
          2   -1    0    0  501    0  0.00000000000E+00 -0.00000000000E+00 -0.18224989297E+04  0.18224989297E+04  0.00000000000E+00 0.  1.
         23    2    1    2    0    0 -0.12745284054E+04  0.40481194871E+03 -0.11080524499E+04  0.17387951199E+04  0.85632163289E+02 0.  0.
         13    1    3    3    0    0 -0.42978033200E+03  0.15451159255E+03 -0.33111755200E+03  0.56411328583E+03  0.00000000000E+00 0.  1.
        -13    1    3    3    0    0 -0.84474807343E+03  0.25030035616E+03 -0.77693489785E+03  0.11746818341E+04  0.00000000000E+00 0. -1.
         22    1    1    2    0    0  0.12745284054E+04 -0.40481194871E+03  0.72119969159E+03  0.15193499811E+04  0.00000000000E+00 0. -1.
<mgrwt>
<rscale>  0 0.32350973E+04</rscale>
<asrwt>0</asrwt>
<pdfrwt beam="1">  1        2 0.28038445E+00 0.32350973E+04</pdfrwt>
<pdfrwt beam="2">  1       -2 0.22086864E+00 0.32350973E+04</pdfrwt>
<totfact> 0.68705678E-01</totfact>
</mgrwt>
</event>
<event>
 6    1  0.5196787E-004  0.4808263E+03  0.7818608E-02  0.1018908E+00
         -2   -1    0    0    0  501 -0.00000000000E+00  0.00000000000E+00  0.16466512163E+03  0.16466512163E+03  0.00000000000E+00 0. -1.
          2   -1    0    0  501    0  0.00000000000E+00 -0.00000000000E+00 -0.35100617606E+03  0.35100617606E+03  0.00000000000E+00 0.  1.
         23    2    1    2    0    0 -0.37988527806E+01  0.19253094722E+03 -0.23439934695E+03  0.31719662324E+03  0.92671716417E+02 0.  0.
         13    1    3    3    0    0 -0.30364924338E+02  0.10634522366E+03 -0.73645538041E+02  0.13287212085E+03  0.00000000000E+00 0.  1.
        -13    1    3    3    0    0  0.26566071557E+02  0.86185723564E+02 -0.16075380890E+03  0.18432450239E+03  0.00000000000E+00 0. -1.
         22    1    1    2    0    0  0.37988527806E+01 -0.19253094722E+03  0.48058292521E+02  0.19847467445E+03  0.00000000000E+00 0. -1.
<mgrwt>
<rscale>  0 0.48082627E+03</rscale>
<asrwt>0</asrwt>
<pdfrwt beam="1">  1        2 0.54000950E-01 0.48082627E+03</pdfrwt>
<pdfrwt beam="2">  1       -2 0.25333096E-01 0.48082627E+03</pdfrwt>
<totfact> 0.12871859E+03</totfact>
</mgrwt>
</event>
<event>
 6    1  0.5196787E-004  0.4109139E+04  0.7818608E-02  0.7982885E-01
          2   -1    0    0  501    0  0.00000000000E+00  0.00000000000E+00  0.30478129093E+04  0.30478129093E+04  0.00000000000E+00 0.  1.
         -2   -1    0    0    0  501 -0.00000000000E+00 -0.00000000000E+00 -0.13850111369E+04  0.13850111369E+04  0.00000000000E+00 0. -1.
         23    2    1    2    0    0  0.20249905733E+03 -0.11573015668E+04 -0.98520595065E+03  0.15358777772E+04  0.89089822102E+02 0.  0.
         13    1    3    3    0    0  0.14486145877E+02 -0.54350818102E+02 -0.25297553836E+02  0.61675165835E+02  0.00000000000E+00 0. -1.
        -13    1    3    3    0    0  0.18801291146E+03 -0.11029507487E+04 -0.95990839681E+03  0.14742026113E+04  0.00000000000E+00 0.  1.
         22    1    1    2    0    0 -0.20249905733E+03  0.11573015668E+04  0.26480077230E+04  0.28969462691E+04  0.00000000000E+00 0.  1.
<mgrwt>
<rscale>  0 0.41091385E+04</rscale>
<asrwt>0</asrwt>
<pdfrwt beam="1">  1        2 0.46889429E+00 0.41091385E+04</pdfrwt>
<pdfrwt beam="2">  1       -2 0.21307864E+00 0.41091385E+04</pdfrwt>
<totfact> 0.13888285E-01</totfact>
</mgrwt>
</event>
<event>
 6    1  0.5196787E-004  0.2463138E+04  0.7818608E-02  0.8416237E-01
         -2   -1    0    0    0  501 -0.00000000000E+00  0.00000000000E+00  0.79926698059E+03  0.79926698059E+03  0.00000000000E+00 0. -1.
          2   -1    0    0  501    0  0.00000000000E+00 -0.00000000000E+00 -0.18976912101E+04  0.18976912101E+04  0.00000000000E+00 0.  1.
         23    2    1    2    0    0 -0.38809833978E+03  0.66873757558E+03  0.49736168733E+03  0.92372302333E+03  0.89807068076E+02 0.  0.
         11    1    3    3    0    0 -0.17669121340E+03  0.29857334073E+03  0.27639481604E+03  0.44357628320E+03  0.00000000000E+00 0. -1.
        -11    1    3    3    0    0 -0.21140712639E+03  0.37016423485E+03  0.22096687129E+03  0.48014674013E+03  0.00000000000E+00 0.  1.
         22    1    1    2    0    0  0.38809833978E+03 -0.66873757558E+03 -0.15957859168E+04  0.17732351673E+04  0.00000000000E+00 0.  1.
<mgrwt>
<rscale>  0 0.24631378E+04</rscale>
<asrwt>0</asrwt>
<pdfrwt beam="1">  1        2 0.29195249E+00 0.24631378E+04</pdfrwt>
<pdfrwt beam="2">  1       -2 0.12296415E+00 0.24631378E+04</pdfrwt>
<totfact> 0.34042270E+00</totfact>
</mgrwt>
</event>
<event>
 6    1  0.6649137E-004  0.4170430E+04  0.7818608E-02  0.7971021E-01
          2   -1    0    0  501    0  0.00000000000E+00  0.00000000000E+00  0.22511989236E+04  0.22511989236E+04  0.00000000000E+00 0.  1.
         -2   -1    0    0    0  501 -0.00000000000E+00 -0.00000000000E+00 -0.19314695550E+04  0.19314695550E+04  0.00000000000E+00 0. -1.
         23    2    1    2    0    0  0.14009217564E+04  0.64727751357E+03  0.15648940284E+04  0.21997451374E+04  0.91844446714E+02 0.  0.
         13    1    3    3    0    0  0.55199770584E+03  0.23289680908E+03  0.55090356182E+03  0.81390240530E+03  0.00000000000E+00 0.  1.
        -13    1    3    3    0    0  0.84892405057E+03  0.41438070449E+03  0.10139904666E+04  0.13858427321E+04  0.00000000000E+00 0. -1.
         22    1    1    2    0    0 -0.14009217564E+04 -0.64727751357E+03 -0.12451646598E+04  0.19829233412E+04  0.00000000000E+00 0. -1.
<mgrwt>
<rscale>  0 0.41704303E+04</rscale>
<asrwt>0</asrwt>
<pdfrwt beam="1">  1        2 0.34633829E+00 0.41704303E+04</pdfrwt>
<pdfrwt beam="2">  1       -2 0.29714916E+00 0.41704303E+04</pdfrwt>
<totfact> 0.12439548E-01</totfact>
</mgrwt>
</event>
<event>
 6    1  0.5196787E-004  0.1320201E+04  0.7818608E-02  0.9013697E-01
          1   -1    0    0  501    0  0.00000000000E+00  0.00000000000E+00  0.11608815962E+04  0.11608815962E+04  0.00000000000E+00 0.  1.
         -1   -1    0    0    0  501 -0.00000000000E+00 -0.00000000000E+00 -0.37534662714E+03  0.37534662714E+03  0.00000000000E+00 0. -1.
         23    2    1    2    0    0 -0.24530791953E+03  0.55052993000E+03  0.89865603732E+02  0.61578537065E+03  0.88637558400E+02 0.  0.
         13    1    3    3    0    0 -0.40202733959E+02  0.84714920545E+02  0.47334576121E+02  0.10504018125E+03  0.00000000000E+00 0. -1.
        -13    1    3    3    0    0 -0.20510518557E+03  0.46581500946E+03  0.42531027611E+02  0.51074518940E+03  0.00000000000E+00 0.  1.
         22    1    1    2    0    0  0.24530791953E+03 -0.55052993000E+03  0.69566936527E+03  0.92044285265E+03  0.00000000000E+00 0.  1.
<mgrwt>
<rscale>  0 0.13202015E+04</rscale>
<asrwt>0</asrwt>
<pdfrwt beam="1">  1        1 0.17859717E+00 0.13202015E+04</pdfrwt>
<pdfrwt beam="2">  1       -1 0.57745635E-01 0.13202015E+04</pdfrwt>
<totfact> 0.34025290E+01</totfact>
</mgrwt>
</event>
<event>
 6    1  0.5196787E-004  0.4321436E+04  0.7818608E-02  0.7942666E-01
          2   -1    0    0  501    0  0.00000000000E+00  0.00000000000E+00  0.20206490583E+04  0.20206490583E+04  0.00000000000E+00 0.  1.
         -2   -1    0    0    0  501 -0.00000000000E+00 -0.00000000000E+00 -0.23104963426E+04  0.23104963426E+04  0.00000000000E+00 0. -1.
         23    2    1    2    0    0  0.16895681216E+04  0.49119607467E+03 -0.14002661524E+04  0.22505339321E+04  0.90794607761E+02 0.  0.
         11    1    3    3    0    0  0.57923970695E+03  0.12480867198E+03 -0.45902901403E+03  0.74953550845E+03  0.00000000000E+00 0. -1.
        -11    1    3    3    0    0  0.11103284147E+04  0.36638740269E+03 -0.94123713832E+03  0.15009984237E+04  0.00000000000E+00 0.  1.
         22    1    1    2    0    0 -0.16895681216E+04 -0.49119607467E+03  0.11104188681E+04  0.20806114688E+04  0.00000000000E+00 0.  1.
<mgrwt>
<rscale>  0 0.43214360E+04</rscale>
<asrwt>0</asrwt>
<pdfrwt beam="1">  1        2 0.31086909E+00 0.43214360E+04</pdfrwt>
<pdfrwt beam="2">  1       -2 0.35546098E+00 0.43214360E+04</pdfrwt>
<totfact> 0.71864137E-02</totfact>
</mgrwt>
</event>
<event>
 6    1  0.5196787E-004  0.4800152E+04  0.7818608E-02  0.7860097E-01
          2   -1    0    0  501    0  0.00000000000E+00  0.00000000000E+00  0.22540422744E+04  0.22540422744E+04  0.00000000000E+00 0.  1.
         -2   -1    0    0    0  501 -0.00000000000E+00 -0.00000000000E+00 -0.25555711565E+04  0.25555711565E+04  0.00000000000E+00 0. -1.
         23    2    1    2    0    0  0.49676509595E+03 -0.17867388699E+04  0.13742872773E+04  0.23100992481E+04  0.93175457874E+02 0.  0.
         13    1    3    3    0    0  0.16083585110E+03 -0.72737127598E+03  0.52390504322E+03  0.91072149334E+03  0.00000000000E+00 0. -1.
        -13    1    3    3    0    0  0.33592924485E+03 -0.10593675939E+04  0.85038223405E+03  0.13993777548E+04  0.00000000000E+00 0.  1.
         22    1    1    2    0    0 -0.49676509595E+03  0.17867388699E+04 -0.16758161594E+04  0.24995141827E+04  0.00000000000E+00 0. -1.
<mgrwt>
<rscale>  0 0.48001523E+04</rscale>
<asrwt>0</asrwt>
<pdfrwt beam="1">  1        2 0.34677574E+00 0.48001523E+04</pdfrwt>
<pdfrwt beam="2">  1       -2 0.39316479E+00 0.48001523E+04</pdfrwt>
<totfact> 0.29298963E-02</totfact>
</mgrwt>
</event>
<event>
 6    1  0.5196787E-004  0.2445330E+04  0.7818608E-02  0.8422725E-01
          2   -1    0    0  501    0  0.00000000000E+00  0.00000000000E+00  0.21728692706E+04  0.21728692706E+04  0.00000000000E+00 0.  1.
         -2   -1    0    0    0  501 -0.00000000000E+00 -0.00000000000E+00 -0.68798857418E+03  0.68798857418E+03  0.00000000000E+00 0. -1.
         23    2    1    2    0    0  0.10896926852E+04  0.18956389364E+03  0.13902489631E+03  0.11188209758E+04  0.95225186664E+02 0.  0.
         11    1    3    3    0    0  0.50140752052E+03  0.46175444594E+02  0.88068007169E+02  0.51117281540E+03  0.00000000000E+00 0.  1.
        -11    1    3    3    0    0  0.58828516471E+03  0.14338844905E+03  0.50956889144E+02  0.60764816044E+03  0.00000000000E+00 0. -1.
         22    1    1    2    0    0 -0.10896926852E+04 -0.18956389364E+03  0.13458558001E+04  0.17420368689E+04  0.00000000000E+00 0.  1.
<mgrwt>
<rscale>  0 0.24453296E+04</rscale>
<asrwt>0</asrwt>
<pdfrwt beam="1">  1        2 0.33428758E+00 0.24453296E+04</pdfrwt>
<pdfrwt beam="2">  1       -2 0.10584440E+00 0.24453296E+04</pdfrwt>
<totfact> 0.34546869E+00</totfact>
</mgrwt>
</event>
<event>
 6    1  0.5196787E-004  0.3768325E+04  0.7818608E-02  0.8052987E-01
         -2   -1    0    0    0  501 -0.00000000000E+00  0.00000000000E+00  0.15674866322E+04  0.15674866322E+04  0.00000000000E+00 0. -1.
          2   -1    0    0  501    0  0.00000000000E+00 -0.00000000000E+00 -0.22648159771E+04  0.22648159771E+04  0.00000000000E+00 0.  1.
         23    2    1    2    0    0  0.62583193455E+03  0.37545775738E+02  0.14567538412E+04  0.15888343861E+04  0.95852267669E+02 0.  0.
         11    1    3    3    0    0  0.41417403865E+03 -0.56479355933E+01  0.10392623892E+04  0.11187664399E+04  0.00000000000E+00 0.  1.
        -11    1    3    3    0    0  0.21165789591E+03  0.43193711331E+02  0.41749145195E+03  0.47006794621E+03  0.00000000000E+00 0. -1.
         22    1    1    2    0    0 -0.62583193455E+03 -0.37545775738E+02 -0.21540831861E+04  0.22434682231E+04  0.00000000000E+00 0.  1.
<mgrwt>
<rscale>  0 0.37683252E+04</rscale>
<asrwt>0</asrwt>
<pdfrwt beam="1">  1        2 0.34843323E+00 0.37683252E+04</pdfrwt>
<pdfrwt beam="2">  1       -2 0.24115179E+00 0.37683252E+04</pdfrwt>
<totfact> 0.27806860E-01</totfact>
</mgrwt>
</event>
<event>
 6    1  0.5196787E-004  0.3886024E+04  0.7818608E-02  0.8027942E-01
         -2   -1    0    0    0  501 -0.00000000000E+00  0.00000000000E+00  0.12950170825E+04  0.12950170825E+04  0.00000000000E+00 0. -1.
          2   -1    0    0  501    0  0.00000000000E+00 -0.00000000000E+00 -0.29152470808E+04  0.29152470808E+04  0.00000000000E+00 0.  1.
         23    2    1    2    0    0  0.71192022771E+03  0.17286745449E+04 -0.13797730248E+04  0.23253329579E+04  0.90849725218E+02 0.  0.
         13    1    3    3    0    0  0.46553163063E+03  0.11375752568E+04 -0.96009463044E+03  0.15596726783E+04  0.00000000000E+00 0. -1.
        -13    1    3    3    0    0  0.24638859708E+03  0.59109928807E+03 -0.41967839432E+03  0.76566027962E+03  0.00000000000E+00 0.  1.
         22    1    1    2    0    0 -0.71192022771E+03 -0.17286745449E+04 -0.24045697349E+03  0.18849312054E+04  0.00000000000E+00 0. -1.
<mgrwt>
<rscale>  0 0.38860236E+04</rscale>
<asrwt>0</asrwt>
<pdfrwt beam="1">  1        2 0.44849955E+00 0.38860236E+04</pdfrwt>
<pdfrwt beam="2">  1       -2 0.19923340E+00 0.38860236E+04</pdfrwt>
<totfact> 0.21051774E-01</totfact>
</mgrwt>
</event>
<event>
 6    1  0.5196787E-004  0.5338896E+04  0.7818608E-02  0.7778255E-01
          2   -1    0    0  501    0  0.00000000000E+00  0.00000000000E+00  0.29320373631E+04  0.29320373631E+04  0.00000000000E+00 0.  1.
         -2   -1    0    0    0  501 -0.00000000000E+00 -0.00000000000E+00 -0.24303759522E+04  0.24303759522E+04  0.00000000000E+00 0. -1.
         23    2    1    2    0    0  0.16045270796E+03  0.18174243897E+04  0.22071362296E+04  0.28649304142E+04  0.87174871542E+02 0.  0.
         13    1    3    3    0    0  0.16203865888E+03  0.14880246033E+04  0.17871862011E+04  0.23312031795E+04  0.00000000000E+00 0. -1.
        -13    1    3    3    0    0 -0.15859509189E+01  0.32939978644E+03  0.41995002852E+03  0.53372723465E+03  0.00000000000E+00 0.  1.
         22    1    1    2    0    0 -0.16045270796E+03 -0.18174243897E+04 -0.17054748187E+04  0.24974829010E+04  0.00000000000E+00 0. -1.
<mgrwt>
<rscale>  0 0.53388962E+04</rscale>
<asrwt>0</asrwt>
<pdfrwt beam="1">  1        2 0.45108267E+00 0.53388962E+04</pdfrwt>
<pdfrwt beam="2">  1       -2 0.37390399E+00 0.53388962E+04</pdfrwt>
<totfact> 0.14910873E-02</totfact>
</mgrwt>
</event>
<event>
 6    1  0.5196787E-004  0.2778406E+04  0.7818608E-02  0.8310004E-01
         -2   -1    0    0    0  501 -0.00000000000E+00  0.00000000000E+00  0.11884099657E+04  0.11884099657E+04  0.00000000000E+00 0. -1.
          2   -1    0    0  501    0  0.00000000000E+00 -0.00000000000E+00 -0.16239214866E+04  0.16239214866E+04  0.00000000000E+00 0.  1.
         23    2    1    2    0    0  0.58314635322E+03  0.20600796347E+02  0.10563593514E+04  0.12104067468E+04  0.93302472748E+02 0.  0.
         11    1    3    3    0    0  0.21222770138E+03  0.23173483934E+02  0.30268633819E+03  0.37040063029E+03  0.00000000000E+00 0. -1.
        -11    1    3    3    0    0  0.37091865184E+03 -0.25726875872E+01  0.75367301320E+03  0.84000611655E+03  0.00000000000E+00 0.  1.
         22    1    1    2    0    0 -0.58314635322E+03 -0.20600796347E+02 -0.14918708723E+04  0.16019247054E+04  0.00000000000E+00 0.  1.
<mgrwt>
<rscale>  0 0.27784056E+04</rscale>
<asrwt>0</asrwt>
<pdfrwt beam="1">  1        2 0.24983407E+00 0.27784056E+04</pdfrwt>
<pdfrwt beam="2">  1       -2 0.18283230E+00 0.27784056E+04</pdfrwt>
<totfact> 0.16343934E+00</totfact>
</mgrwt>
</event>
<event>
 6    1  0.5196787E-004  0.1265090E+04  0.7818608E-02  0.9057716E-01
          2   -1    0    0  501    0  0.00000000000E+00  0.00000000000E+00  0.20343872256E+04  0.20343872256E+04  0.00000000000E+00 0.  1.
         -2   -1    0    0    0  501 -0.00000000000E+00 -0.00000000000E+00 -0.19667516468E+03  0.19667516468E+03  0.00000000000E+00 0. -1.
         23    2    1    2    0    0 -0.52762314134E+03 -0.32078863120E+03  0.11372486767E+04  0.12972848590E+04  0.91224600600E+02 0.  0.
         11    1    3    3    0    0 -0.48849900214E+03 -0.26698153745E+03  0.99212280319E+03  0.11376370568E+04  0.00000000000E+00 0. -1.
        -11    1    3    3    0    0 -0.39124139200E+02 -0.53807093747E+02  0.14512587346E+03  0.15964780222E+03  0.00000000000E+00 0.  1.
         22    1    1    2    0    0  0.52762314134E+03  0.32078863120E+03  0.70046338431E+03  0.93377753129E+03  0.00000000000E+00 0.  1.
<mgrwt>
<rscale>  0 0.12650904E+04</rscale>
<asrwt>0</asrwt>
<pdfrwt beam="1">  1        2 0.31298264E+00 0.12650904E+04</pdfrwt>
<pdfrwt beam="2">  1       -2 0.30257719E-01 0.12650904E+04</pdfrwt>
<totfact> 0.63464333E+01</totfact>
</mgrwt>
</event>
<event>
 6    1  0.5196787E-004  0.2175552E+04  0.7818608E-02  0.8528673E-01
          2   -1    0    0  501    0  0.00000000000E+00  0.00000000000E+00  0.14658334102E+04  0.14658334102E+04  0.00000000000E+00 0.  1.
         -2   -1    0    0    0  501 -0.00000000000E+00 -0.00000000000E+00 -0.80722420019E+03  0.80722420019E+03  0.00000000000E+00 0. -1.
         23    2    1    2    0    0 -0.49423312050E+03  0.83001176643E+03  0.84807190548E+03  0.12886379728E+04  0.90421005906E+02 0.  0.
         11    1    3    3    0    0 -0.17454320288E+03  0.22674244826E+03  0.21988643547E+03  0.36087049203E+03  0.00000000000E+00 0. -1.
        -11    1    3    3    0    0 -0.31968991762E+03  0.60326931816E+03  0.62818547001E+03  0.92776748078E+03  0.00000000000E+00 0.  1.
         22    1    1    2    0    0  0.49423312050E+03 -0.83001176643E+03 -0.18946269549E+03  0.98441963755E+03  0.00000000000E+00 0.  1.
<mgrwt>
<rscale>  0 0.21755516E+04</rscale>
<asrwt>0</asrwt>
<pdfrwt beam="1">  1        2 0.22551283E+00 0.21755516E+04</pdfrwt>
<pdfrwt beam="2">  1       -2 0.12418834E+00 0.21755516E+04</pdfrwt>
<totfact> 0.59255977E+00</totfact>
</mgrwt>
</event>
<event>
 6    1  0.5196787E-004  0.2843317E+04  0.7818608E-02  0.8289945E-01
          2   -1    0    0  501    0  0.00000000000E+00  0.00000000000E+00  0.29553813609E+04  0.29553813609E+04  0.00000000000E+00 0.  1.
         -2   -1    0    0    0  501 -0.00000000000E+00 -0.00000000000E+00 -0.68387568890E+03  0.68387568890E+03  0.00000000000E+00 0. -1.
         23    2    1    2    0    0 -0.14181546985E+04  0.61355394959E+02  0.11921635827E+04  0.18560277939E+04  0.93048001369E+02 0.  0.
         13    1    3    3    0    0 -0.57474532609E+03  0.60928316573E+02  0.52163495099E+03  0.77855473264E+03  0.00000000000E+00 0. -1.
        -13    1    3    3    0    0 -0.84340937239E+03  0.42707838582E+00  0.67052863174E+03  0.10774730613E+04  0.00000000000E+00 0.  1.
         22    1    1    2    0    0  0.14181546985E+04 -0.61355394959E+02  0.10793420892E+04  0.17832292558E+04  0.00000000000E+00 0. -1.
<mgrwt>
<rscale>  0 0.28433174E+04</rscale>
<asrwt>0</asrwt>
<pdfrwt beam="1">  1        2 0.45467405E+00 0.28433174E+04</pdfrwt>
<pdfrwt beam="2">  1       -2 0.10521165E+00 0.28433174E+04</pdfrwt>
<totfact> 0.11770810E+00</totfact>
</mgrwt>
</event>
<event>
 6    1  0.5196787E-004  0.2522872E+04  0.7818608E-02  0.8394882E-01
         -2   -1    0    0    0  501 -0.00000000000E+00  0.00000000000E+00  0.84260643566E+03  0.84260643566E+03  0.00000000000E+00 0. -1.
          2   -1    0    0  501    0  0.00000000000E+00 -0.00000000000E+00 -0.18884513410E+04  0.18884513410E+04  0.00000000000E+00 0.  1.
         23    2    1    2    0    0  0.49154462565E+02  0.49742443357E+03  0.72820417932E+03  0.88793613577E+03  0.91115454877E+02 0.  0.
         11    1    3    3    0    0  0.15371859259E+02  0.28630943982E+03  0.49109957704E+03  0.56867229926E+03  0.00000000000E+00 0.  1.
        -11    1    3    3    0    0  0.33782603306E+02  0.21111499376E+03  0.23710460228E+03  0.31926383650E+03  0.00000000000E+00 0. -1.
         22    1    1    2    0    0 -0.49154462565E+02 -0.49742443357E+03 -0.17740490847E+04  0.18431216409E+04  0.00000000000E+00 0.  1.
<mgrwt>
<rscale>  0 0.25228724E+04</rscale>
<asrwt>0</asrwt>
<pdfrwt beam="1">  1        2 0.29053097E+00 0.25228724E+04</pdfrwt>
<pdfrwt beam="2">  1       -2 0.12963176E+00 0.25228724E+04</pdfrwt>
<totfact> 0.30011285E+00</totfact>
</mgrwt>
</event>
<event>
 6    1  0.5196787E-004  0.1947416E+04  0.7818608E-02  0.8631608E-01
          2   -1    0    0  501    0  0.00000000000E+00  0.00000000000E+00  0.27719689806E+04  0.27719689806E+04  0.00000000000E+00 0.  1.
         -2   -1    0    0    0  501 -0.00000000000E+00 -0.00000000000E+00 -0.34203371546E+03  0.34203371546E+03  0.00000000000E+00 0. -1.
         23    2    1    2    0    0 -0.56091227568E+03 -0.67953743092E+03  0.18722110397E+04  0.20711939827E+04  0.90976016830E+02 0.  0.
         13    1    3    3    0    0 -0.23303149764E+03 -0.24372746414E+03  0.63097182705E+03  0.71542449091E+03  0.00000000000E+00 0. -1.
        -13    1    3    3    0    0 -0.32788077805E+03 -0.43580996679E+03  0.12412392127E+04  0.13557694918E+04  0.00000000000E+00 0.  1.
         22    1    1    2    0    0  0.56091227568E+03  0.67953743092E+03  0.55772422537E+03  0.10428087133E+04  0.00000000000E+00 0. -1.
<mgrwt>
<rscale>  0 0.19474156E+04</rscale>
<asrwt>0</asrwt>
<pdfrwt beam="1">  1        2 0.42645675E+00 0.19474156E+04</pdfrwt>
<pdfrwt beam="2">  1       -2 0.52620573E-01 0.19474156E+04</pdfrwt>
<totfact> 0.76564360E+00</totfact>
</mgrwt>
</event>
<event>
 6    1  0.5196787E-004  0.3933711E+04  0.7818608E-02  0.8018054E-01
         -2   -1    0    0    0  501 -0.00000000000E+00  0.00000000000E+00  0.13301249547E+04  0.13301249547E+04  0.00000000000E+00 0. -1.
          2   -1    0    0  501    0  0.00000000000E+00 -0.00000000000E+00 -0.29083882929E+04  0.29083882929E+04  0.00000000000E+00 0.  1.
         23    2    1    2    0    0 -0.80710204723E+03 -0.11575783115E+04 -0.22641496505E+04  0.26694876597E+04  0.91594016482E+02 0.  0.
         13    1    3    3    0    0 -0.17127051604E+03 -0.28997698472E+03 -0.59732552992E+03  0.68572445635E+03  0.00000000000E+00 0. -1.
        -13    1    3    3    0    0 -0.63583153119E+03 -0.86760132677E+03 -0.16668241205E+04  0.19837632034E+04  0.00000000000E+00 0.  1.
         22    1    1    2    0    0  0.80710204723E+03  0.11575783115E+04  0.68588631229E+03  0.15690255878E+04  0.00000000000E+00 0. -1.
<mgrwt>
<rscale>  0 0.39337106E+04</rscale>
<asrwt>0</asrwt>
<pdfrwt beam="1">  1        2 0.44744435E+00 0.39337106E+04</pdfrwt>
<pdfrwt beam="2">  1       -2 0.20463461E+00 0.39337106E+04</pdfrwt>
<totfact> 0.19521234E-01</totfact>
</mgrwt>
</event>
<event>
 6    1  0.5196787E-004  0.1482756E+04  0.7818608E-02  0.8896002E-01
          2   -1    0    0  501    0  0.00000000000E+00  0.00000000000E+00  0.18851796996E+04  0.18851796996E+04  0.00000000000E+00 0.  1.
         -2   -1    0    0    0  501 -0.00000000000E+00 -0.00000000000E+00 -0.29155913119E+03  0.29155913119E+03  0.00000000000E+00 0. -1.
         23    2    1    2    0    0 -0.35172286046E+02 -0.40446590587E+03 -0.10597743046E+03  0.42932270505E+03  0.90868094422E+02 0.  0.
         13    1    3    3    0    0  0.36954214030E+01 -0.22288438510E+03 -0.97862917415E+02  0.24345072575E+03  0.00000000000E+00 0.  1.
        -13    1    3    3    0    0 -0.38867707449E+02 -0.18158152077E+03 -0.81145130477E+01  0.18587197930E+03  0.00000000000E+00 0. -1.
         22    1    1    2    0    0  0.35172286046E+02  0.40446590587E+03  0.16995979989E+04  0.17474161258E+04  0.00000000000E+00 0.  1.
<mgrwt>
<rscale>  0 0.14827560E+04</rscale>
<asrwt>0</asrwt>
<pdfrwt beam="1">  1        2 0.29002764E+00 0.14827560E+04</pdfrwt>
<pdfrwt beam="2">  1       -2 0.44855252E-01 0.14827560E+04</pdfrwt>
<totfact> 0.35293057E+01</totfact>
</mgrwt>
</event>
<event>
 6    1  0.5196787E-004  0.2549306E+04  0.7818608E-02  0.8385628E-01
          1   -1    0    0  501    0  0.00000000000E+00  0.00000000000E+00  0.89102695989E+03  0.89102695989E+03  0.00000000000E+00 0.  1.
         -1   -1    0    0    0  501 -0.00000000000E+00 -0.00000000000E+00 -0.18234469033E+04  0.18234469033E+04  0.00000000000E+00 0. -1.
         23    2    1    2    0    0  0.42352199276E+03  0.62163121131E+03 -0.15602494623E+04  0.17346952423E+04  0.94831206766E+02 0.  0.
         11    1    3    3    0    0  0.25581855096E+03  0.35311998989E+03 -0.10053465513E+04  0.10958369160E+04  0.00000000000E+00 0.  1.
        -11    1    3    3    0    0  0.16770344180E+03  0.26851122142E+03 -0.55490291101E+03  0.63885832629E+03  0.00000000000E+00 0. -1.
         22    1    1    2    0    0 -0.42352199276E+03 -0.62163121131E+03  0.62782951888E+03  0.97977862092E+03  0.00000000000E+00 0.  1.
<mgrwt>
<rscale>  0 0.25493061E+04</rscale>
<asrwt>0</asrwt>
<pdfrwt beam="1">  1        1 0.13708107E+00 0.25493061E+04</pdfrwt>
<pdfrwt beam="2">  1       -1 0.28053029E+00 0.25493061E+04</pdfrwt>
<totfact> 0.72298410E-01</totfact>
</mgrwt>
</event>
<event>
 6    1  0.5196787E-004  0.3230429E+04  0.7818608E-02  0.8180827E-01
          2   -1    0    0  501    0  0.00000000000E+00  0.00000000000E+00  0.27762507921E+04  0.27762507921E+04  0.00000000000E+00 0.  1.
         -2   -1    0    0    0  501 -0.00000000000E+00 -0.00000000000E+00 -0.93972698856E+03  0.93972698856E+03  0.00000000000E+00 0. -1.
         23    2    1    2    0    0  0.53229737692E+03  0.11288313844E+04  0.20961707780E+04  0.24412160997E+04  0.89461295063E+02 0.  0.
         11    1    3    3    0    0  0.12264942550E+03  0.35627853803E+03  0.63118829179E+03  0.73510267169E+03  0.00000000000E+00 0. -1.
        -11    1    3    3    0    0  0.40964795142E+03  0.77255284634E+03  0.14649824862E+04  0.17061134281E+04  0.00000000000E+00 0.  1.
         22    1    1    2    0    0 -0.53229737692E+03 -0.11288313844E+04 -0.25964697445E+03  0.12747616809E+04  0.00000000000E+00 0. -1.
<mgrwt>
<rscale>  0 0.32304289E+04</rscale>
<asrwt>0</asrwt>
<pdfrwt beam="1">  1        2 0.42711550E+00 0.32304289E+04</pdfrwt>
<pdfrwt beam="2">  1       -2 0.14457338E+00 0.32304289E+04</pdfrwt>
<totfact> 0.66264756E-01</totfact>
</mgrwt>
</event>
<event>
 6    1  0.5196787E-004  0.1021399E+04  0.7818608E-02  0.9285381E-01
         -2   -1    0    0    0  501 -0.00000000000E+00  0.00000000000E+00  0.18933211800E+03  0.18933211800E+03  0.00000000000E+00 0. -1.
          2   -1    0    0  501    0  0.00000000000E+00 -0.00000000000E+00 -0.13775470126E+04  0.13775470126E+04  0.00000000000E+00 0.  1.
         23    2    1    2    0    0  0.22550708785E+03  0.25876541255E+03 -0.28322355026E+02  0.35726609795E+03  0.94994334289E+02 0.  0.
         13    1    3    3    0    0  0.20851131298E+03  0.18054011409E+03 -0.16018688860E+02  0.27627576591E+03  0.00000000000E+00 0. -1.
        -13    1    3    3    0    0  0.16995774867E+02  0.78225298460E+02 -0.12303666166E+02  0.80990332038E+02  0.00000000000E+00 0.  1.
         22    1    1    2    0    0 -0.22550708785E+03 -0.25876541255E+03 -0.11598925396E+04  0.12096130326E+04  0.00000000000E+00 0.  1.
<mgrwt>
<rscale>  0 0.10213988E+04</rscale>
<asrwt>0</asrwt>
<pdfrwt beam="1">  1        2 0.21193032E+00 0.10213988E+04</pdfrwt>
<pdfrwt beam="2">  1       -2 0.29128017E-01 0.10213988E+04</pdfrwt>
<totfact> 0.16086238E+02</totfact>
</mgrwt>
</event>
<event>
 6    1  0.5196787E-004  0.1715162E+04  0.7818608E-02  0.8752764E-01
         -2   -1    0    0    0  501 -0.00000000000E+00  0.00000000000E+00  0.31693044302E+03  0.31693044302E+03  0.00000000000E+00 0. -1.
          2   -1    0    0  501    0  0.00000000000E+00 -0.00000000000E+00 -0.23205253508E+04  0.23205253508E+04  0.00000000000E+00 0.  1.
         23    2    1    2    0    0 -0.23615563125E+03  0.38589787199E+03 -0.21207607544E+04  0.21701074384E+04  0.83984919341E+02 0.  0.
         11    1    3    3    0    0 -0.26042079076E+02  0.11109768906E+03 -0.50492007675E+03  0.51765352342E+03  0.00000000000E+00 0. -1.
        -11    1    3    3    0    0 -0.21011355217E+03  0.27480018292E+03 -0.16158406777E+04  0.16524539149E+04  0.00000000000E+00 0.  1.
         22    1    1    2    0    0  0.23615563125E+03 -0.38589787199E+03  0.11716584663E+03  0.46734835550E+03  0.00000000000E+00 0. -1.
<mgrwt>
<rscale>  0 0.17151619E+04</rscale>
<asrwt>0</asrwt>
<pdfrwt beam="1">  1        2 0.35700389E+00 0.17151619E+04</pdfrwt>
<pdfrwt beam="2">  1       -2 0.48758531E-01 0.17151619E+04</pdfrwt>
<totfact> 0.16722383E+01</totfact>
</mgrwt>
</event>
<event>
 6    1  0.5196787E-004  0.2598240E+04  0.7818608E-02  0.8368799E-01
          2   -1    0    0  501    0  0.00000000000E+00  0.00000000000E+00  0.13402430681E+04  0.13402430681E+04  0.00000000000E+00 0.  1.
         -2   -1    0    0    0  501 -0.00000000000E+00 -0.00000000000E+00 -0.12592584223E+04  0.12592584223E+04  0.00000000000E+00 0. -1.
         23    2    1    2    0    0 -0.10371742112E+04  0.36494519296E+03  0.72960096865E+03  0.13229363834E+04  0.94486839169E+02 0.  0.
         11    1    3    3    0    0 -0.60874892472E+03  0.20520328415E+03  0.48069111183E+03  0.80233882254E+03  0.00000000000E+00 0. -1.
        -11    1    3    3    0    0 -0.42842528646E+03  0.15974190881E+03  0.24890985682E+03  0.52059756082E+03  0.00000000000E+00 0.  1.
         22    1    1    2    0    0  0.10371742112E+04 -0.36494519296E+03 -0.64861632289E+03  0.12765651070E+04  0.00000000000E+00 0. -1.
<mgrwt>
<rscale>  0 0.25982397E+04</rscale>
<asrwt>0</asrwt>
<pdfrwt beam="1">  1        2 0.20619124E+00 0.25982397E+04</pdfrwt>
<pdfrwt beam="2">  1       -2 0.19373206E+00 0.25982397E+04</pdfrwt>
<totfact> 0.20280640E+00</totfact>
</mgrwt>
</event>
<event>
 6    1  0.5196787E-004  0.2260702E+04  0.7818608E-02  0.8493579E-01
          2   -1    0    0  501    0  0.00000000000E+00  0.00000000000E+00  0.25790796353E+04  0.25790796353E+04  0.00000000000E+00 0.  1.
         -2   -1    0    0    0  501 -0.00000000000E+00 -0.00000000000E+00 -0.49540652975E+03  0.49540652975E+03  0.00000000000E+00 0. -1.
         23    2    1    2    0    0 -0.10585145753E+04  0.33344407772E+03  0.76511507305E+03  0.13510496724E+04  0.91082837358E+02 0.  0.
         11    1    3    3    0    0 -0.77085892936E+03  0.21736677111E+03  0.51090275349E+03  0.94999653983E+03  0.00000000000E+00 0.  1.
        -11    1    3    3    0    0 -0.28765564592E+03  0.11607730661E+03  0.25421231955E+03  0.40105313258E+03  0.00000000000E+00 0. -1.
         22    1    1    2    0    0  0.10585145753E+04 -0.33344407772E+03  0.13185580325E+04  0.17234364926E+04  0.00000000000E+00 0. -1.
<mgrwt>
<rscale>  0 0.22607016E+04</rscale>
<asrwt>0</asrwt>
<pdfrwt beam="1">  1        2 0.39678148E+00 0.22607016E+04</pdfrwt>
<pdfrwt beam="2">  1       -2 0.76216391E-01 0.22607016E+04</pdfrwt>
<totfact> 0.43872026E+00</totfact>
</mgrwt>
</event>
<event>
 6    1  0.5196787E-004  0.2027890E+04  0.7818608E-02  0.8593691E-01
          2   -1    0    0  501    0  0.00000000000E+00  0.00000000000E+00  0.15931038043E+04  0.15931038043E+04  0.00000000000E+00 0.  1.
         -2   -1    0    0    0  501 -0.00000000000E+00 -0.00000000000E+00 -0.64533430064E+03  0.64533430064E+03  0.00000000000E+00 0. -1.
         23    2    1    2    0    0 -0.45971320127E+03 -0.80673191640E+02 -0.51632570623E+03  0.70174712269E+03  0.89511999283E+02 0.  0.
         13    1    3    3    0    0 -0.42145322754E+03 -0.74640570857E+02 -0.42795032066E+03  0.60525656938E+03  0.00000000000E+00 0. -1.
        -13    1    3    3    0    0 -0.38259973731E+02 -0.60326207825E+01 -0.88375385576E+02  0.96490553315E+02  0.00000000000E+00 0.  1.
         22    1    1    2    0    0  0.45971320127E+03  0.80673191640E+02  0.14640952099E+04  0.15366909823E+04  0.00000000000E+00 0.  1.
<mgrwt>
<rscale>  0 0.20278901E+04</rscale>
<asrwt>0</asrwt>
<pdfrwt beam="1">  1        2 0.24509289E+00 0.20278901E+04</pdfrwt>
<pdfrwt beam="2">  1       -2 0.99282201E-01 0.20278901E+04</pdfrwt>
<totfact> 0.87639752E+00</totfact>
</mgrwt>
</event>
<event>
 6    1  0.5196787E-004  0.2446529E+04  0.7818608E-02  0.8422286E-01
          2   -1    0    0  501    0  0.00000000000E+00  0.00000000000E+00  0.15688672723E+04  0.15688672723E+04  0.00000000000E+00 0.  1.
         -2   -1    0    0    0  501 -0.00000000000E+00 -0.00000000000E+00 -0.95379429148E+03  0.95379429148E+03  0.00000000000E+00 0. -1.
         23    2    1    2    0    0  0.63843923088E+03 -0.10160278150E+04  0.54412557895E+03  0.13206005394E+04  0.89420169296E+02 0.  0.
         11    1    3    3    0    0  0.38769357765E+03 -0.54921211160E+03  0.27579935056E+03  0.72663989393E+03  0.00000000000E+00 0.  1.
        -11    1    3    3    0    0  0.25074565323E+03 -0.46681570342E+03  0.26832622839E+03  0.59396064551E+03  0.00000000000E+00 0. -1.
         22    1    1    2    0    0 -0.63843923088E+03  0.10160278150E+04  0.70947401868E+02  0.12020610243E+04  0.00000000000E+00 0.  1.
<mgrwt>
<rscale>  0 0.24465295E+04</rscale>
<asrwt>0</asrwt>
<pdfrwt beam="1">  1        2 0.24136420E+00 0.24465295E+04</pdfrwt>
<pdfrwt beam="2">  1       -2 0.14673758E+00 0.24465295E+04</pdfrwt>
<totfact> 0.33030986E+00</totfact>
</mgrwt>
</event>
<event>
 6    1  0.5196787E-004  0.2343387E+04  0.7818608E-02  0.8461008E-01
         -2   -1    0    0    0  501 -0.00000000000E+00  0.00000000000E+00  0.12148506187E+04  0.12148506187E+04  0.00000000000E+00 0. -1.
          2   -1    0    0  501    0  0.00000000000E+00 -0.00000000000E+00 -0.11300694820E+04  0.11300694820E+04  0.00000000000E+00 0.  1.
         23    2    1    2    0    0 -0.36733325466E+03  0.61750337773E+03 -0.88146227873E+03  0.11408144245E+04  0.90761560088E+02 0.  0.
         11    1    3    3    0    0 -0.23915523464E+03  0.33947827279E+03 -0.55642888409E+03  0.69430096284E+03  0.00000000000E+00 0. -1.
        -11    1    3    3    0    0 -0.12817802002E+03  0.27802510494E+03 -0.32503339464E+03  0.44651346164E+03  0.00000000000E+00 0.  1.
         22    1    1    2    0    0  0.36733325466E+03 -0.61750337773E+03  0.96624341552E+03  0.12041056762E+04  0.00000000000E+00 0. -1.
<mgrwt>
<rscale>  0 0.23433870E+04</rscale>
<asrwt>0</asrwt>
<pdfrwt beam="1">  1        2 0.17385684E+00 0.23433870E+04</pdfrwt>
<pdfrwt beam="2">  1       -2 0.18690009E+00 0.23433870E+04</pdfrwt>
<totfact> 0.30675383E+00</totfact>
</mgrwt>
</event>
<event>
 6    1  0.5780051E-004  0.2654057E+04  0.7818608E-02  0.8350068E-01
          2   -1    0    0  501    0  0.00000000000E+00  0.00000000000E+00  0.12413136734E+04  0.12413136734E+04  0.00000000000E+00 0.  1.
         -2   -1    0    0    0  501 -0.00000000000E+00 -0.00000000000E+00 -0.14186617863E+04  0.14186617863E+04  0.00000000000E+00 0. -1.
         23    2    1    2    0    0  0.81496083109E+03 -0.94458854187E+03  0.35996190430E+03  0.13016269315E+04  0.90837363153E+02 0.  0.
         11    1    3    3    0    0  0.18526920809E+03 -0.26612661395E+03  0.71263065004E+02  0.33200373274E+03  0.00000000000E+00 0. -1.
        -11    1    3    3    0    0  0.62969162300E+03 -0.67846192793E+03  0.28869883930E+03  0.96962319874E+03  0.00000000000E+00 0.  1.
         22    1    1    2    0    0 -0.81496083109E+03  0.94458854187E+03 -0.53731001716E+03  0.13583485282E+04  0.00000000000E+00 0. -1.
<mgrwt>
<rscale>  0 0.26540567E+04</rscale>
<asrwt>0</asrwt>
<pdfrwt beam="1">  1        2 0.19097133E+00 0.26540567E+04</pdfrwt>
<pdfrwt beam="2">  1       -2 0.21825566E+00 0.26540567E+04</pdfrwt>
<totfact> 0.15980151E+00</totfact>
</mgrwt>
</event>
<event>
 6    1  0.5196787E-004  0.1551720E+04  0.7818608E-02  0.8850770E-01
          2   -1    0    0  501    0  0.00000000000E+00  0.00000000000E+00  0.97766017962E+03  0.97766017962E+03  0.00000000000E+00 0.  1.
         -2   -1    0    0    0  501 -0.00000000000E+00 -0.00000000000E+00 -0.61571357153E+03  0.61571357153E+03  0.00000000000E+00 0. -1.
         23    2    1    2    0    0  0.12473099373E+03  0.66669916316E+03  0.56291820911E+03  0.88595931861E+03  0.89450596006E+02 0.  0.
         11    1    3    3    0    0  0.14087747752E+02  0.27115294804E+03  0.19211691299E+03  0.33261282916E+03  0.00000000000E+00 0.  1.
        -11    1    3    3    0    0  0.11064324598E+03  0.39554621513E+03  0.37080129612E+03  0.55334648945E+03  0.00000000000E+00 0. -1.
         22    1    1    2    0    0 -0.12473099373E+03 -0.66669916316E+03 -0.20097160101E+03  0.70741443254E+03  0.00000000000E+00 0. -1.
<mgrwt>
<rscale>  0 0.15517199E+04</rscale>
<asrwt>0</asrwt>
<pdfrwt beam="1">  1        2 0.15040926E+00 0.15517199E+04</pdfrwt>
<pdfrwt beam="2">  1       -2 0.94725165E-01 0.15517199E+04</pdfrwt>
<totfact> 0.23522984E+01</totfact>
</mgrwt>
</event>
<event>
 6    1  0.5196787E-004  0.2190478E+04  0.7818608E-02  0.8522402E-01
         -2   -1    0    0    0  501 -0.00000000000E+00  0.00000000000E+00  0.10797570463E+04  0.10797570463E+04  0.00000000000E+00 0. -1.
          2   -1    0    0  501    0  0.00000000000E+00 -0.00000000000E+00 -0.11109425277E+04  0.11109425277E+04  0.00000000000E+00 0.  1.
         23    2    1    2    0    0  0.97505970324E+03  0.33110611074E+02 -0.50915030630E+03  0.11042889189E+04  0.91554599073E+02 0.  0.
         13    1    3    3    0    0  0.18059030906E+03  0.82889236311E+01 -0.13586433187E+03  0.22614305794E+03  0.00000000000E+00 0.  1.
        -13    1    3    3    0    0  0.79446939418E+03  0.24821687443E+02 -0.37328597443E+03  0.87814586098E+03  0.00000000000E+00 0. -1.
         22    1    1    2    0    0 -0.97505970324E+03 -0.33110611074E+02  0.47796482491E+03  0.10864106550E+04  0.00000000000E+00 0. -1.
<mgrwt>
<rscale>  0 0.21904776E+04</rscale>
<asrwt>0</asrwt>
<pdfrwt beam="1">  1        2 0.17091423E+00 0.21904776E+04</pdfrwt>
<pdfrwt beam="2">  1       -2 0.16611647E+00 0.21904776E+04</pdfrwt>
<totfact> 0.44588378E+00</totfact>
</mgrwt>
</event>
<event>
 6    1  0.5196787E-004  0.1494201E+04  0.7818608E-02  0.8888318E-01
          2   -1    0    0  501    0  0.00000000000E+00  0.00000000000E+00  0.56228428055E+03  0.56228428055E+03  0.00000000000E+00 0.  1.
         -2   -1    0    0    0  501 -0.00000000000E+00 -0.00000000000E+00 -0.99266370879E+03  0.99266370879E+03  0.00000000000E+00 0. -1.
         23    2    1    2    0    0  0.69698814251E+03  0.98865344824E+01  0.55553660266E+02  0.70522969434E+03  0.91501356530E+02 0.  0.
         11    1    3    3    0    0  0.54212254026E+03  0.19014434360E+02  0.63971910079E+01  0.54249361418E+03  0.00000000000E+00 0. -1.
        -11    1    3    3    0    0  0.15486560225E+03 -0.91278998776E+01  0.49156469258E+02  0.16273608016E+03  0.00000000000E+00 0.  1.
         22    1    1    2    0    0 -0.69698814251E+03 -0.98865344824E+01 -0.48593308850E+03  0.84971829500E+03  0.00000000000E+00 0. -1.
<mgrwt>
<rscale>  0 0.14942011E+04</rscale>
<asrwt>0</asrwt>
<pdfrwt beam="1">  1        2 0.86505274E-01 0.14942011E+04</pdfrwt>
<pdfrwt beam="2">  1       -2 0.15271749E+00 0.14942011E+04</pdfrwt>
<totfact> 0.14793251E+01</totfact>
</mgrwt>
</event>
<event>
 6    1  0.5196787E-004  0.2078406E+04  0.7818608E-02  0.8570816E-01
         -2   -1    0    0    0  501 -0.00000000000E+00  0.00000000000E+00  0.44583090392E+03  0.44583090392E+03  0.00000000000E+00 0. -1.
          2   -1    0    0  501    0  0.00000000000E+00 -0.00000000000E+00 -0.24223161197E+04  0.24223161197E+04  0.00000000000E+00 0.  1.
         23    2    1    2    0    0  0.33960525360E+02 -0.10095840506E+04 -0.66569259187E+03  0.12132782749E+04  0.92110113503E+02 0.  0.
         11    1    3    3    0    0  0.40682606412E+02 -0.32250838415E+03 -0.25137411832E+03  0.41092052720E+03  0.00000000000E+00 0. -1.
        -11    1    3    3    0    0 -0.67220810523E+01 -0.68707566646E+03 -0.41431847355E+03  0.80235774773E+03  0.00000000000E+00 0.  1.
         22    1    1    2    0    0 -0.33960525360E+02  0.10095840506E+04 -0.13107926239E+04  0.16548687487E+04  0.00000000000E+00 0.  1.
<mgrwt>
<rscale>  0 0.20784065E+04</rscale>
<asrwt>0</asrwt>
<pdfrwt beam="1">  1        2 0.37266402E+00 0.20784065E+04</pdfrwt>
<pdfrwt beam="2">  1       -2 0.68589369E-01 0.20784065E+04</pdfrwt>
<totfact> 0.69263448E+00</totfact>
</mgrwt>
</event>
<event>
 6    1  0.5196787E-004  0.1442430E+04  0.7818608E-02  0.8923665E-01
          2   -1    0    0  501    0  0.00000000000E+00  0.00000000000E+00  0.13255469102E+04  0.13255469102E+04  0.00000000000E+00 0.  1.
         -2   -1    0    0    0  501 -0.00000000000E+00 -0.00000000000E+00 -0.39240506316E+03  0.39240506316E+03  0.00000000000E+00 0. -1.
         23    2    1    2    0    0  0.42223363959E+03 -0.41025911731E+03 -0.21756391224E+02  0.59615678922E+03  0.91300531423E+02 0.  0.
         11    1    3    3    0    0  0.15027692780E+03 -0.97951075326E+02  0.17216049959E+02  0.18020532889E+03  0.00000000000E+00 0.  1.
        -11    1    3    3    0    0  0.27195671180E+03 -0.31230804198E+03 -0.38972441183E+02  0.41595146033E+03  0.00000000000E+00 0. -1.
         22    1    1    2    0    0 -0.42223363959E+03  0.41025911731E+03  0.95489823829E+03  0.11217951842E+04  0.00000000000E+00 0.  1.
<mgrwt>
<rscale>  0 0.14424303E+04</rscale>
<asrwt>0</asrwt>
<pdfrwt beam="1">  1        2 0.20393029E+00 0.14424303E+04</pdfrwt>
<pdfrwt beam="2">  1       -2 0.60370010E-01 0.14424303E+04</pdfrwt>
<totfact> 0.39623050E+01</totfact>
</mgrwt>
</event>
<event>
 6    1  0.5196787E-004  0.1580585E+04  0.7818608E-02  0.8832565E-01
         -2   -1    0    0    0  501 -0.00000000000E+00  0.00000000000E+00  0.35915662731E+03  0.35915662731E+03  0.00000000000E+00 0. -1.
          2   -1    0    0  501    0  0.00000000000E+00 -0.00000000000E+00 -0.17389698118E+04  0.17389698118E+04  0.00000000000E+00 0.  1.
         23    2    1    2    0    0 -0.60036410537E+03 -0.44635790742E+03 -0.36620707089E+03  0.83833685586E+03  0.95019074864E+02 0.  0.
         13    1    3    3    0    0 -0.30407451626E+03 -0.16735937205E+03 -0.17384885749E+03  0.38819311702E+03  0.00000000000E+00 0. -1.
        -13    1    3    3    0    0 -0.29628958911E+03 -0.27899853537E+03 -0.19235821341E+03  0.45014373884E+03  0.00000000000E+00 0.  1.
         22    1    1    2    0    0  0.60036410537E+03  0.44635790742E+03 -0.10136061135E+04  0.12597895832E+04  0.00000000000E+00 0.  1.
<mgrwt>
<rscale>  0 0.15805854E+04</rscale>
<asrwt>0</asrwt>
<pdfrwt beam="1">  1        2 0.26753382E+00 0.15805854E+04</pdfrwt>
<pdfrwt beam="2">  1       -2 0.55254864E-01 0.15805854E+04</pdfrwt>
<totfact> 0.27585142E+01</totfact>
</mgrwt>
</event>
<event>
 6    1  0.5196787E-004  0.2402239E+04  0.7818608E-02  0.8438666E-01
          2   -1    0    0  501    0  0.00000000000E+00  0.00000000000E+00  0.26217126495E+04  0.26217126495E+04  0.00000000000E+00 0.  1.
         -2   -1    0    0    0  501 -0.00000000000E+00 -0.00000000000E+00 -0.55028462164E+03  0.55028462164E+03  0.00000000000E+00 0. -1.
         23    2    1    2    0    0  0.29633329860E+03 -0.58459674777E+03 -0.28909029190E+03  0.72217819226E+03  0.91658950118E+02 0.  0.
         11    1    3    3    0    0  0.87523535025E+02 -0.12476148381E+03 -0.32990846544E+02  0.15593009004E+03  0.00000000000E+00 0. -1.
        -11    1    3    3    0    0  0.20880976357E+03 -0.45983526396E+03 -0.25609944536E+03  0.56624810221E+03  0.00000000000E+00 0.  1.
         22    1    1    2    0    0 -0.29633329860E+03  0.58459674777E+03  0.23605183197E+04  0.24498190789E+04  0.00000000000E+00 0.  1.
<mgrwt>
<rscale>  0 0.24022391E+04</rscale>
<asrwt>0</asrwt>
<pdfrwt beam="1">  1        2 0.40334040E+00 0.24022391E+04</pdfrwt>
<pdfrwt beam="2">  1       -2 0.84659174E-01 0.24022391E+04</pdfrwt>
<totfact> 0.32304165E+00</totfact>
</mgrwt>
</event>
<event>
 6    1  0.5196787E-004  0.2765917E+04  0.7818608E-02  0.8313929E-01
         -2   -1    0    0    0  501 -0.00000000000E+00  0.00000000000E+00  0.88915868850E+03  0.88915868850E+03  0.00000000000E+00 0. -1.
          2   -1    0    0  501    0  0.00000000000E+00 -0.00000000000E+00 -0.21509924627E+04  0.21509924627E+04  0.00000000000E+00 0.  1.
         23    2    1    2    0    0 -0.80514191988E+03  0.88580645552E+03  0.12626849376E+03  0.12071932973E+04  0.92007264886E+02 0.  0.
         11    1    3    3    0    0 -0.24287769981E+03  0.25151546902E+03  0.77747268337E+02  0.35818186157E+03  0.00000000000E+00 0.  1.
        -11    1    3    3    0    0 -0.56226422007E+03  0.63429098650E+03  0.48521225422E+02  0.84901143575E+03  0.00000000000E+00 0. -1.
         22    1    1    2    0    0  0.80514191988E+03 -0.88580645552E+03 -0.13881022680E+04  0.18329578539E+04  0.00000000000E+00 0.  1.
<mgrwt>
<rscale>  0 0.27659166E+04</rscale>
<asrwt>0</asrwt>
<pdfrwt beam="1">  1        2 0.33092191E+00 0.27659166E+04</pdfrwt>
<pdfrwt beam="2">  1       -2 0.13679365E+00 0.27659166E+04</pdfrwt>
<totfact> 0.18309744E+00</totfact>
</mgrwt>
</event>
<event>
 6    1  0.5196787E-004  0.3367666E+04  0.7818608E-02  0.8145888E-01
         -2   -1    0    0    0  501 -0.00000000000E+00  0.00000000000E+00  0.16561025212E+04  0.16561025212E+04  0.00000000000E+00 0. -1.
          2   -1    0    0  501    0  0.00000000000E+00 -0.00000000000E+00 -0.17120281691E+04  0.17120281691E+04  0.00000000000E+00 0.  1.
         23    2    1    2    0    0 -0.76313860880E+03 -0.60311765787E+03 -0.14011224030E+04  0.17081048605E+04  0.91360717878E+02 0.  0.
         13    1    3    3    0    0 -0.22459190823E+03 -0.12768480029E+03 -0.38761506719E+03  0.46582225557E+03  0.00000000000E+00 0.  1.
        -13    1    3    3    0    0 -0.53854670058E+03 -0.47543285759E+03 -0.10135073359E+04  0.12422826050E+04  0.00000000000E+00 0. -1.
         22    1    1    2    0    0  0.76313860880E+03  0.60311765787E+03  0.13451967552E+04  0.16600258298E+04  0.00000000000E+00 0. -1.
<mgrwt>
<rscale>  0 0.33676664E+04</rscale>
<asrwt>0</asrwt>
<pdfrwt beam="1">  1        2 0.26338895E+00 0.33676664E+04</pdfrwt>
<pdfrwt beam="2">  1       -2 0.25478500E+00 0.33676664E+04</pdfrwt>
<totfact> 0.48172310E-01</totfact>
</mgrwt>
</event>
<event>
 6    1  0.5196787E-004  0.4045669E+04  0.7818608E-02  0.7995397E-01
         -2   -1    0    0    0  501 -0.00000000000E+00  0.00000000000E+00  0.16358595351E+04  0.16358595351E+04  0.00000000000E+00 0. -1.
          2   -1    0    0  501    0  0.00000000000E+00 -0.00000000000E+00 -0.25013507184E+04  0.25013507184E+04  0.00000000000E+00 0.  1.
         23    2    1    2    0    0 -0.11894873183E+04 -0.41787436722E+03  0.11839341742E+04  0.17310424782E+04  0.72861959591E+02 0.  0.
         13    1    3    3    0    0 -0.33699060562E+03 -0.87156048872E+02  0.34554507343E+03  0.49046941077E+03  0.00000000000E+00 0. -1.
        -13    1    3    3    0    0 -0.85249671269E+03 -0.33071831835E+03  0.83838910075E+03  0.12405730674E+04  0.00000000000E+00 0.  1.
         22    1    1    2    0    0  0.11894873183E+04  0.41787436722E+03 -0.20494253575E+04  0.24061677754E+04  0.00000000000E+00 0.  1.
<mgrwt>
<rscale>  0 0.40456685E+04</rscale>
<asrwt>0</asrwt>
<pdfrwt beam="1">  1        2 0.38482319E+00 0.40456685E+04</pdfrwt>
<pdfrwt beam="2">  1       -2 0.25167070E+00 0.40456685E+04</pdfrwt>
<totfact> 0.17140528E-01</totfact>
</mgrwt>
</event>
<event>
 6    1  0.5196787E-004  0.1688414E+04  0.7818608E-02  0.8768000E-01
         -2   -1    0    0    0  501 -0.00000000000E+00  0.00000000000E+00  0.87962171112E+03  0.87962171112E+03  0.00000000000E+00 0. -1.
          2   -1    0    0  501    0  0.00000000000E+00 -0.00000000000E+00 -0.81021801034E+03  0.81021801034E+03  0.00000000000E+00 0.  1.
         23    2    1    2    0    0 -0.18271799405E+03 -0.81540351924E+03  0.13612174495E+03  0.85155572308E+03  0.91374260742E+02 0.  0.
         11    1    3    3    0    0 -0.12098637376E+03 -0.67658151467E+03  0.13002540510E+03  0.69950472093E+03  0.00000000000E+00 0. -1.
        -11    1    3    3    0    0 -0.61731620290E+02 -0.13882200457E+03  0.60963398510E+01  0.15205100215E+03  0.00000000000E+00 0.  1.
         22    1    1    2    0    0  0.18271799405E+03  0.81540351924E+03 -0.66718044169E+02  0.83828399839E+03  0.00000000000E+00 0.  1.
<mgrwt>
<rscale>  0 0.16884139E+04</rscale>
<asrwt>0</asrwt>
<pdfrwt beam="1">  1        2 0.12464892E+00 0.16884139E+04</pdfrwt>
<pdfrwt beam="2">  1       -2 0.13532642E+00 0.16884139E+04</pdfrwt>
<totfact> 0.12643636E+01</totfact>
</mgrwt>
</event>
<event>
 6    1  0.5196787E-004  0.2833590E+04  0.7818608E-02  0.8292915E-01
          2   -1    0    0  501    0  0.00000000000E+00  0.00000000000E+00  0.25543324109E+04  0.25543324109E+04  0.00000000000E+00 0. -1.
         -2   -1    0    0    0  501 -0.00000000000E+00 -0.00000000000E+00 -0.78584444333E+03  0.78584444333E+03  0.00000000000E+00 0.  1.
         23    2    1    2    0    0 -0.12502316239E+04  0.61940129868E+03  0.11652380849E+04  0.18200954409E+04  0.90722309649E+02 0.  0.
         11    1    3    3    0    0 -0.88500570560E+03  0.40287851450E+03  0.77564512175E+03  0.12438535088E+04  0.00000000000E+00 0.  1.
        -11    1    3    3    0    0 -0.36522591828E+03  0.21652278418E+03  0.38959296311E+03  0.57624193214E+03  0.00000000000E+00 0. -1.
         22    1    1    2    0    0  0.12502316239E+04 -0.61940129868E+03  0.60324988273E+03  0.15200814133E+04  0.00000000000E+00 0.  1.
<mgrwt>
<rscale>  0 0.28335899E+04</rscale>
<asrwt>0</asrwt>
<pdfrwt beam="1">  1        2 0.39297421E+00 0.28335899E+04</pdfrwt>
<pdfrwt beam="2">  1       -2 0.12089915E+00 0.28335899E+04</pdfrwt>
<totfact> 0.14635450E+00</totfact>
</mgrwt>
</event>
<event>
 6    1  0.5196787E-004  0.3101411E+04  0.7818608E-02  0.8215351E-01
          2   -1    0    0  501    0  0.00000000000E+00  0.00000000000E+00  0.14795056404E+04  0.14795056404E+04  0.00000000000E+00 0.  1.
         -2   -1    0    0    0  501 -0.00000000000E+00 -0.00000000000E+00 -0.16253315871E+04  0.16253315871E+04  0.00000000000E+00 0. -1.
         23    2    1    2    0    0  0.13756681705E+04 -0.71102652909E+03 -0.12626853903E+03  0.15561590386E+04  0.87553236403E+02 0.  0.
         13    1    3    3    0    0  0.54510610224E+03 -0.23385619386E+03 -0.48912808142E+02  0.59516539290E+03  0.00000000000E+00 0. -1.
        -13    1    3    3    0    0  0.83056206824E+03 -0.47717033523E+03 -0.77355730887E+02  0.96099364573E+03  0.00000000000E+00 0.  1.
         22    1    1    2    0    0 -0.13756681705E+04  0.71102652909E+03 -0.19557407703E+02  0.15486781888E+04  0.00000000000E+00 0.  1.
<mgrwt>
<rscale>  0 0.31014108E+04</rscale>
<asrwt>0</asrwt>
<pdfrwt beam="1">  1        2 0.22761625E+00 0.31014108E+04</pdfrwt>
<pdfrwt beam="2">  1       -2 0.25005101E+00 0.31014108E+04</pdfrwt>
<totfact> 0.71073130E-01</totfact>
</mgrwt>
</event>
<event>
 6    1  0.5196787E-004  0.7432791E+03  0.7818608E-02  0.9645954E-01
         -2   -1    0    0    0  501 -0.00000000000E+00  0.00000000000E+00  0.72071246119E+02  0.72071246119E+02  0.00000000000E+00 0. -1.
          2   -1    0    0  501    0  0.00000000000E+00 -0.00000000000E+00 -0.19163806159E+04  0.19163806159E+04  0.00000000000E+00 0.  1.
         23    2    1    2    0    0  0.38102787229E+02  0.28244836841E+03 -0.32039617277E+03  0.43811630632E+03  0.89795807979E+02 0.  0.
         11    1    3    3    0    0 -0.24040193755E+02  0.11027307188E+03 -0.93303589460E+02  0.14643647463E+03  0.00000000000E+00 0. -1.
        -11    1    3    3    0    0  0.62142980984E+02  0.17217529654E+03 -0.22709258330E+03  0.29167983169E+03  0.00000000000E+00 0.  1.
         22    1    1    2    0    0 -0.38102787229E+02 -0.28244836841E+03 -0.15239131970E+04  0.15503355557E+04  0.00000000000E+00 0.  1.
<mgrwt>
<rscale>  0 0.74327906E+03</rscale>
<asrwt>0</asrwt>
<pdfrwt beam="1">  1        2 0.29482776E+00 0.74327906E+03</pdfrwt>
<pdfrwt beam="2">  1       -2 0.11087885E-01 0.74327906E+03</pdfrwt>
<totfact> 0.44057147E+02</totfact>
</mgrwt>
</event>
<event>
 6    1  0.5196787E-004  0.4080548E+04  0.7818608E-02  0.7988492E-01
         -2   -1    0    0    0  501 -0.00000000000E+00  0.00000000000E+00  0.17067562314E+04  0.17067562314E+04  0.00000000000E+00 0. -1.
          2   -1    0    0  501    0  0.00000000000E+00 -0.00000000000E+00 -0.24389646405E+04  0.24389646405E+04  0.00000000000E+00 0.  1.
         23    2    1    2    0    0 -0.28061531466E+02 -0.19975107740E+04  0.50572499592E+02  0.20001247560E+04  0.84289499700E+02 0.  0.
         13    1    3    3    0    0 -0.73347542664E+01 -0.29162067938E+03  0.37040123650E+02  0.29405507992E+03  0.00000000000E+00 0. -1.
        -13    1    3    3    0    0 -0.20726777200E+02 -0.17058900946E+04  0.13532375942E+02  0.17060696760E+04  0.00000000000E+00 0.  1.
         22    1    1    2    0    0  0.28061531466E+02  0.19975107740E+04 -0.78278090870E+03  0.21455961160E+04  0.00000000000E+00 0.  1.
<mgrwt>
<rscale>  0 0.40805481E+04</rscale>
<asrwt>0</asrwt>
<pdfrwt beam="1">  1        2 0.37522533E+00 0.40805481E+04</pdfrwt>
<pdfrwt beam="2">  1       -2 0.26257788E+00 0.40805481E+04</pdfrwt>
<totfact> 0.15922564E-01</totfact>
</mgrwt>
</event>
<event>
 6    1  0.8487304E-004  0.2739229E+04  0.7818608E-02  0.8322388E-01
         -2   -1    0    0    0  501 -0.00000000000E+00  0.00000000000E+00  0.15134640874E+04  0.15134640874E+04  0.00000000000E+00 0. -1.
          2   -1    0    0  501    0  0.00000000000E+00 -0.00000000000E+00 -0.12394376158E+04  0.12394376158E+04  0.00000000000E+00 0.  1.
         23    2    1    2    0    0 -0.76091292323E+03  0.18575038260E+03 -0.99021932635E+03  0.12656864804E+04  0.89085750356E+02 0.  0.
         13    1    3    3    0    0 -0.29663000241E+03  0.35210837560E+02 -0.33832562898E+03  0.45132404394E+03  0.00000000000E+00 0.  1.
        -13    1    3    3    0    0 -0.46428292082E+03  0.15053954504E+03 -0.65189369737E+03  0.81436243642E+03  0.00000000000E+00 0. -1.
         22    1    1    2    0    0  0.76091292323E+03 -0.18575038260E+03  0.12642457979E+04  0.14872152228E+04  0.00000000000E+00 0. -1.
<mgrwt>
<rscale>  0 0.27392293E+04</rscale>
<asrwt>0</asrwt>
<pdfrwt beam="1">  1        2 0.19068271E+00 0.27392293E+04</pdfrwt>
<pdfrwt beam="2">  1       -2 0.23284063E+00 0.27392293E+04</pdfrwt>
<totfact> 0.12878571E+00</totfact>
</mgrwt>
</event>
<event>
 6    1  0.5196787E-004  0.6085060E+04  0.7818608E-02  0.7679944E-01
          2   -1    0    0  501    0  0.00000000000E+00  0.00000000000E+00  0.37990133589E+04  0.37990133589E+04  0.00000000000E+00 0.  1.
         -2   -1    0    0    0  501 -0.00000000000E+00 -0.00000000000E+00 -0.24366825722E+04  0.24366825722E+04  0.00000000000E+00 0. -1.
         23    2    1    2    0    0  0.11859672906E+04  0.25333333887E+04 -0.54350686865E+03  0.28509487263E+04  0.90622575197E+02 0.  0.
         11    1    3    3    0    0  0.16702718544E+03  0.40561434840E+03 -0.11145150710E+03  0.45259531454E+03  0.00000000000E+00 0. -1.
        -11    1    3    3    0    0  0.10189401051E+04  0.21277190403E+04 -0.43205536156E+03  0.23983534117E+04  0.00000000000E+00 0.  1.
         22    1    1    2    0    0 -0.11859672906E+04 -0.25333333887E+04  0.19058376553E+04  0.33847472049E+04  0.00000000000E+00 0.  1.
<mgrwt>
<rscale>  0 0.60850603E+04</rscale>
<asrwt>0</asrwt>
<pdfrwt beam="1">  1        2 0.58446360E+00 0.60850603E+04</pdfrwt>
<pdfrwt beam="2">  1       -2 0.37487424E+00 0.60850603E+04</pdfrwt>
<totfact> 0.35421931E-03</totfact>
</mgrwt>
</event>
<event>
 6    1  0.5196787E-004  0.2253426E+04  0.7818608E-02  0.8496514E-01
          1   -1    0    0  501    0  0.00000000000E+00  0.00000000000E+00  0.16014319458E+04  0.16014319458E+04  0.00000000000E+00 0.  1.
         -1   -1    0    0    0  501 -0.00000000000E+00 -0.00000000000E+00 -0.79271694687E+03  0.79271694687E+03  0.00000000000E+00 0. -1.
         23    2    1    2    0    0 -0.11707222825E+02  0.11144786775E+04  0.56652625136E+03  0.12535985119E+04  0.91419110918E+02 0.  0.
         13    1    3    3    0    0 -0.37250250855E+02  0.20281329943E+03  0.10927643334E+03  0.23337128037E+03  0.00000000000E+00 0. -1.
        -13    1    3    3    0    0  0.25543028029E+02  0.91166537808E+03  0.45724981801E+03  0.10202272315E+04  0.00000000000E+00 0.  1.
         22    1    1    2    0    0  0.11707222825E+02 -0.11144786775E+04  0.24218874761E+03  0.11405503808E+04  0.00000000000E+00 0. -1.
<mgrwt>
<rscale>  0 0.22534261E+04</rscale>
<asrwt>0</asrwt>
<pdfrwt beam="1">  1        1 0.24637415E+00 0.22534261E+04</pdfrwt>
<pdfrwt beam="2">  1       -1 0.12195645E+00 0.22534261E+04</pdfrwt>
<totfact> 0.30057849E+00</totfact>
</mgrwt>
</event>
<event>
 6    1  0.5196787E-004  0.1876785E+04  0.7818608E-02  0.8666499E-01
          1   -1    0    0  501    0  0.00000000000E+00  0.00000000000E+00  0.81373299602E+03  0.81373299602E+03  0.00000000000E+00 0.  1.
         -1   -1    0    0    0  501 -0.00000000000E+00 -0.00000000000E+00 -0.10821493883E+04  0.10821493883E+04  0.00000000000E+00 0. -1.
         23    2    1    2    0    0  0.69549523968E+03  0.62249838585E+03 -0.61043752931E+02  0.93973319076E+03  0.90300948160E+02 0.  0.
         13    1    3    3    0    0  0.41475737104E+03  0.34781210927E+03  0.57739683886E+01  0.54132271234E+03  0.00000000000E+00 0.  1.
        -13    1    3    3    0    0  0.28073786864E+03  0.27468627658E+03 -0.66817721320E+02  0.39841047842E+03  0.00000000000E+00 0. -1.
         22    1    1    2    0    0 -0.69549523968E+03 -0.62249838585E+03 -0.20737263934E+03  0.95614919356E+03  0.00000000000E+00 0. -1.
<mgrwt>
<rscale>  0 0.18767852E+04</rscale>
<asrwt>0</asrwt>
<pdfrwt beam="1">  1        1 0.12518969E+00 0.18767852E+04</pdfrwt>
<pdfrwt beam="2">  1       -1 0.16648452E+00 0.18767852E+04</pdfrwt>
<totfact> 0.52679975E+00</totfact>
</mgrwt>
</event>
<event>
 6    1  0.5196787E-004  0.3507336E+04  0.7818608E-02  0.8112054E-01
         -2   -1    0    0    0  501 -0.00000000000E+00  0.00000000000E+00  0.85520883247E+03  0.85520883247E+03  0.00000000000E+00 0. -1.
          2   -1    0    0  501    0  0.00000000000E+00 -0.00000000000E+00 -0.35960232554E+04  0.35960232554E+04  0.00000000000E+00 0.  1.
         23    2    1    2    0    0 -0.12643078267E+03 -0.11672455995E+04 -0.30228036557E+04  0.32437698898E+04  0.79083021016E+02 0.  0.
         11    1    3    3    0    0 -0.11080952977E+03 -0.74031865737E+03 -0.18609674293E+04  0.20058789194E+04  0.00000000000E+00 0. -1.
        -11    1    3    3    0    0 -0.15621252901E+02 -0.42692694211E+03 -0.11618362265E+04  0.12378909704E+04  0.00000000000E+00 0.  1.
         22    1    1    2    0    0  0.12643078267E+03  0.11672455995E+04  0.28198923286E+03  0.12074621981E+04  0.00000000000E+00 0. -1.
<mgrwt>
<rscale>  0 0.35073357E+04</rscale>
<asrwt>0</asrwt>
<pdfrwt beam="1">  1        2 0.55323434E+00 0.35073357E+04</pdfrwt>
<pdfrwt beam="2">  1       -2 0.13157059E+00 0.35073357E+04</pdfrwt>
<totfact> 0.23998524E-01</totfact>
</mgrwt>
</event>
<event>
 6    1  0.5196787E-004  0.2736834E+04  0.7818608E-02  0.8323152E-01
         -1   -1    0    0    0  501 -0.00000000000E+00  0.00000000000E+00  0.87346573934E+03  0.87346573934E+03  0.00000000000E+00 0.  1.
          1   -1    0    0  501    0  0.00000000000E+00 -0.00000000000E+00 -0.21438337042E+04  0.21438337042E+04  0.00000000000E+00 0. -1.
         23    2    1    2    0    0 -0.46121086553E+03 -0.11419215285E+04 -0.12896081970E+04  0.17856053150E+04  0.92718926192E+02 0.  0.
         13    1    3    3    0    0 -0.63404605464E+02 -0.19399108845E+03 -0.16993761282E+03  0.26557763205E+03  0.00000000000E+00 0.  1.
        -13    1    3    3    0    0 -0.39780626007E+03 -0.94793044008E+03 -0.11196705842E+04  0.15200276829E+04  0.00000000000E+00 0. -1.
         22    1    1    2    0    0  0.46121086553E+03  0.11419215285E+04  0.19240232133E+02  0.12316941286E+04  0.00000000000E+00 0.  1.
<mgrwt>
<rscale>  0 0.27368342E+04</rscale>
<asrwt>0</asrwt>
<pdfrwt beam="1">  1        1 0.32982057E+00 0.27368342E+04</pdfrwt>
<pdfrwt beam="2">  1       -1 0.13437935E+00 0.27368342E+04</pdfrwt>
<totfact> 0.96511073E-01</totfact>
</mgrwt>
</event>
<event>
 6    1  0.5196787E-004  0.2843809E+04  0.7818608E-02  0.8289795E-01
         -2   -1    0    0    0  501 -0.00000000000E+00  0.00000000000E+00  0.87890032531E+03  0.87890032531E+03  0.00000000000E+00 0. -1.
          2   -1    0    0  501    0  0.00000000000E+00 -0.00000000000E+00 -0.23003880338E+04  0.23003880338E+04  0.00000000000E+00 0.  1.
         23    2    1    2    0    0 -0.53033638594E+03  0.11579745571E+04 -0.78133751167E+01  0.12764912396E+04  0.84894515496E+02 0.  0.
         13    1    3    3    0    0 -0.29515657655E+02  0.58577574240E+02 -0.19186679425E+02  0.68342043560E+02  0.00000000000E+00 0. -1.
        -13    1    3    3    0    0 -0.50082072828E+03  0.10993969829E+04  0.11373304308E+02  0.12081491960E+04  0.00000000000E+00 0.  1.
         22    1    1    2    0    0  0.53033638594E+03 -0.11579745571E+04 -0.14136743334E+04  0.19027971195E+04  0.00000000000E+00 0.  1.
<mgrwt>
<rscale>  0 0.28438086E+04</rscale>
<asrwt>0</asrwt>
<pdfrwt beam="1">  1        2 0.35390586E+00 0.28438086E+04</pdfrwt>
<pdfrwt beam="2">  1       -2 0.13521543E+00 0.28438086E+04</pdfrwt>
<totfact> 0.15435150E+00</totfact>
</mgrwt>
</event>
<event>
 6    1  0.5196787E-004  0.1908334E+04  0.7818608E-02  0.8650719E-01
         -2   -1    0    0    0  501 -0.00000000000E+00  0.00000000000E+00  0.59052980435E+03  0.59052980435E+03  0.00000000000E+00 0. -1.
          2   -1    0    0  501    0  0.00000000000E+00 -0.00000000000E+00 -0.15417253418E+04  0.15417253418E+04  0.00000000000E+00 0.  1.
         23    2    1    2    0    0  0.72742284037E+03  0.41214447902E+03  0.31985054016E+02  0.84165407079E+03  0.91386382550E+02 0.  0.
         11    1    3    3    0    0  0.25205783986E+03  0.17070996735E+03  0.48343714034E+02  0.30824042933E+03  0.00000000000E+00 0. -1.
        -11    1    3    3    0    0  0.47536500052E+03  0.24143451167E+03 -0.16358660018E+02  0.53341364146E+03  0.00000000000E+00 0.  1.
         22    1    1    2    0    0 -0.72742284037E+03 -0.41214447902E+03 -0.98318059147E+03  0.12906010754E+04  0.00000000000E+00 0.  1.
<mgrwt>
<rscale>  0 0.19083341E+04</rscale>
<asrwt>0</asrwt>
<pdfrwt beam="1">  1        2 0.23718851E+00 0.19083341E+04</pdfrwt>
<pdfrwt beam="2">  1       -2 0.90850740E-01 0.19083341E+04</pdfrwt>
<totfact> 0.11637936E+01</totfact>
</mgrwt>
</event>
<event>
 6    1  0.5196787E-004  0.3155240E+04  0.7818608E-02  0.8200739E-01
          2   -1    0    0  501    0  0.00000000000E+00  0.00000000000E+00  0.24577393478E+04  0.24577393478E+04  0.00000000000E+00 0.  1.
         -2   -1    0    0    0  501 -0.00000000000E+00 -0.00000000000E+00 -0.10126726016E+04  0.10126726016E+04  0.00000000000E+00 0. -1.
         23    2    1    2    0    0  0.13728996594E+03 -0.92963504980E+03  0.21151032783E+04  0.23162807546E+04  0.91786686503E+02 0.  0.
         13    1    3    3    0    0 -0.91327579662E+01 -0.18895718125E+03  0.42410914919E+03  0.46438862393E+03  0.00000000000E+00 0. -1.
        -13    1    3    3    0    0  0.14642272390E+03 -0.74067786855E+03  0.16909941291E+04  0.18518921307E+04  0.00000000000E+00 0.  1.
         22    1    1    2    0    0 -0.13728996594E+03  0.92963504980E+03 -0.67003653210E+03  0.11541311948E+04  0.00000000000E+00 0. -1.
<mgrwt>
<rscale>  0 0.31552403E+04</rscale>
<asrwt>0</asrwt>
<pdfrwt beam="1">  1        2 0.37811374E+00 0.31552403E+04</pdfrwt>
<pdfrwt beam="2">  1       -2 0.15579579E+00 0.31552403E+04</pdfrwt>
<totfact> 0.84261899E-01</totfact>
</mgrwt>
</event>
<event>
 6    1  0.5196787E-004  0.3731990E+04  0.7818608E-02  0.8060909E-01
         -4   -1    0    0    0  501 -0.00000000000E+00  0.00000000000E+00  0.10340456333E+04  0.10340456333E+04  0.00000000000E+00 0. -1.
          4   -1    0    0  501    0  0.00000000000E+00 -0.00000000000E+00 -0.33672947610E+04  0.33672947610E+04  0.00000000000E+00 0.  1.
         23    2    1    2    0    0  0.33798474303E+03 -0.15437111447E+04  0.50710738173E+00  0.15828840881E+04  0.90796445621E+02 0.  0.
         13    1    3    3    0    0  0.15555088634E+03 -0.69566881132E+03  0.45299077404E+02  0.71428508293E+03  0.00000000000E+00 0. -1.
        -13    1    3    3    0    0  0.18243385668E+03 -0.84804233334E+03 -0.44791970022E+02  0.86859900517E+03  0.00000000000E+00 0.  1.
         22    1    1    2    0    0 -0.33798474303E+03  0.15437111447E+04 -0.23337562351E+04  0.28184563061E+04  0.00000000000E+00 0.  1.
<mgrwt>
<rscale>  0 0.37319895E+04</rscale>
<asrwt>0</asrwt>
<pdfrwt beam="1">  1        4 0.51804536E+00 0.37319895E+04</pdfrwt>
<pdfrwt beam="2">  1       -4 0.15908394E+00 0.37319895E+04</pdfrwt>
<totfact> 0.34590711E-04</totfact>
</mgrwt>
</event>
<event>
 6    1  0.5196787E-004  0.2558719E+04  0.7818608E-02  0.8382360E-01
         -2   -1    0    0    0  501 -0.00000000000E+00  0.00000000000E+00  0.58094939141E+03  0.58094939141E+03  0.00000000000E+00 0. -1.
          2   -1    0    0  501    0  0.00000000000E+00 -0.00000000000E+00 -0.28173899705E+04  0.28173899705E+04  0.00000000000E+00 0.  1.
         23    2    1    2    0    0  0.67313031856E+03  0.25908236333E+03  0.28112571420E+03  0.77949073364E+03  0.91356663030E+02 0.  0.
         11    1    3    3    0    0  0.54960547646E+03  0.24775897153E+03  0.22780419507E+03  0.64447299324E+03  0.00000000000E+00 0. -1.
        -11    1    3    3    0    0  0.12352484210E+03  0.11323391805E+02  0.53321519124E+02  0.13501774039E+03  0.00000000000E+00 0.  1.
         22    1    1    2    0    0 -0.67313031856E+03 -0.25908236333E+03 -0.25175662933E+04  0.26188486283E+04  0.00000000000E+00 0.  1.
<mgrwt>
<rscale>  0 0.25587192E+04</rscale>
<asrwt>0</asrwt>
<pdfrwt beam="1">  1        2 0.43344461E+00 0.25587192E+04</pdfrwt>
<pdfrwt beam="2">  1       -2 0.89376830E-01 0.25587192E+04</pdfrwt>
<totfact> 0.21509406E+00</totfact>
</mgrwt>
</event>
<event>
 6    1  0.5196787E-004  0.2157066E+04  0.7818608E-02  0.8536514E-01
         -2   -1    0    0    0  501 -0.00000000000E+00  0.00000000000E+00  0.65593544269E+03  0.65593544269E+03  0.00000000000E+00 0. -1.
          2   -1    0    0  501    0  0.00000000000E+00 -0.00000000000E+00 -0.17733962389E+04  0.17733962389E+04  0.00000000000E+00 0.  1.
         23    2    1    2    0    0 -0.70108390020E+03 -0.51363720807E+03  0.15571815319E+03  0.88779788248E+03  0.92709871530E+02 0.  0.
         13    1    3    3    0    0 -0.50131279416E+03 -0.35745538876E+03  0.67852576530E+02  0.61942945093E+03  0.00000000000E+00 0.  1.
        -13    1    3    3    0    0 -0.19977110604E+03 -0.15618181930E+03  0.87865576665E+02  0.26836843155E+03  0.00000000000E+00 0. -1.
         22    1    1    2    0    0  0.70108390020E+03  0.51363720807E+03 -0.12731789494E+04  0.15415337991E+04  0.00000000000E+00 0.  1.
<mgrwt>
<rscale>  0 0.21570660E+04</rscale>
<asrwt>0</asrwt>
<pdfrwt beam="1">  1        2 0.27283019E+00 0.21570660E+04</pdfrwt>
<pdfrwt beam="2">  1       -2 0.10091315E+00 0.21570660E+04</pdfrwt>
<totfact> 0.66194228E+00</totfact>
</mgrwt>
</event>
<event>
 6    1  0.5196787E-004  0.3398990E+04  0.7818608E-02  0.8138154E-01
          2   -1    0    0  501    0  0.00000000000E+00  0.00000000000E+00  0.26724476035E+04  0.26724476035E+04  0.00000000000E+00 0.  1.
         -2   -1    0    0    0  501 -0.00000000000E+00 -0.00000000000E+00 -0.10807632538E+04  0.10807632538E+04  0.00000000000E+00 0. -1.
         23    2    1    2    0    0 -0.92258311477E+03  0.34802887827E+02  0.23705720944E+04  0.25453048330E+04  0.81202175919E+02 0.  0.
         11    1    3    3    0    0 -0.29603924557E+03  0.42156602898E+02  0.82723388271E+03  0.87962054932E+03  0.00000000000E+00 0. -1.
        -11    1    3    3    0    0 -0.62654386921E+03 -0.73537150712E+01  0.15433382117E+04  0.16656842837E+04  0.00000000000E+00 0.  1.
         22    1    1    2    0    0  0.92258311477E+03 -0.34802887827E+02 -0.77888774476E+03  0.12079060243E+04  0.00000000000E+00 0. -1.
<mgrwt>
<rscale>  0 0.33989899E+04</rscale>
<asrwt>0</asrwt>
<pdfrwt beam="1">  1        2 0.41114578E+00 0.33989899E+04</pdfrwt>
<pdfrwt beam="2">  1       -2 0.16627127E+00 0.33989899E+04</pdfrwt>
<totfact> 0.51771135E-01</totfact>
</mgrwt>
</event>
<event>
 6    1  0.5196787E-004  0.2592176E+04  0.7818608E-02  0.8370864E-01
          2   -1    0    0  501    0  0.00000000000E+00  0.00000000000E+00  0.14079883933E+04  0.14079883933E+04  0.00000000000E+00 0.  1.
         -2   -1    0    0    0  501 -0.00000000000E+00 -0.00000000000E+00 -0.11930806713E+04  0.11930806713E+04  0.00000000000E+00 0. -1.
         23    2    1    2    0    0  0.60973527882E+03  0.85209530983E+03 -0.65530726138E+03  0.12390420295E+04  0.89185294033E+02 0.  0.
         13    1    3    3    0    0  0.56105423263E+03  0.77136306713E+03 -0.62356262346E+03  0.11395671014E+04  0.00000000000E+00 0.  1.
        -13    1    3    3    0    0  0.48681046191E+02  0.80732242695E+02 -0.31744637919E+02  0.99474928024E+02  0.00000000000E+00 0. -1.
         22    1    1    2    0    0 -0.60973527882E+03 -0.85209530983E+03  0.87021498335E+03  0.13620270352E+04  0.00000000000E+00 0.  1.
<mgrwt>
<rscale>  0 0.25921757E+04</rscale>
<asrwt>0</asrwt>
<pdfrwt beam="1">  1        2 0.21661360E+00 0.25921757E+04</pdfrwt>
<pdfrwt beam="2">  1       -2 0.18355087E+00 0.25921757E+04</pdfrwt>
<totfact> 0.21727522E+00</totfact>
</mgrwt>
</event>
<event>
 6    1  0.5196787E-004  0.8613652E+03  0.7818608E-02  0.9475209E-01
         -2   -1    0    0    0  501 -0.00000000000E+00  0.00000000000E+00  0.25300241055E+03  0.25300241055E+03  0.00000000000E+00 0. -1.
          2   -1    0    0  501    0  0.00000000000E+00 -0.00000000000E+00 -0.73314520916E+03  0.73314520916E+03  0.00000000000E+00 0.  1.
         23    2    1    2    0    0  0.17659692085E+03  0.35637638967E+02 -0.68445043959E+03  0.71375429026E+03  0.92283632549E+02 0.  0.
         11    1    3    3    0    0  0.63246633403E+02  0.58371341339E+02 -0.26222390738E+03  0.27598682528E+03  0.00000000000E+00 0. -1.
        -11    1    3    3    0    0  0.11335028745E+03 -0.22733702372E+02 -0.42222653221E+03  0.43776746498E+03  0.00000000000E+00 0.  1.
         22    1    1    2    0    0 -0.17659692085E+03 -0.35637638967E+02  0.20430764099E+03  0.27239332945E+03  0.00000000000E+00 0. -1.
<mgrwt>
<rscale>  0 0.86136521E+03</rscale>
<asrwt>0</asrwt>
<pdfrwt beam="1">  1        2 0.11279157E+00 0.86136521E+03</pdfrwt>
<pdfrwt beam="2">  1       -2 0.38923448E-01 0.86136521E+03</pdfrwt>
<totfact> 0.24181485E+02</totfact>
</mgrwt>
</event>
<event>
 6    1  0.5196787E-004  0.3590765E+04  0.7818608E-02  0.8092610E-01
         -2   -1    0    0    0  501 -0.00000000000E+00  0.00000000000E+00  0.75341093370E+03  0.75341093370E+03  0.00000000000E+00 0. -1.
          2   -1    0    0  501    0  0.00000000000E+00 -0.00000000000E+00 -0.42784074209E+04  0.42784074209E+04  0.00000000000E+00 0.  1.
         23    2    1    2    0    0 -0.12257424126E+04  0.63800168179E+03 -0.15942357312E+03  0.13936084036E+04  0.85075842120E+02 0.  0.
         11    1    3    3    0    0 -0.52833205572E+03  0.26958363443E+03 -0.11058346646E+03  0.60335627958E+03  0.00000000000E+00 0.  1.
        -11    1    3    3    0    0 -0.69741035683E+03  0.36841804736E+03 -0.48840106657E+02  0.79025212398E+03  0.00000000000E+00 0. -1.
         22    1    1    2    0    0  0.12257424126E+04 -0.63800168179E+03 -0.33655729141E+04  0.36382099511E+04  0.00000000000E+00 0.  1.
<mgrwt>
<rscale>  0 0.35907653E+04</rscale>
<asrwt>0</asrwt>
<pdfrwt beam="1">  1        2 0.65821654E+00 0.35907653E+04</pdfrwt>
<pdfrwt beam="2">  1       -2 0.11590937E+00 0.35907653E+04</pdfrwt>
<totfact> 0.93188445E-02</totfact>
</mgrwt>
</event>
<event>
 6    1  0.5196787E-004  0.3506030E+04  0.7818608E-02  0.8112362E-01
          2   -1    0    0  501    0  0.00000000000E+00  0.00000000000E+00  0.46206447530E+04  0.46206447530E+04  0.00000000000E+00 0.  1.
         -2   -1    0    0    0  501 -0.00000000000E+00 -0.00000000000E+00 -0.66507201806E+03  0.66507201806E+03  0.00000000000E+00 0. -1.
         23    2    1    2    0    0 -0.53371353100E+03 -0.13066665589E+03  0.44869065147E+04  0.45213611642E+04  0.91939099468E+02 0.  0.
         13    1    3    3    0    0 -0.21002062074E+03 -0.66867154936E+01  0.16149676550E+04  0.16285803327E+04  0.00000000000E+00 0.  1.
        -13    1    3    3    0    0 -0.32369291026E+03 -0.12397994040E+03  0.28719388597E+04  0.28927808316E+04  0.00000000000E+00 0. -1.
         22    1    1    2    0    0  0.53371353100E+03  0.13066665589E+03 -0.53133377975E+03  0.76435560680E+03  0.00000000000E+00 0. -1.
<mgrwt>
<rscale>  0 0.35060300E+04</rscale>
<asrwt>0</asrwt>
<pdfrwt beam="1">  1        2 0.71086840E+00 0.35060300E+04</pdfrwt>
<pdfrwt beam="2">  1       -2 0.10231877E+00 0.35060300E+04</pdfrwt>
<totfact> 0.59448474E-02</totfact>
</mgrwt>
</event>
<event>
 6    1  0.5196787E-004  0.2639357E+04  0.7818608E-02  0.8354954E-01
         -2   -1    0    0    0  501 -0.00000000000E+00  0.00000000000E+00  0.87783279276E+03  0.87783279276E+03  0.00000000000E+00 0. -1.
          2   -1    0    0  501    0  0.00000000000E+00 -0.00000000000E+00 -0.19839221437E+04  0.19839221437E+04  0.00000000000E+00 0.  1.
         23    2    1    2    0    0  0.11704032633E+04  0.40828600624E+03 -0.68105759678E+02  0.12449830919E+04  0.93825599698E+02 0.  0.
         13    1    3    3    0    0  0.71939501972E+02  0.32186868949E+02  0.17619201831E+02  0.80757183890E+02  0.00000000000E+00 0. -1.
        -13    1    3    3    0    0  0.10984637613E+04  0.37609913729E+03 -0.85724961509E+02  0.11642259080E+04  0.00000000000E+00 0.  1.
         22    1    1    2    0    0 -0.11704032633E+04 -0.40828600624E+03 -0.10379835913E+04  0.16167718445E+04  0.00000000000E+00 0. -1.
<mgrwt>
<rscale>  0 0.26393574E+04</rscale>
<asrwt>0</asrwt>
<pdfrwt beam="1">  1        2 0.30521879E+00 0.26393574E+04</pdfrwt>
<pdfrwt beam="2">  1       -2 0.13505120E+00 0.26393574E+04</pdfrwt>
<totfact> 0.23701867E+00</totfact>
</mgrwt>
</event>
<event>
 6    1  0.5196787E-004  0.4543824E+04  0.7818608E-02  0.7903009E-01
         -2   -1    0    0    0  501 -0.00000000000E+00  0.00000000000E+00  0.22918829619E+04  0.22918829619E+04  0.00000000000E+00 0. -1.
          2   -1    0    0  501    0  0.00000000000E+00 -0.00000000000E+00 -0.22521148956E+04  0.22521148956E+04  0.00000000000E+00 0.  1.
         23    2    1    2    0    0 -0.12943656271E+04 -0.16365153325E+04 -0.87667197235E+03  0.22650886547E+04  0.92239127319E+02 0.  0.
         11    1    3    3    0    0 -0.44636830177E+03 -0.63622484848E+03 -0.32663930864E+03  0.84304208471E+03  0.00000000000E+00 0.  1.
        -11    1    3    3    0    0 -0.84799732528E+03 -0.10002904841E+04 -0.55003266371E+03  0.14220465700E+04  0.00000000000E+00 0. -1.
         22    1    1    2    0    0  0.12943656271E+04  0.16365153325E+04  0.91644003858E+03  0.22789092028E+04  0.00000000000E+00 0.  1.
<mgrwt>
<rscale>  0 0.45438238E+04</rscale>
<asrwt>0</asrwt>
<pdfrwt beam="1">  1        2 0.34647922E+00 0.45438238E+04</pdfrwt>
<pdfrwt beam="2">  1       -2 0.35259738E+00 0.45438238E+04</pdfrwt>
<totfact> 0.54588068E-02</totfact>
</mgrwt>
</event>
<event>
 6    1  0.5196787E-004  0.3789587E+04  0.7818608E-02  0.8048393E-01
         -2   -1    0    0    0  501 -0.00000000000E+00  0.00000000000E+00  0.18453725517E+04  0.18453725517E+04  0.00000000000E+00 0. -1.
          2   -1    0    0  501    0  0.00000000000E+00 -0.00000000000E+00 -0.19455381022E+04  0.19455381022E+04  0.00000000000E+00 0.  1.
         23    2    1    2    0    0  0.13535091212E+04  0.74469572054E+03  0.10453969739E+04  0.18676654394E+04  0.93598627817E+02 0.  0.
         11    1    3    3    0    0  0.61760167090E+03  0.30104986604E+03  0.42622794030E+03  0.80853763229E+03  0.00000000000E+00 0. -1.
        -11    1    3    3    0    0  0.73590745033E+03  0.44364585450E+03  0.61916903358E+03  0.10591278071E+04  0.00000000000E+00 0.  1.
         22    1    1    2    0    0 -0.13535091212E+04 -0.74469572054E+03 -0.11455625244E+04  0.19232452144E+04  0.00000000000E+00 0.  1.
<mgrwt>
<rscale>  0 0.37895871E+04</rscale>
<asrwt>0</asrwt>
<pdfrwt beam="1">  1        2 0.29931356E+00 0.37895871E+04</pdfrwt>
<pdfrwt beam="2">  1       -2 0.28390347E+00 0.37895871E+04</pdfrwt>
<totfact> 0.22919348E-01</totfact>
</mgrwt>
</event>
<event>
 6    1  0.5196787E-004  0.1497445E+04  0.7818608E-02  0.8886153E-01
          2   -1    0    0  501    0  0.00000000000E+00  0.00000000000E+00  0.79436044236E+03  0.79436044236E+03  0.00000000000E+00 0.  1.
         -2   -1    0    0    0  501 -0.00000000000E+00 -0.00000000000E+00 -0.70570701995E+03  0.70570701995E+03  0.00000000000E+00 0. -1.
         23    2    1    2    0    0  0.19452085385E+03 -0.71742519516E+03 -0.29089291742E+02  0.74747154153E+03  0.73008528747E+02 0.  0.
         13    1    3    3    0    0  0.81574853661E+02 -0.20077080662E+03 -0.28799187584E+02  0.21861556840E+03  0.00000000000E+00 0.  1.
        -13    1    3    3    0    0  0.11294600019E+03 -0.51665438854E+03 -0.29010415814E+00  0.52885597313E+03  0.00000000000E+00 0. -1.
         22    1    1    2    0    0 -0.19452085385E+03  0.71742519516E+03  0.11774271415E+03  0.75259592078E+03  0.00000000000E+00 0. -1.
<mgrwt>
<rscale>  0 0.14974455E+04</rscale>
<asrwt>0</asrwt>
<pdfrwt beam="1">  1        2 0.12220930E+00 0.14974455E+04</pdfrwt>
<pdfrwt beam="2">  1       -2 0.10857031E+00 0.14974455E+04</pdfrwt>
<totfact> 0.22790761E+01</totfact>
</mgrwt>
</event>
<event>
 6    1  0.5196787E-004  0.1505432E+04  0.7818608E-02  0.8880849E-01
         -2   -1    0    0    0  501 -0.00000000000E+00  0.00000000000E+00  0.37860537276E+03  0.37860537276E+03  0.00000000000E+00 0. -1.
          2   -1    0    0  501    0  0.00000000000E+00 -0.00000000000E+00 -0.14964953661E+04  0.14964953661E+04  0.00000000000E+00 0.  1.
         23    2    1    2    0    0  0.50349097868E+03  0.54580988861E+03 -0.69368977127E+03  0.10199063583E+04  0.87131399825E+02 0.  0.
         11    1    3    3    0    0  0.27308252267E+03  0.32443777581E+03 -0.44773425817E+03  0.61668460375E+03  0.00000000000E+00 0.  1.
        -11    1    3    3    0    0  0.23040845601E+03  0.22137211279E+03 -0.24595551310E+03  0.40322175456E+03  0.00000000000E+00 0. -1.
         22    1    1    2    0    0 -0.50349097868E+03 -0.54580988861E+03 -0.42420022207E+03  0.85519438055E+03  0.00000000000E+00 0. -1.
<mgrwt>
<rscale>  0 0.15054317E+04</rscale>
<asrwt>0</asrwt>
<pdfrwt beam="1">  1        2 0.23023006E+00 0.15054317E+04</pdfrwt>
<pdfrwt beam="2">  1       -2 0.58246980E-01 0.15054317E+04</pdfrwt>
<totfact> 0.33952458E+01</totfact>
</mgrwt>
</event>
<event>
 6    1  0.5196787E-004  0.1884814E+04  0.7818608E-02  0.8662453E-01
          2   -1    0    0  501    0  0.00000000000E+00  0.00000000000E+00  0.17210062286E+04  0.17210062286E+04  0.00000000000E+00 0.  1.
         -2   -1    0    0    0  501 -0.00000000000E+00 -0.00000000000E+00 -0.51605310100E+03  0.51605310100E+03  0.00000000000E+00 0. -1.
         23    2    1    2    0    0 -0.85796058157E+03  0.57996946055E+02  0.15149135609E+03  0.87719106052E+03  0.83991192447E+02 0.  0.
         11    1    3    3    0    0 -0.77954071190E+03  0.29010148806E+02  0.12966561940E+03  0.79078346157E+03  0.00000000000E+00 0.  1.
        -11    1    3    3    0    0 -0.78419869664E+02  0.28986797249E+02  0.21825736690E+02  0.86407598943E+02  0.00000000000E+00 0. -1.
         22    1    1    2    0    0  0.85796058157E+03 -0.57996946055E+02  0.10534617715E+04  0.13598682691E+04  0.00000000000E+00 0.  1.
<mgrwt>
<rscale>  0 0.18848136E+04</rscale>
<asrwt>0</asrwt>
<pdfrwt beam="1">  1        2 0.26477019E+00 0.18848136E+04</pdfrwt>
<pdfrwt beam="2">  1       -2 0.79392786E-01 0.18848136E+04</pdfrwt>
<totfact> 0.12586915E+01</totfact>
</mgrwt>
</event>
<event>
 6    1  0.5196787E-004  0.5019081E+03  0.7818608E-02  0.1013282E+00
          2   -1    0    0  501    0  0.00000000000E+00  0.00000000000E+00  0.22462931762E+04  0.22462931762E+04  0.00000000000E+00 0.  1.
         -2   -1    0    0    0  501 -0.00000000000E+00 -0.00000000000E+00 -0.28036387060E+02  0.28036387060E+02  0.00000000000E+00 0. -1.
         23    2    1    2    0    0  0.79272608115E+02  0.71480758159E+02  0.21318118518E+04  0.21369746493E+04  0.10317574930E+03 0.  0.
         13    1    3    3    0    0  0.12506227418E+02  0.76661675208E+02  0.90083741184E+03  0.90417999355E+03  0.00000000000E+00 0.  1.
        -13    1    3    3    0    0  0.66766380697E+02 -0.51809170492E+01  0.12309744400E+04  0.12327946558E+04  0.00000000000E+00 0. -1.
         22    1    1    2    0    0 -0.79272608115E+02 -0.71480758159E+02  0.86444937309E+02  0.13735491389E+03  0.00000000000E+00 0. -1.
<mgrwt>
<rscale>  0 0.50190814E+03</rscale>
<asrwt>0</asrwt>
<pdfrwt beam="1">  1        2 0.34558342E+00 0.50190814E+03</pdfrwt>
<pdfrwt beam="2">  1       -2 0.43132921E-02 0.50190814E+03</pdfrwt>
<totfact> 0.13211017E+03</totfact>
</mgrwt>
</event>
<event>
 6    1  0.5196787E-004  0.1813178E+04  0.7818608E-02  0.8699323E-01
         -2   -1    0    0    0  501 -0.00000000000E+00  0.00000000000E+00  0.91704114033E+03  0.91704114033E+03  0.00000000000E+00 0. -1.
          2   -1    0    0  501    0  0.00000000000E+00 -0.00000000000E+00 -0.89625569050E+03  0.89625569050E+03  0.00000000000E+00 0.  1.
         23    2    1    2    0    0 -0.39624268371E+03  0.75167101982E+03 -0.29761462745E+03  0.90588501933E+03  0.10017791839E+03 0.  0.
         13    1    3    3    0    0 -0.15530294498E+03  0.20209441238E+03 -0.10502092002E+03  0.27566383490E+03  0.00000000000E+00 0.  1.
        -13    1    3    3    0    0 -0.24093973874E+03  0.54957660745E+03 -0.19259370743E+03  0.63022118442E+03  0.00000000000E+00 0. -1.
         22    1    1    2    0    0  0.39624268371E+03 -0.75167101982E+03  0.31840007727E+03  0.90741181150E+03  0.00000000000E+00 0. -1.
<mgrwt>
<rscale>  0 0.18131777E+04</rscale>
<asrwt>0</asrwt>
<pdfrwt beam="1">  1        2 0.13788549E+00 0.18131777E+04</pdfrwt>
<pdfrwt beam="2">  1       -2 0.14108325E+00 0.18131777E+04</pdfrwt>
<totfact> 0.97896758E+00</totfact>
</mgrwt>
</event>
<event>
 6    1  0.5196787E-004  0.2311013E+04  0.7818608E-02  0.8473591E-01
         -2   -1    0    0    0  501 -0.00000000000E+00  0.00000000000E+00  0.20023547204E+04  0.20023547204E+04  0.00000000000E+00 0. -1.
          2   -1    0    0  501    0  0.00000000000E+00 -0.00000000000E+00 -0.66681262533E+03  0.66681262533E+03  0.00000000000E+00 0.  1.
         23    2    1    2    0    0 -0.81264068199E+03 -0.15953571406E+03 -0.25892588919E+03  0.87245794382E+03  0.91124780176E+02 0.  0.
         11    1    3    3    0    0 -0.66076250828E+03 -0.94931162605E+02 -0.19478268108E+03  0.69538429004E+03  0.00000000000E+00 0.  1.
        -11    1    3    3    0    0 -0.15187817370E+03 -0.64604551456E+02 -0.64143208112E+02  0.17707365378E+03  0.00000000000E+00 0. -1.
         22    1    1    2    0    0  0.81264068199E+03  0.15953571406E+03  0.15944679842E+04  0.17967094019E+04  0.00000000000E+00 0. -1.
<mgrwt>
<rscale>  0 0.23110131E+04</rscale>
<asrwt>0</asrwt>
<pdfrwt beam="1">  1        2 0.10258656E+00 0.23110131E+04</pdfrwt>
<pdfrwt beam="2">  1       -2 0.30805457E+00 0.23110131E+04</pdfrwt>
<totfact> 0.11196724E+00</totfact>
</mgrwt>
</event>
<event>
 6    1  0.5196787E-004  0.1630568E+04  0.7818608E-02  0.8801986E-01
         -2   -1    0    0    0  501 -0.00000000000E+00  0.00000000000E+00  0.49173419533E+03  0.49173419533E+03  0.00000000000E+00 0. -1.
          2   -1    0    0  501    0  0.00000000000E+00 -0.00000000000E+00 -0.13517224982E+04  0.13517224982E+04  0.00000000000E+00 0.  1.
         23    2    1    2    0    0  0.13706877499E+03  0.16688836465E+03 -0.13171336380E+04  0.13378665109E+04  0.91685360779E+02 0.  0.
         13    1    3    3    0    0  0.57484506053E+02  0.57006930603E+02 -0.26698000138E+03  0.27898490946E+03  0.00000000000E+00 0. -1.
        -13    1    3    3    0    0  0.79584268935E+02  0.10988143405E+03 -0.10501536366E+04  0.10588816014E+04  0.00000000000E+00 0.  1.
         22    1    1    2    0    0 -0.13706877499E+03 -0.16688836465E+03  0.45714533512E+03  0.50559018261E+03  0.00000000000E+00 0. -1.
<mgrwt>
<rscale>  0 0.16305682E+04</rscale>
<asrwt>0</asrwt>
<pdfrwt beam="1">  1        2 0.20795730E+00 0.16305682E+04</pdfrwt>
<pdfrwt beam="2">  1       -2 0.75651416E-01 0.16305682E+04</pdfrwt>
<totfact> 0.23118492E+01</totfact>
</mgrwt>
</event>
<event>
 6    1  0.5196787E-004  0.2711636E+04  0.7818608E-02  0.8331239E-01
          2   -1    0    0  501    0  0.00000000000E+00  0.00000000000E+00  0.11653753711E+04  0.11653753711E+04  0.00000000000E+00 0.  1.
         -2   -1    0    0    0  501 -0.00000000000E+00 -0.00000000000E+00 -0.15773820452E+04  0.15773820452E+04  0.00000000000E+00 0. -1.
         23    2    1    2    0    0  0.61273083870E+03 -0.82400333148E+03  0.68706965715E+03  0.12386333015E+04  0.87904327224E+02 0.  0.
         13    1    3    3    0    0  0.16343269826E+03 -0.18302306449E+03  0.12829838317E+03  0.27689016617E+03  0.00000000000E+00 0.  1.
        -13    1    3    3    0    0  0.44929814044E+03 -0.64098026699E+03  0.55877127398E+03  0.96174313530E+03  0.00000000000E+00 0. -1.
         22    1    1    2    0    0 -0.61273083870E+03  0.82400333148E+03 -0.10990763313E+04  0.15041241149E+04  0.00000000000E+00 0. -1.
<mgrwt>
<rscale>  0 0.27116358E+04</rscale>
<asrwt>0</asrwt>
<pdfrwt beam="1">  1        2 0.17928852E+00 0.27116358E+04</pdfrwt>
<pdfrwt beam="2">  1       -2 0.24267416E+00 0.27116358E+04</pdfrwt>
<totfact> 0.12418608E+00</totfact>
</mgrwt>
</event>
<event>
 6    1  0.5619883E-004  0.2461476E+04  0.7818608E-02  0.8416840E-01
         -2   -1    0    0    0  501 -0.00000000000E+00  0.00000000000E+00  0.55864198689E+03  0.55864198689E+03  0.00000000000E+00 0. -1.
          2   -1    0    0  501    0  0.00000000000E+00 -0.00000000000E+00 -0.27114255207E+04  0.27114255207E+04  0.00000000000E+00 0.  1.
         23    2    1    2    0    0 -0.12199057603E+03 -0.74277984302E+02 -0.26996309469E+04  0.27048763783E+04  0.89163068680E+02 0.  0.
         11    1    3    3    0    0 -0.73976571972E+01  0.99925342496E+01 -0.73406255061E+03  0.73416783114E+03  0.00000000000E+00 0. -1.
        -11    1    3    3    0    0 -0.11459291883E+03 -0.84270518551E+02 -0.19655683962E+04  0.19707085471E+04  0.00000000000E+00 0.  1.
         22    1    1    2    0    0  0.12199057603E+03  0.74277984302E+02  0.54684741302E+03  0.56519112937E+03  0.00000000000E+00 0. -1.
<mgrwt>
<rscale>  0 0.24614761E+04</rscale>
<asrwt>0</asrwt>
<pdfrwt beam="1">  1        2 0.41714238E+00 0.24614761E+04</pdfrwt>
<pdfrwt beam="2">  1       -2 0.85944922E-01 0.24614761E+04</pdfrwt>
<totfact> 0.27477872E+00</totfact>
</mgrwt>
</event>
<event>
 6    1  0.5196787E-004  0.6693847E+03  0.7818608E-02  0.9771070E-01
         -2   -1    0    0    0  501 -0.00000000000E+00  0.00000000000E+00  0.17942104289E+03  0.17942104289E+03  0.00000000000E+00 0. -1.
          2   -1    0    0  501    0  0.00000000000E+00 -0.00000000000E+00 -0.62433568477E+03  0.62433568477E+03  0.00000000000E+00 0.  1.
         23    2    1    2    0    0 -0.28786059391E+03  0.13471813377E+03 -0.32620936993E+03  0.46448745603E+03  0.91232377398E+02 0.  0.
         11    1    3    3    0    0 -0.22105344173E+03  0.14305423289E+03 -0.26230768910E+03  0.37166444733E+03  0.00000000000E+00 0. -1.
        -11    1    3    3    0    0 -0.66807152174E+02 -0.83360991231E+01 -0.63901680833E+02  0.92823008697E+02  0.00000000000E+00 0.  1.
         22    1    1    2    0    0  0.28786059391E+03 -0.13471813377E+03 -0.11870527194E+03  0.33926927164E+03  0.00000000000E+00 0. -1.
<mgrwt>
<rscale>  0 0.66938467E+03</rscale>
<asrwt>0</asrwt>
<pdfrwt beam="1">  1        2 0.96051644E-01 0.66938467E+03</pdfrwt>
<pdfrwt beam="2">  1       -2 0.27603237E-01 0.66938467E+03</pdfrwt>
<totfact> 0.56862386E+02</totfact>
</mgrwt>
</event>
<event>
 6    1  0.5196787E-004  0.5218638E+03  0.7818608E-02  0.1008225E+00
          1   -1    0    0  501    0  0.00000000000E+00  0.00000000000E+00  0.60716980684E+03  0.60716980684E+03  0.00000000000E+00 0.  1.
         -1   -1    0    0    0  501 -0.00000000000E+00 -0.00000000000E+00 -0.11213577026E+03  0.11213577026E+03  0.00000000000E+00 0. -1.
         23    2    1    2    0    0  0.10169664727E+03 -0.23192022015E+03  0.22224418221E+03  0.34709125547E+03  0.83370657413E+02 0.  0.
         13    1    3    3    0    0  0.52320458708E+02 -0.67438924148E+02  0.11988973446E+03  0.14716992668E+03  0.00000000000E+00 0. -1.
        -13    1    3    3    0    0  0.49376188559E+02 -0.16448129601E+03  0.10235444775E+03  0.19992132879E+03  0.00000000000E+00 0.  1.
         22    1    1    2    0    0 -0.10169664727E+03  0.23192022015E+03  0.27278985436E+03  0.37221432163E+03  0.00000000000E+00 0.  1.
<mgrwt>
<rscale>  0 0.52186379E+03</rscale>
<asrwt>0</asrwt>
<pdfrwt beam="1">  1        1 0.93410737E-01 0.52186379E+03</pdfrwt>
<pdfrwt beam="2">  1       -1 0.17251657E-01 0.52186379E+03</pdfrwt>
<totfact> 0.88612753E+02</totfact>
</mgrwt>
</event>
<event>
 6    1  0.5196787E-004  0.4829468E+04  0.7818608E-02  0.7855366E-01
          2   -1    0    0  501    0  0.00000000000E+00  0.00000000000E+00  0.40474659481E+04  0.40474659481E+04  0.00000000000E+00 0.  1.
         -2   -1    0    0    0  501 -0.00000000000E+00 -0.00000000000E+00 -0.14406397900E+04  0.14406397900E+04  0.00000000000E+00 0. -1.
         23    2    1    2    0    0  0.10358374713E+04  0.62179197523E+03 -0.10708783015E+04  0.16170471464E+04  0.92068505085E+02 0.  0.
         13    1    3    3    0    0  0.63256395266E+03  0.38024522514E+03 -0.71343143189E+03  0.10265027976E+04  0.00000000000E+00 0.  1.
        -13    1    3    3    0    0  0.40327351863E+03  0.24154675009E+03 -0.35744686963E+03  0.59054434881E+03  0.00000000000E+00 0. -1.
         22    1    1    2    0    0 -0.10358374713E+04 -0.62179197523E+03  0.36777044596E+04  0.38710585916E+04  0.00000000000E+00 0.  1.
<mgrwt>
<rscale>  0 0.48294681E+04</rscale>
<asrwt>0</asrwt>
<pdfrwt beam="1">  1        2 0.62268706E+00 0.48294681E+04</pdfrwt>
<pdfrwt beam="2">  1       -2 0.22163689E+00 0.48294681E+04</pdfrwt>
<totfact> 0.22175299E-02</totfact>
</mgrwt>
</event>
<event>
 6    1  0.5196787E-004  0.2255679E+04  0.7818608E-02  0.8495604E-01
         -2   -1    0    0    0  501 -0.00000000000E+00  0.00000000000E+00  0.83173063280E+03  0.83173063280E+03  0.00000000000E+00 0. -1.
          2   -1    0    0  501    0  0.00000000000E+00 -0.00000000000E+00 -0.15293671394E+04  0.15293671394E+04  0.00000000000E+00 0.  1.
         23    2    1    2    0    0  0.33872855408E+03 -0.60059042745E+02  0.77266271111E+03  0.85108985449E+03  0.94879678113E+02 0.  0.
         13    1    3    3    0    0  0.23931977577E+03 -0.69160856701E+02  0.46339044031E+03  0.52610633844E+03  0.00000000000E+00 0. -1.
        -13    1    3    3    0    0  0.99408778309E+02  0.91018139557E+01  0.30927227080E+03  0.32498351606E+03  0.00000000000E+00 0.  1.
         22    1    1    2    0    0 -0.33872855408E+03  0.60059042745E+02 -0.14702992177E+04  0.15100079177E+04  0.00000000000E+00 0.  1.
<mgrwt>
<rscale>  0 0.22556786E+04</rscale>
<asrwt>0</asrwt>
<pdfrwt beam="1">  1        2 0.23528725E+00 0.22556786E+04</pdfrwt>
<pdfrwt beam="2">  1       -2 0.12795856E+00 0.22556786E+04</pdfrwt>
<totfact> 0.50265105E+00</totfact>
</mgrwt>
</event>
<event>
 6    1  0.5196787E-004  0.2373246E+04  0.7818608E-02  0.8449588E-01
         -2   -1    0    0    0  501 -0.00000000000E+00  0.00000000000E+00  0.15478964335E+04  0.15478964335E+04  0.00000000000E+00 0. -1.
          2   -1    0    0  501    0  0.00000000000E+00 -0.00000000000E+00 -0.90966934190E+03  0.90966934190E+03  0.00000000000E+00 0.  1.
         23    2    1    2    0    0  0.10266315895E+03  0.63639368004E+03  0.13491533676E+04  0.14979029126E+04  0.89228281385E+02 0.  0.
         11    1    3    3    0    0  0.73119586781E+02  0.45359207021E+03  0.10493247846E+04  0.11455019614E+04  0.00000000000E+00 0. -1.
        -11    1    3    3    0    0  0.29543572173E+02  0.18280160984E+03  0.29982858301E+03  0.35240095120E+03  0.00000000000E+00 0.  1.
         22    1    1    2    0    0 -0.10266315895E+03 -0.63639368004E+03 -0.71092627601E+03  0.95966286274E+03  0.00000000000E+00 0.  1.
<mgrwt>
<rscale>  0 0.23732458E+04</rscale>
<asrwt>0</asrwt>
<pdfrwt beam="1">  1        2 0.13994913E+00 0.23732458E+04</pdfrwt>
<pdfrwt beam="2">  1       -2 0.23813791E+00 0.23732458E+04</pdfrwt>
<totfact> 0.19797333E+00</totfact>
</mgrwt>
</event>
<event>
 6    1  0.5196787E-004  0.1186047E+04  0.7818608E-02  0.9125158E-01
          2   -1    0    0  501    0  0.00000000000E+00  0.00000000000E+00  0.44579141265E+03  0.44579141265E+03  0.00000000000E+00 0.  1.
         -2   -1    0    0    0  501 -0.00000000000E+00 -0.00000000000E+00 -0.78888200781E+03  0.78888200781E+03  0.00000000000E+00 0. -1.
         23    2    1    2    0    0  0.30189597117E+03  0.48448498962E+03 -0.32435785371E+03  0.66351862692E+03  0.95823110123E+02 0.  0.
         13    1    3    3    0    0  0.14935878529E+03  0.24708436156E+03 -0.21871987242E+03  0.36221141763E+03  0.00000000000E+00 0.  1.
        -13    1    3    3    0    0  0.15253718588E+03  0.23740062807E+03 -0.10563798129E+03  0.30130720929E+03  0.00000000000E+00 0. -1.
         22    1    1    2    0    0 -0.30189597117E+03 -0.48448498962E+03 -0.18732741445E+02  0.57115479354E+03  0.00000000000E+00 0.  1.
<mgrwt>
<rscale>  0 0.11860469E+04</rscale>
<asrwt>0</asrwt>
<pdfrwt beam="1">  1        2 0.68583294E-01 0.11860469E+04</pdfrwt>
<pdfrwt beam="2">  1       -2 0.12136646E+00 0.11860469E+04</pdfrwt>
<totfact> 0.35828413E+01</totfact>
</mgrwt>
</event>
<event>
 6    1  0.5196787E-004  0.2630195E+04  0.7818608E-02  0.8358016E-01
         -2   -1    0    0    0  501 -0.00000000000E+00  0.00000000000E+00  0.12962999717E+04  0.12962999717E+04  0.00000000000E+00 0. -1.
          2   -1    0    0  501    0  0.00000000000E+00 -0.00000000000E+00 -0.13341678442E+04  0.13341678442E+04  0.00000000000E+00 0.  1.
         23    2    1    2    0    0  0.32418723906E+02  0.73101652068E+03 -0.11099172165E+04  0.13324978921E+04  0.90544342186E+02 0.  0.
         13    1    3    3    0    0  0.52755484759E+02  0.33255002239E+03 -0.55219798790E+03  0.64675750974E+03  0.00000000000E+00 0. -1.
        -13    1    3    3    0    0 -0.20336760854E+02  0.39846649829E+03 -0.55771922860E+03  0.68574038240E+03  0.00000000000E+00 0.  1.
         22    1    1    2    0    0 -0.32418723906E+02 -0.73101652068E+03  0.10720493440E+04  0.12979699238E+04  0.00000000000E+00 0. -1.
<mgrwt>
<rscale>  0 0.26301952E+04</rscale>
<asrwt>0</asrwt>
<pdfrwt beam="1">  1        2 0.20525659E+00 0.26301952E+04</pdfrwt>
<pdfrwt beam="2">  1       -2 0.19943077E+00 0.26301952E+04</pdfrwt>
<totfact> 0.18693665E+00</totfact>
</mgrwt>
</event>
<event>
 6    1  0.5196787E-004  0.3028186E+04  0.7818608E-02  0.8235728E-01
          1   -1    0    0  501    0  0.00000000000E+00  0.00000000000E+00  0.18644926184E+04  0.18644926184E+04  0.00000000000E+00 0.  1.
         -1   -1    0    0    0  501 -0.00000000000E+00 -0.00000000000E+00 -0.12295446282E+04  0.12295446282E+04  0.00000000000E+00 0. -1.
         23    2    1    2    0    0 -0.10576714845E+04 -0.10706056555E+04  0.16187296820E+03  0.15164867989E+04  0.93080151474E+02 0.  0.
         13    1    3    3    0    0 -0.34688819279E+03 -0.41434417306E+03  0.62266707678E+02  0.54395740176E+03  0.00000000000E+00 0. -1.
        -13    1    3    3    0    0 -0.71078329167E+03 -0.65626148247E+03  0.99606260521E+02  0.97252939710E+03  0.00000000000E+00 0.  1.
         22    1    1    2    0    0  0.10576714845E+04  0.10706056555E+04  0.47307502204E+03  0.15775504477E+04  0.00000000000E+00 0. -1.
<mgrwt>
<rscale>  0 0.30281855E+04</rscale>
<asrwt>0</asrwt>
<pdfrwt beam="1">  1        1 0.28684502E+00 0.30281855E+04</pdfrwt>
<pdfrwt beam="2">  1       -1 0.18916071E+00 0.30281855E+04</pdfrwt>
<totfact> 0.56010101E-01</totfact>
</mgrwt>
</event>
<event>
 6    1  0.5196787E-004  0.1699640E+04  0.7818608E-02  0.8761570E-01
          2   -1    0    0  501    0  0.00000000000E+00  0.00000000000E+00  0.29505138076E+04  0.29505138076E+04  0.00000000000E+00 0.  1.
         -2   -1    0    0    0  501 -0.00000000000E+00 -0.00000000000E+00 -0.24476882088E+03  0.24476882088E+03  0.00000000000E+00 0. -1.
         23    2    1    2    0    0  0.22683915662E+03 -0.25141272547E+03  0.28170265379E+04  0.28388447725E+04  0.93470665155E+02 0.  0.
         13    1    3    3    0    0  0.17968659133E+03 -0.24353776836E+03  0.23609062646E+04  0.23802261040E+04  0.00000000000E+00 0. -1.
        -13    1    3    3    0    0  0.47152565291E+02 -0.78749571086E+01  0.45612027331E+03  0.45861866849E+03  0.00000000000E+00 0.  1.
         22    1    1    2    0    0 -0.22683915662E+03  0.25141272547E+03 -0.11128155127E+03  0.35643785595E+03  0.00000000000E+00 0. -1.
<mgrwt>
<rscale>  0 0.16996397E+04</rscale>
<asrwt>0</asrwt>
<pdfrwt beam="1">  1        2 0.45392518E+00 0.16996397E+04</pdfrwt>
<pdfrwt beam="2">  1       -2 0.37656744E-01 0.16996397E+04</pdfrwt>
<totfact> 0.11888875E+01</totfact>
</mgrwt>
</event>
<event>
 6    1  0.5196787E-004  0.1914359E+04  0.7818608E-02  0.8647742E-01
          2   -1    0    0  501    0  0.00000000000E+00  0.00000000000E+00  0.24815612143E+04  0.24815612143E+04  0.00000000000E+00 0.  1.
         -2   -1    0    0    0  501 -0.00000000000E+00 -0.00000000000E+00 -0.36920017937E+03  0.36920017937E+03  0.00000000000E+00 0. -1.
         23    2    1    2    0    0 -0.74599998902E+03  0.57754335307E+03  0.83787839697E+03  0.12650822639E+04  0.91217421071E+02 0.  0.
         13    1    3    3    0    0 -0.32634230719E+03  0.20934306957E+03  0.30501520807E+03  0.49331338862E+03  0.00000000000E+00 0. -1.
        -13    1    3    3    0    0 -0.41965768184E+03  0.36820028350E+03  0.53286318890E+03  0.77176887523E+03  0.00000000000E+00 0.  1.
         22    1    1    2    0    0  0.74599998902E+03 -0.57754335307E+03  0.12744826380E+04  0.15856791298E+04  0.00000000000E+00 0.  1.
<mgrwt>
<rscale>  0 0.19143593E+04</rscale>
<asrwt>0</asrwt>
<pdfrwt beam="1">  1        2 0.38177864E+00 0.19143593E+04</pdfrwt>
<pdfrwt beam="2">  1       -2 0.56800029E-01 0.19143593E+04</pdfrwt>
<totfact> 0.97089108E+00</totfact>
</mgrwt>
</event>
<event>
 6    1  0.5196787E-004  0.1241710E+04  0.7818608E-02  0.9077111E-01
         -2   -1    0    0    0  501 -0.00000000000E+00  0.00000000000E+00  0.19196793263E+03  0.19196793263E+03  0.00000000000E+00 0. -1.
          2   -1    0    0  501    0  0.00000000000E+00 -0.00000000000E+00 -0.20079457102E+04  0.20079457102E+04  0.00000000000E+00 0.  1.
         23    2    1    2    0    0 -0.23039495823E+03  0.21518545209E+03 -0.18536583602E+04  0.18824133406E+04  0.89688644231E+02 0.  0.
         11    1    3    3    0    0 -0.10625561542E+03  0.12982583975E+03 -0.75096916230E+03  0.76948014088E+03  0.00000000000E+00 0. -1.
        -11    1    3    3    0    0 -0.12413934281E+03  0.85359612344E+02 -0.11026891979E+04  0.11129331997E+04  0.00000000000E+00 0.  1.
         22    1    1    2    0    0  0.23039495823E+03 -0.21518545209E+03  0.37680582695E+02  0.31750030218E+03  0.00000000000E+00 0. -1.
<mgrwt>
<rscale>  0 0.12417104E+04</rscale>
<asrwt>0</asrwt>
<pdfrwt beam="1">  1        2 0.30891474E+00 0.12417104E+04</pdfrwt>
<pdfrwt beam="2">  1       -2 0.29533527E-01 0.12417104E+04</pdfrwt>
<totfact> 0.68797115E+01</totfact>
</mgrwt>
</event>
<event>
 6    1  0.5196787E-004  0.2455580E+04  0.7818608E-02  0.8418983E-01
          2   -1    0    0  501    0  0.00000000000E+00  0.00000000000E+00  0.22265822850E+04  0.22265822850E+04  0.00000000000E+00 0.  1.
         -2   -1    0    0    0  501 -0.00000000000E+00 -0.00000000000E+00 -0.67703250576E+03  0.67703250576E+03  0.00000000000E+00 0. -1.
         23    2    1    2    0    0  0.68168556895E+03  0.35122494575E+03 -0.35514696283E+03  0.85034328980E+03  0.94340700966E+02 0.  0.
         13    1    3    3    0    0  0.16536707455E+03  0.42098336319E+02 -0.70430513204E+02  0.18460497409E+03  0.00000000000E+00 0.  1.
        -13    1    3    3    0    0  0.51631849440E+03  0.30912660943E+03 -0.28471644962E+03  0.66573831571E+03  0.00000000000E+00 0. -1.
         22    1    1    2    0    0 -0.68168556895E+03 -0.35122494575E+03  0.19046967420E+04  0.20532715009E+04  0.00000000000E+00 0.  1.
<mgrwt>
<rscale>  0 0.24555802E+04</rscale>
<asrwt>0</asrwt>
<pdfrwt beam="1">  1        2 0.34255112E+00 0.24555802E+04</pdfrwt>
<pdfrwt beam="2">  1       -2 0.10415885E+00 0.24555802E+04</pdfrwt>
<totfact> 0.33461589E+00</totfact>
</mgrwt>
</event>
<event>
 6    1  0.5196787E-004  0.1841210E+04  0.7818608E-02  0.8684686E-01
         -2   -1    0    0    0  501 -0.00000000000E+00  0.00000000000E+00  0.69343240535E+03  0.69343240535E+03  0.00000000000E+00 0. -1.
          2   -1    0    0  501    0  0.00000000000E+00 -0.00000000000E+00 -0.12222009470E+04  0.12222009470E+04  0.00000000000E+00 0.  1.
         23    2    1    2    0    0  0.13552861596E+03 -0.73915393657E+03 -0.81433930908E+03  0.11117258882E+04  0.89829797391E+02 0.  0.
         13    1    3    3    0    0  0.12568533570E+02 -0.14888406806E+03 -0.21291844988E+03  0.26011286023E+03  0.00000000000E+00 0.  1.
        -13    1    3    3    0    0  0.12296008239E+03 -0.59026986852E+03 -0.60142085920E+03  0.85161302798E+03  0.00000000000E+00 0. -1.
         22    1    1    2    0    0 -0.13552861596E+03  0.73915393657E+03  0.28557076742E+03  0.80390746414E+03  0.00000000000E+00 0. -1.
<mgrwt>
<rscale>  0 0.18412102E+04</rscale>
<asrwt>0</asrwt>
<pdfrwt beam="1">  1        2 0.18803091E+00 0.18412102E+04</pdfrwt>
<pdfrwt beam="2">  1       -2 0.10668191E+00 0.18412102E+04</pdfrwt>
<totfact> 0.12232923E+01</totfact>
</mgrwt>
</event>
<event>
 6    1  0.5196787E-004  0.1425453E+04  0.7818608E-02  0.8935598E-01
         -2   -1    0    0    0  501 -0.00000000000E+00  0.00000000000E+00  0.17761379432E+03  0.17761379432E+03  0.00000000000E+00 0. -1.
          2   -1    0    0  501    0  0.00000000000E+00 -0.00000000000E+00 -0.28600185505E+04  0.28600185505E+04  0.00000000000E+00 0.  1.
         23    2    1    2    0    0  0.35654376495E+03  0.54949586695E+03 -0.76371965986E+03  0.10102148587E+04  0.90538266986E+02 0.  0.
         11    1    3    3    0    0  0.19439291312E+02  0.85528973559E+02 -0.97187491836E+02  0.13091409372E+03  0.00000000000E+00 0.  1.
        -11    1    3    3    0    0  0.33710447364E+03  0.46396689339E+03 -0.66653216803E+03  0.87930076500E+03  0.00000000000E+00 0. -1.
         22    1    1    2    0    0 -0.35654376495E+03 -0.54949586695E+03 -0.19186850963E+04  0.20274174861E+04  0.00000000000E+00 0.  1.
<mgrwt>
<rscale>  0 0.14254526E+04</rscale>
<asrwt>0</asrwt>
<pdfrwt beam="1">  1        2 0.44000286E+00 0.14254526E+04</pdfrwt>
<pdfrwt beam="2">  1       -2 0.27325199E-01 0.14254526E+04</pdfrwt>
<totfact> 0.25359424E+01</totfact>
</mgrwt>
</event>
<event>
 6    1  0.5196787E-004  0.1653169E+04  0.7818608E-02  0.8788534E-01
          2   -1    0    0  501    0  0.00000000000E+00  0.00000000000E+00  0.42281117393E+04  0.42281117393E+04  0.00000000000E+00 0. -1.
         -2   -1    0    0    0  501 -0.00000000000E+00 -0.00000000000E+00 -0.16159514686E+03  0.16159514686E+03  0.00000000000E+00 0.  1.
         23    2    1    2    0    0  0.60531983987E+03  0.40506036832E+03  0.10161008417E+04  0.12535432643E+04  0.91781177388E+02 0.  0.
         13    1    3    3    0    0  0.40689430914E+03  0.26060863961E+03  0.59911059899E+03  0.76968392972E+03  0.00000000000E+00 0. -1.
        -13    1    3    3    0    0  0.19842553073E+03  0.14445172871E+03  0.41699024272E+03  0.48385933461E+03  0.00000000000E+00 0.  1.
         22    1    1    2    0    0 -0.60531983987E+03 -0.40506036832E+03  0.30504157507E+04  0.31361636218E+04  0.00000000000E+00 0. -1.
<mgrwt>
<rscale>  0 0.16531695E+04</rscale>
<asrwt>0</asrwt>
<pdfrwt beam="1">  1        2 0.65047864E+00 0.16531695E+04</pdfrwt>
<pdfrwt beam="2">  1       -2 0.24860795E-01 0.16531695E+04</pdfrwt>
<totfact> 0.31116445E+00</totfact>
</mgrwt>
</event>
<event>
 6    1  0.5196787E-004  0.2087164E+04  0.7818608E-02  0.8566919E-01
          2   -1    0    0  501    0  0.00000000000E+00  0.00000000000E+00  0.15614389394E+04  0.15614389394E+04  0.00000000000E+00 0.  1.
         -2   -1    0    0    0  501 -0.00000000000E+00 -0.00000000000E+00 -0.69747396154E+03  0.69747396154E+03  0.00000000000E+00 0. -1.
         23    2    1    2    0    0  0.28848216677E+03 -0.26037066730E+03 -0.61286413379E+03  0.73181137520E+03  0.94501838357E+02 0.  0.
         11    1    3    3    0    0  0.39803413418E+02 -0.34706336687E+02 -0.15680297610E+03  0.16545698788E+03  0.00000000000E+00 0.  1.
        -11    1    3    3    0    0  0.24867875335E+03 -0.22566433061E+03 -0.45606115769E+03  0.56635438731E+03  0.00000000000E+00 0. -1.
         22    1    1    2    0    0 -0.28848216677E+03  0.26037066730E+03  0.14768291116E+04  0.15271015257E+04  0.00000000000E+00 0.  1.
<mgrwt>
<rscale>  0 0.20871636E+04</rscale>
<asrwt>0</asrwt>
<pdfrwt beam="1">  1        2 0.24022137E+00 0.20871636E+04</pdfrwt>
<pdfrwt beam="2">  1       -2 0.10730369E+00 0.20871636E+04</pdfrwt>
<totfact> 0.75447007E+00</totfact>
</mgrwt>
</event>
<event>
 6    1  0.5196787E-004  0.1556795E+04  0.7818608E-02  0.8847539E-01
         -2   -1    0    0    0  501 -0.00000000000E+00  0.00000000000E+00  0.65070248901E+03  0.65070248901E+03  0.00000000000E+00 0.  1.
          2   -1    0    0  501    0  0.00000000000E+00 -0.00000000000E+00 -0.93115115868E+03  0.93115115868E+03  0.00000000000E+00 0. -1.
         23    2    1    2    0    0  0.36227739140E+03 -0.46546056526E+03 -0.65269191749E+03  0.88438430666E+03  0.90721643441E+02 0.  0.
         13    1    3    3    0    0  0.82695033195E+02 -0.58677241294E+02 -0.13815200142E+03  0.17136937491E+03  0.00000000000E+00 0. -1.
        -13    1    3    3    0    0  0.27958235821E+03 -0.40678332396E+03 -0.51453991606E+03  0.71301493175E+03  0.00000000000E+00 0.  1.
         22    1    1    2    0    0 -0.36227739140E+03  0.46546056526E+03  0.37224324781E+03  0.69746934103E+03  0.00000000000E+00 0.  1.
<mgrwt>
<rscale>  0 0.15567946E+04</rscale>
<asrwt>0</asrwt>
<pdfrwt beam="1">  1        2 0.14325402E+00 0.15567946E+04</pdfrwt>
<pdfrwt beam="2">  1       -2 0.10010808E+00 0.15567946E+04</pdfrwt>
<totfact> 0.22153019E+01</totfact>
</mgrwt>
</event>
<event>
 6    1  0.5196787E-004  0.2303068E+04  0.7818608E-02  0.8476712E-01
         -2   -1    0    0    0  501 -0.00000000000E+00  0.00000000000E+00  0.45184692361E+03  0.45184692361E+03  0.00000000000E+00 0. -1.
          2   -1    0    0  501    0  0.00000000000E+00 -0.00000000000E+00 -0.29346896131E+04  0.29346896131E+04  0.00000000000E+00 0.  1.
         23    2    1    2    0    0  0.10698262877E+04 -0.12266021756E+03 -0.18356880450E+04  0.21301994208E+04  0.91788664773E+02 0.  0.
         13    1    3    3    0    0  0.85713115629E+03 -0.12309071687E+03 -0.14184040648E+04  0.16618349000E+04  0.00000000000E+00 0.  1.
        -13    1    3    3    0    0  0.21269513145E+03  0.43049930819E+00 -0.41728398019E+03  0.46836452085E+03  0.00000000000E+00 0. -1.
         22    1    1    2    0    0 -0.10698262877E+04  0.12266021756E+03 -0.64715464452E+03  0.12563371159E+04  0.00000000000E+00 0. -1.
<mgrwt>
<rscale>  0 0.23030679E+04</rscale>
<asrwt>0</asrwt>
<pdfrwt beam="1">  1        2 0.45149071E+00 0.23030679E+04</pdfrwt>
<pdfrwt beam="2">  1       -2 0.69514911E-01 0.23030679E+04</pdfrwt>
<totfact> 0.32734771E+00</totfact>
</mgrwt>
</event>
<event>
 6    1  0.5196787E-004  0.6068229E+03  0.7818608E-02  0.9891351E-01
          1   -1    0    0  501    0  0.00000000000E+00  0.00000000000E+00  0.63457595257E+03  0.63457595257E+03  0.00000000000E+00 0.  1.
         -1   -1    0    0    0  501 -0.00000000000E+00 -0.00000000000E+00 -0.14507091426E+03  0.14507091426E+03  0.00000000000E+00 0. -1.
         23    2    1    2    0    0 -0.11690571599E+03 -0.13369522562E+03 -0.54378075502E+02  0.20750160443E+03  0.92512598932E+02 0.  0.
         11    1    3    3    0    0 -0.85125873556E+02 -0.28931804237E+02 -0.34125119797E+02  0.96166456970E+02  0.00000000000E+00 0. -1.
        -11    1    3    3    0    0 -0.31779842433E+02 -0.10476342139E+03 -0.20252955705E+02  0.11133514746E+03  0.00000000000E+00 0.  1.
         22    1    1    2    0    0  0.11690571599E+03  0.13369522562E+03  0.54388311381E+03  0.57214526239E+03  0.00000000000E+00 0.  1.
<mgrwt>
<rscale>  0 0.60682292E+03</rscale>
<asrwt>0</asrwt>
<pdfrwt beam="1">  1        1 0.97627068E-01 0.60682292E+03</pdfrwt>
<pdfrwt beam="2">  1       -1 0.22318602E-01 0.60682292E+03</pdfrwt>
<totfact> 0.54180068E+02</totfact>
</mgrwt>
</event>
<event>
 6    1  0.5196787E-004  0.2366240E+04  0.7818608E-02  0.8452252E-01
          2   -1    0    0  501    0  0.00000000000E+00  0.00000000000E+00  0.13812297062E+04  0.13812297062E+04  0.00000000000E+00 0.  1.
         -2   -1    0    0    0  501 -0.00000000000E+00 -0.00000000000E+00 -0.10134254670E+04  0.10134254670E+04  0.00000000000E+00 0. -1.
         23    2    1    2    0    0  0.10009573706E+03 -0.37090536788E+03 -0.94642969673E+03  0.10254215238E+04  0.90389059277E+02 0.  0.
         11    1    3    3    0    0  0.21399707233E+02 -0.15609453341E+03 -0.28651640797E+03  0.32697874987E+03  0.00000000000E+00 0.  1.
        -11    1    3    3    0    0  0.78696029826E+02 -0.21481083447E+03 -0.65991328877E+03  0.69844277389E+03  0.00000000000E+00 0. -1.
         22    1    1    2    0    0 -0.10009573706E+03  0.37090536788E+03  0.13142339360E+04  0.13692336495E+04  0.00000000000E+00 0.  1.
<mgrwt>
<rscale>  0 0.23662404E+04</rscale>
<asrwt>0</asrwt>
<pdfrwt beam="1">  1        2 0.21249688E+00 0.23662404E+04</pdfrwt>
<pdfrwt beam="2">  1       -2 0.15591161E+00 0.23662404E+04</pdfrwt>
<totfact> 0.36150104E+00</totfact>
</mgrwt>
</event>
<event>
 6    1  0.5196787E-004  0.4871556E+04  0.7818608E-02  0.7848632E-01
          2   -1    0    0  501    0  0.00000000000E+00  0.00000000000E+00  0.33975117490E+04  0.33975117490E+04  0.00000000000E+00 0.  1.
         -2   -1    0    0    0  501 -0.00000000000E+00 -0.00000000000E+00 -0.17462823949E+04  0.17462823949E+04  0.00000000000E+00 0. -1.
         23    2    1    2    0    0 -0.72642161832E+03 -0.13099788941E+04 -0.12009874771E+04  0.19221681689E+04  0.92878839269E+02 0.  0.
         13    1    3    3    0    0 -0.20640937236E+03 -0.29106052600E+03 -0.28114836764E+03  0.45427465637E+03  0.00000000000E+00 0. -1.
        -13    1    3    3    0    0 -0.52001224597E+03 -0.10189183681E+04 -0.91983910951E+03  0.14678935125E+04  0.00000000000E+00 0.  1.
         22    1    1    2    0    0  0.72642161832E+03  0.13099788941E+04  0.28522168312E+04  0.32216259750E+04  0.00000000000E+00 0.  1.
<mgrwt>
<rscale>  0 0.48715562E+04</rscale>
<asrwt>0</asrwt>
<pdfrwt beam="1">  1        2 0.52269412E+00 0.48715562E+04</pdfrwt>
<pdfrwt beam="2">  1       -2 0.26865883E+00 0.48715562E+04</pdfrwt>
<totfact> 0.34713426E-02</totfact>
</mgrwt>
</event>
<event>
 6    1  0.5196787E-004  0.2499694E+04  0.7818608E-02  0.8403094E-01
         -1   -1    0    0    0  501 -0.00000000000E+00  0.00000000000E+00  0.10721588553E+04  0.10721588553E+04  0.00000000000E+00 0. -1.
          1   -1    0    0  501    0  0.00000000000E+00 -0.00000000000E+00 -0.14569835778E+04  0.14569835778E+04  0.00000000000E+00 0.  1.
         23    2    1    2    0    0  0.25078282182E+03  0.48684455903E+01 -0.14298105988E+04  0.14544744812E+04  0.90674927417E+02 0.  0.
         11    1    3    3    0    0  0.13208148326E+03  0.38682309784E+02 -0.60331516456E+03  0.61881421048E+03  0.00000000000E+00 0. -1.
        -11    1    3    3    0    0  0.11870133856E+03 -0.33813864194E+02 -0.82649543423E+03  0.83566027068E+03  0.00000000000E+00 0.  1.
         22    1    1    2    0    0 -0.25078282182E+03 -0.48684455903E+01  0.10449858763E+04  0.10746679520E+04  0.00000000000E+00 0. -1.
<mgrwt>
<rscale>  0 0.24996943E+04</rscale>
<asrwt>0</asrwt>
<pdfrwt beam="1">  1        1 0.22415132E+00 0.24996943E+04</pdfrwt>
<pdfrwt beam="2">  1       -1 0.16494752E+00 0.24996943E+04</pdfrwt>
<totfact> 0.16701937E+00</totfact>
</mgrwt>
</event>
<event>
 6    1  0.5196787E-004  0.2617071E+04  0.7818608E-02  0.8362426E-01
         -2   -1    0    0    0  501 -0.00000000000E+00  0.00000000000E+00  0.15302287654E+04  0.15302287654E+04  0.00000000000E+00 0. -1.
          2   -1    0    0  501    0  0.00000000000E+00 -0.00000000000E+00 -0.11189601635E+04  0.11189601635E+04  0.00000000000E+00 0.  1.
         23    2    1    2    0    0  0.12486903884E+04  0.20461444349E+03 -0.12528481533E+03  0.12747856671E+04  0.91035463522E+02 0.  0.
         13    1    3    3    0    0  0.30019745675E+03  0.20309608189E+02 -0.34694066675E+01  0.30090368892E+03  0.00000000000E+00 0.  1.
        -13    1    3    3    0    0  0.94849293164E+03  0.18430483531E+03 -0.12181540866E+03  0.97388197821E+03  0.00000000000E+00 0. -1.
         22    1    1    2    0    0 -0.12486903884E+04 -0.20461444349E+03  0.53655341716E+03  0.13744032618E+04  0.00000000000E+00 0. -1.
<mgrwt>
<rscale>  0 0.26170709E+04</rscale>
<asrwt>0</asrwt>
<pdfrwt beam="1">  1        2 0.17214772E+00 0.26170709E+04</pdfrwt>
<pdfrwt beam="2">  1       -2 0.23541981E+00 0.26170709E+04</pdfrwt>
<totfact> 0.14815153E+00</totfact>
</mgrwt>
</event>
<event>
 6    1  0.5196787E-004  0.3662920E+04  0.7818608E-02  0.8076229E-01
         -2   -1    0    0    0  501 -0.00000000000E+00  0.00000000000E+00  0.18494334800E+04  0.18494334800E+04  0.00000000000E+00 0. -1.
          2   -1    0    0  501    0  0.00000000000E+00 -0.00000000000E+00 -0.18136607077E+04  0.18136607077E+04  0.00000000000E+00 0.  1.
         23    2    1    2    0    0 -0.89065246465E+03 -0.15264307449E+04  0.49402621182E+03  0.18373754672E+04  0.92919738680E+02 0.  0.
         13    1    3    3    0    0 -0.66167159739E+03 -0.10677178982E+04  0.32402813338E+03  0.12972374664E+04  0.00000000000E+00 0. -1.
        -13    1    3    3    0    0 -0.22898086727E+03 -0.45871284663E+03  0.16999807844E+03  0.54013800080E+03  0.00000000000E+00 0.  1.
         22    1    1    2    0    0  0.89065246465E+03  0.15264307449E+04 -0.45825343949E+03  0.18257187205E+04  0.00000000000E+00 0.  1.
<mgrwt>
<rscale>  0 0.36629195E+04</rscale>
<asrwt>0</asrwt>
<pdfrwt beam="1">  1        2 0.27902472E+00 0.36629195E+04</pdfrwt>
<pdfrwt beam="2">  1       -2 0.28452823E+00 0.36629195E+04</pdfrwt>
<totfact> 0.27170284E-01</totfact>
</mgrwt>
</event>
<event>
 6    1  0.5196787E-004  0.3852110E+04  0.7818608E-02  0.8035064E-01
         -1   -1    0    0    0  501 -0.00000000000E+00  0.00000000000E+00  0.13708986839E+04  0.13708986839E+04  0.00000000000E+00 0. -1.
          1   -1    0    0  501    0  0.00000000000E+00 -0.00000000000E+00 -0.27060262144E+04  0.27060262144E+04  0.00000000000E+00 0.  1.
         23    2    1    2    0    0 -0.12529464561E+04 -0.25002457563E+02  0.87833515863E+03  0.15333217412E+04  0.95409468195E+02 0.  0.
         11    1    3    3    0    0 -0.34375998884E+03  0.16192809063E+02  0.19811647750E+03  0.39709353514E+03  0.00000000000E+00 0.  1.
        -11    1    3    3    0    0 -0.90918646722E+03 -0.41195266626E+02  0.68021868113E+03  0.11362282061E+04  0.00000000000E+00 0. -1.
         22    1    1    2    0    0  0.12529464561E+04  0.25002457563E+02 -0.22134626891E+04  0.25436031571E+04  0.00000000000E+00 0.  1.
<mgrwt>
<rscale>  0 0.38521100E+04</rscale>
<asrwt>0</asrwt>
<pdfrwt beam="1">  1        1 0.41631172E+00 0.38521100E+04</pdfrwt>
<pdfrwt beam="2">  1       -1 0.21090749E+00 0.38521100E+04</pdfrwt>
<totfact> 0.97562822E-02</totfact>
</mgrwt>
</event>
<event>
 6    1  0.5196787E-004  0.4991965E+04  0.7818608E-02  0.7829748E-01
          2   -1    0    0  501    0  0.00000000000E+00  0.00000000000E+00  0.39398948999E+04  0.39398948999E+04  0.00000000000E+00 0.  1.
         -2   -1    0    0    0  501 -0.00000000000E+00 -0.00000000000E+00 -0.15812421229E+04  0.15812421229E+04  0.00000000000E+00 0. -1.
         23    2    1    2    0    0  0.15065296249E+04 -0.17473065543E+04  0.12876343786E+03  0.23125363668E+04  0.92372718756E+02 0.  0.
         11    1    3    3    0    0  0.10380357110E+04 -0.12176316942E+04  0.47552080254E+02  0.16007517860E+04  0.00000000000E+00 0.  1.
        -11    1    3    3    0    0  0.46849391392E+03 -0.52967486011E+03  0.81211357601E+02  0.71178458076E+03  0.00000000000E+00 0. -1.
         22    1    1    2    0    0 -0.15065296249E+04  0.17473065543E+04  0.22298893391E+04  0.32086006561E+04  0.00000000000E+00 0.  1.
<mgrwt>
<rscale>  0 0.49919647E+04</rscale>
<asrwt>0</asrwt>
<pdfrwt beam="1">  1        2 0.60613767E+00 0.49919647E+04</pdfrwt>
<pdfrwt beam="2">  1       -2 0.24326802E+00 0.49919647E+04</pdfrwt>
<totfact> 0.19608683E-02</totfact>
</mgrwt>
</event>
<event>
 6    1  0.5196787E-004  0.2513619E+04  0.7818608E-02  0.8398150E-01
          2   -1    0    0  501    0  0.00000000000E+00  0.00000000000E+00  0.10005834243E+04  0.10005834243E+04  0.00000000000E+00 0.  1.
         -2   -1    0    0    0  501 -0.00000000000E+00 -0.00000000000E+00 -0.15786494358E+04  0.15786494358E+04  0.00000000000E+00 0. -1.
         23    2    1    2    0    0  0.15485174852E+03  0.85132796308E+03 -0.12223626365E+04  0.15004110464E+04  0.91238852606E+02 0.  0.
         11    1    3    3    0    0  0.72248208006E+02  0.18977611782E+03 -0.30341935807E+03  0.36510010313E+03  0.00000000000E+00 0. -1.
        -11    1    3    3    0    0  0.82603540516E+02  0.66155184527E+03 -0.91894327846E+03  0.11353109433E+04  0.00000000000E+00 0.  1.
         22    1    1    2    0    0 -0.15485174852E+03 -0.85132796308E+03  0.64429662505E+03  0.10788218137E+04  0.00000000000E+00 0.  1.
<mgrwt>
<rscale>  0 0.25136193E+04</rscale>
<asrwt>0</asrwt>
<pdfrwt beam="1">  1        2 0.15393591E+00 0.25136193E+04</pdfrwt>
<pdfrwt beam="2">  1       -2 0.24286914E+00 0.25136193E+04</pdfrwt>
<totfact> 0.15940816E+00</totfact>
</mgrwt>
</event>
<event>
 6    1  0.5196787E-004  0.3282706E+04  0.7818608E-02  0.8167310E-01
          2   -1    0    0  501    0  0.00000000000E+00  0.00000000000E+00  0.32017554099E+04  0.32017554099E+04  0.00000000000E+00 0.  1.
         -2   -1    0    0    0  501 -0.00000000000E+00 -0.00000000000E+00 -0.84142574585E+03  0.84142574585E+03  0.00000000000E+00 0. -1.
         23    2    1    2    0    0  0.78946591240E+03  0.73222387313E+03  0.27047906914E+04  0.29126672785E+04  0.91267537881E+02 0.  0.
         13    1    3    3    0    0  0.66593401912E+03  0.61402904767E+03  0.23586868233E+04  0.25266387395E+04  0.00000000000E+00 0.  1.
        -13    1    3    3    0    0  0.12353189328E+03  0.11819482546E+03  0.34610386808E+03  0.38602853900E+03  0.00000000000E+00 0. -1.
         22    1    1    2    0    0 -0.78946591240E+03 -0.73222387313E+03 -0.34446102740E+03  0.11305138772E+04  0.00000000000E+00 0. -1.
<mgrwt>
<rscale>  0 0.32827059E+04</rscale>
<asrwt>0</asrwt>
<pdfrwt beam="1">  1        2 0.49257775E+00 0.32827059E+04</pdfrwt>
<pdfrwt beam="2">  1       -2 0.12945012E+00 0.32827059E+04</pdfrwt>
<totfact> 0.47439586E-01</totfact>
</mgrwt>
</event>
<event>
 6    1  0.5196787E-004  0.5024600E+03  0.7818608E-02  0.1013139E+00
         -2   -1    0    0    0  501 -0.00000000000E+00  0.00000000000E+00  0.48885477423E+02  0.48885477423E+02  0.00000000000E+00 0.  1.
          2   -1    0    0  501    0  0.00000000000E+00 -0.00000000000E+00 -0.12911098103E+04  0.12911098103E+04  0.00000000000E+00 0. -1.
         23    2    1    2    0    0 -0.22616836522E+03 -0.84550809634E+02 -0.56971365940E+03  0.62545237454E+03  0.91192380602E+02 0.  0.
         11    1    3    3    0    0 -0.43721172825E+02 -0.10697705088E+02 -0.21621711509E+03  0.22085249083E+03  0.00000000000E+00 0. -1.
        -11    1    3    3    0    0 -0.18244719239E+03 -0.73853104546E+02 -0.35349654431E+03  0.40459988371E+03  0.00000000000E+00 0.  1.
         22    1    1    2    0    0  0.22616836522E+03  0.84550809634E+02 -0.67251067347E+03  0.71454291317E+03  0.00000000000E+00 0.  1.
<mgrwt>
<rscale>  0 0.50246003E+03</rscale>
<asrwt>0</asrwt>
<pdfrwt beam="1">  1        2 0.19863226E+00 0.50246003E+03</pdfrwt>
<pdfrwt beam="2">  1       -2 0.75208433E-02 0.50246003E+03</pdfrwt>
<totfact> 0.18413131E+03</totfact>
</mgrwt>
</event>
<event>
 6    1  0.5196787E-004  0.1195292E+04  0.7818608E-02  0.9116988E-01
          2   -1    0    0  501    0  0.00000000000E+00  0.00000000000E+00  0.22032179618E+04  0.22032179618E+04  0.00000000000E+00 0.  1.
         -2   -1    0    0    0  501 -0.00000000000E+00 -0.00000000000E+00 -0.16211768139E+03  0.16211768139E+03  0.00000000000E+00 0. -1.
         23    2    1    2    0    0 -0.24542551859E+03 -0.51368931961E+03  0.13643300309E+04  0.14809554236E+04  0.87875657016E+02 0.  0.
         13    1    3    3    0    0 -0.10710617019E+03 -0.32179101564E+03  0.82893058893E+03  0.89562665811E+03  0.00000000000E+00 0. -1.
        -13    1    3    3    0    0 -0.13831934841E+03 -0.19189830396E+03  0.53539944199E+03  0.58532876547E+03  0.00000000000E+00 0.  1.
         22    1    1    2    0    0  0.24542551859E+03  0.51368931961E+03  0.67677024947E+03  0.88438021960E+03  0.00000000000E+00 0. -1.
<mgrwt>
<rscale>  0 0.11952917E+04</rscale>
<asrwt>0</asrwt>
<pdfrwt beam="1">  1        2 0.33895659E+00 0.11952917E+04</pdfrwt>
<pdfrwt beam="2">  1       -2 0.24941183E-01 0.11952917E+04</pdfrwt>
<totfact> 0.73353660E+01</totfact>
</mgrwt>
</event>
<event>
 6    1  0.5196787E-004  0.3376006E+04  0.7818608E-02  0.8143820E-01
         -2   -1    0    0    0  501 -0.00000000000E+00  0.00000000000E+00  0.13037481666E+04  0.13037481666E+04  0.00000000000E+00 0. -1.
          2   -1    0    0  501    0  0.00000000000E+00 -0.00000000000E+00 -0.21855094338E+04  0.21855094338E+04  0.00000000000E+00 0.  1.
         23    2    1    2    0    0 -0.62680188750E+03 -0.90672601110E+03 -0.17607983675E+04  0.20793856597E+04  0.91657872230E+02 0.  0.
         13    1    3    3    0    0 -0.50357459674E+03 -0.78643008560E+03 -0.14802974548E+04  0.17502400432E+04  0.00000000000E+00 0. -1.
        -13    1    3    3    0    0 -0.12322729076E+03 -0.12029592550E+03 -0.28050091268E+03  0.32914561655E+03  0.00000000000E+00 0.  1.
         22    1    1    2    0    0  0.62680188750E+03  0.90672601110E+03  0.87903710035E+03  0.14098719407E+04  0.00000000000E+00 0. -1.
<mgrwt>
<rscale>  0 0.33760059E+04</rscale>
<asrwt>0</asrwt>
<pdfrwt beam="1">  1        2 0.33623222E+00 0.33760059E+04</pdfrwt>
<pdfrwt beam="2">  1       -2 0.20057664E+00 0.33760059E+04</pdfrwt>
<totfact> 0.57584652E-01</totfact>
</mgrwt>
</event>
<event>
 6    1  0.5196787E-004  0.8275544E+03  0.7818608E-02  0.9520968E-01
         -2   -1    0    0    0  501 -0.00000000000E+00  0.00000000000E+00  0.18526575349E+03  0.18526575349E+03  0.00000000000E+00 0. -1.
          2   -1    0    0  501    0  0.00000000000E+00 -0.00000000000E+00 -0.92414047325E+03  0.92414047325E+03  0.00000000000E+00 0.  1.
         23    2    1    2    0    0 -0.85549744561E+02  0.33050096710E+03 -0.72831055469E+02  0.36096530669E+03  0.91880041048E+02 0.  0.
         11    1    3    3    0    0 -0.37423809963E+02  0.21749787512E+03 -0.52071599129E+01  0.22075547954E+03  0.00000000000E+00 0. -1.
        -11    1    3    3    0    0 -0.48125934598E+02  0.11300309198E+03 -0.67623895556E+02  0.14020982715E+03  0.00000000000E+00 0.  1.
         22    1    1    2    0    0  0.85549744561E+02 -0.33050096710E+03 -0.66604366429E+03  0.74844092004E+03  0.00000000000E+00 0.  1.
<mgrwt>
<rscale>  0 0.82755442E+03</rscale>
<asrwt>0</asrwt>
<pdfrwt beam="1">  1        2 0.14217546E+00 0.82755442E+03</pdfrwt>
<pdfrwt beam="2">  1       -2 0.28502424E-01 0.82755442E+03</pdfrwt>
<totfact> 0.31965943E+02</totfact>
</mgrwt>
</event>
<event>
 6    1  0.5196787E-004  0.3310188E+04  0.7818608E-02  0.8160308E-01
          2   -1    0    0  501    0  0.00000000000E+00  0.00000000000E+00  0.25602276690E+04  0.25602276690E+04  0.00000000000E+00 0.  1.
         -2   -1    0    0    0  501 -0.00000000000E+00 -0.00000000000E+00 -0.10699580884E+04  0.10699580884E+04  0.00000000000E+00 0. -1.
         23    2    1    2    0    0  0.27741156330E+03 -0.12125349043E+04  0.19410420244E+04  0.23071612430E+04  0.90281731392E+02 0.  0.
         13    1    3    3    0    0  0.79127850174E+02 -0.46925094199E+03  0.80576649864E+03  0.93579768837E+03  0.00000000000E+00 0. -1.
        -13    1    3    3    0    0  0.19828371313E+03 -0.74328396232E+03  0.11352755258E+04  0.13713635546E+04  0.00000000000E+00 0.  1.
         22    1    1    2    0    0 -0.27741156330E+03  0.12125349043E+04 -0.45077244385E+03  0.13230245144E+04  0.00000000000E+00 0. -1.
<mgrwt>
<rscale>  0 0.33101881E+04</rscale>
<asrwt>0</asrwt>
<pdfrwt beam="1">  1        2 0.39388118E+00 0.33101881E+04</pdfrwt>
<pdfrwt beam="2">  1       -2 0.16460894E+00 0.33101881E+04</pdfrwt>
<totfact> 0.62432308E-01</totfact>
</mgrwt>
</event>
<event>
 6    1  0.5196787E-004  0.6241554E+03  0.7818608E-02  0.9856521E-01
         -2   -1    0    0    0  501 -0.00000000000E+00  0.00000000000E+00  0.12185933104E+03  0.12185933104E+03  0.00000000000E+00 0. -1.
          2   -1    0    0  501    0  0.00000000000E+00 -0.00000000000E+00 -0.79922068252E+03  0.79922068252E+03  0.00000000000E+00 0.  1.
         23    2    1    2    0    0  0.53659755554E+02 -0.14581372964E+03 -0.73375421939E+03  0.75578885025E+03  0.93169300534E+02 0.  0.
         13    1    3    3    0    0  0.15345585086E+02 -0.13303984680E+03 -0.63732198562E+03  0.65124066303E+03  0.00000000000E+00 0. -1.
        -13    1    3    3    0    0  0.38314170468E+02 -0.12773882836E+02 -0.96432233771E+02  0.10454818722E+03  0.00000000000E+00 0.  1.
         22    1    1    2    0    0 -0.53659755554E+02  0.14581372964E+03  0.56392867922E+02  0.16529116331E+03  0.00000000000E+00 0. -1.
<mgrwt>
<rscale>  0 0.62415542E+03</rscale>
<asrwt>0</asrwt>
<pdfrwt beam="1">  1        2 0.12295702E+00 0.62415542E+03</pdfrwt>
<pdfrwt beam="2">  1       -2 0.18747590E-01 0.62415542E+03</pdfrwt>
<totfact> 0.82884607E+02</totfact>
</mgrwt>
</event>
<event>
 6    1  0.5196787E-004  0.3458308E+04  0.7818608E-02  0.8123742E-01
         -2   -1    0    0    0  501 -0.00000000000E+00  0.00000000000E+00  0.10532993591E+04  0.10532993591E+04  0.00000000000E+00 0. -1.
          2   -1    0    0  501    0  0.00000000000E+00 -0.00000000000E+00 -0.28386743344E+04  0.28386743344E+04  0.00000000000E+00 0.  1.
         23    2    1    2    0    0 -0.61826147525E+03  0.50333792612E+03 -0.26185639185E+04  0.27388040899E+04  0.92598746672E+02 0.  0.
         11    1    3    3    0    0 -0.25571080954E+03  0.19748344138E+03 -0.12167142481E+04  0.12588809671E+04  0.00000000000E+00 0.  1.
        -11    1    3    3    0    0 -0.36255066571E+03  0.30585448474E+03 -0.14018496704E+04  0.14799231228E+04  0.00000000000E+00 0. -1.
         22    1    1    2    0    0  0.61826147525E+03 -0.50333792612E+03  0.83318894315E+03  0.11531696036E+04  0.00000000000E+00 0. -1.
<mgrwt>
<rscale>  0 0.34583082E+04</rscale>
<asrwt>0</asrwt>
<pdfrwt beam="1">  1        2 0.43671913E+00 0.34583082E+04</pdfrwt>
<pdfrwt beam="2">  1       -2 0.16204605E+00 0.34583082E+04</pdfrwt>
<totfact> 0.43922859E-01</totfact>
</mgrwt>
</event>
<event>
 6    1  0.5196787E-004  0.4639674E+04  0.7818608E-02  0.7886630E-01
          2   -1    0    0  501    0  0.00000000000E+00  0.00000000000E+00  0.30255038973E+04  0.30255038973E+04  0.00000000000E+00 0.  1.
         -2   -1    0    0    0  501 -0.00000000000E+00 -0.00000000000E+00 -0.17787595330E+04  0.17787595330E+04  0.00000000000E+00 0. -1.
         23    2    1    2    0    0  0.93531857116E+03 -0.69158081581E+02  0.28195914525E+04  0.29730202370E+04  0.95654070270E+02 0.  0.
         11    1    3    3    0    0  0.25392181010E+03 -0.19431846131E+01  0.89165156334E+03  0.92710440190E+03  0.00000000000E+00 0.  1.
        -11    1    3    3    0    0  0.68139676107E+03 -0.67214896968E+02  0.19279398891E+04  0.20459158351E+04  0.00000000000E+00 0. -1.
         22    1    1    2    0    0 -0.93531857116E+03  0.69158081581E+02 -0.15728470882E+04  0.18312431932E+04  0.00000000000E+00 0. -1.
<mgrwt>
<rscale>  0 0.46396741E+04</rscale>
<asrwt>0</asrwt>
<pdfrwt beam="1">  1        2 0.46546214E+00 0.46396741E+04</pdfrwt>
<pdfrwt beam="2">  1       -2 0.27365531E+00 0.46396741E+04</pdfrwt>
<totfact> 0.57846962E-02</totfact>
</mgrwt>
</event>
<event>
 6    1  0.5196787E-004  0.2535775E+04  0.7818608E-02  0.8390350E-01
          2   -1    0    0  501    0  0.00000000000E+00  0.00000000000E+00  0.20054190014E+04  0.20054190014E+04  0.00000000000E+00 0.  1.
         -2   -1    0    0    0  501 -0.00000000000E+00 -0.00000000000E+00 -0.80159760727E+03  0.80159760727E+03  0.00000000000E+00 0. -1.
         23    2    1    2    0    0  0.55315246658E+03 -0.58203749793E+03 -0.48122107092E+03  0.94043861425E+03  0.90032037619E+02 0.  0.
         13    1    3    3    0    0  0.14402631976E+03 -0.17809242240E+03 -0.95834775568E+02  0.24828370045E+03  0.00000000000E+00 0.  1.
        -13    1    3    3    0    0  0.40912614682E+03 -0.40394507553E+03 -0.38538629535E+03  0.69215491380E+03  0.00000000000E+00 0. -1.
         22    1    1    2    0    0 -0.55315246658E+03  0.58203749793E+03  0.16850424651E+04  0.18665779945E+04  0.00000000000E+00 0.  1.
<mgrwt>
<rscale>  0 0.25357753E+04</rscale>
<asrwt>0</asrwt>
<pdfrwt beam="1">  1        2 0.30852600E+00 0.25357753E+04</pdfrwt>
<pdfrwt beam="2">  1       -2 0.12332271E+00 0.25357753E+04</pdfrwt>
<totfact> 0.29265591E+00</totfact>
</mgrwt>
</event>
<event>
 6    1  0.5196787E-004  0.1543065E+04  0.7818608E-02  0.8856310E-01
         -2   -1    0    0    0  501 -0.00000000000E+00  0.00000000000E+00  0.26486393266E+03  0.26486393266E+03  0.00000000000E+00 0. -1.
          2   -1    0    0  501    0  0.00000000000E+00 -0.00000000000E+00 -0.22474274041E+04  0.22474274041E+04  0.00000000000E+00 0.  1.
         23    2    1    2    0    0  0.33262336137E+03 -0.57267304473E+03 -0.35911204952E+03  0.75895530621E+03  0.91972691674E+02 0.  0.
         13    1    3    3    0    0  0.26224627271E+03 -0.48986547326E+03 -0.33077425879E+03  0.64664743077E+03  0.00000000000E+00 0.  1.
        -13    1    3    3    0    0  0.70377088661E+02 -0.82807571474E+02 -0.28337790732E+02  0.11230787544E+03  0.00000000000E+00 0. -1.
         22    1    1    2    0    0 -0.33262336137E+03  0.57267304473E+03 -0.16234514219E+04  0.17533360305E+04  0.00000000000E+00 0.  1.
<mgrwt>
<rscale>  0 0.15430651E+04</rscale>
<asrwt>0</asrwt>
<pdfrwt beam="1">  1        2 0.34575806E+00 0.15430651E+04</pdfrwt>
<pdfrwt beam="2">  1       -2 0.40748298E-01 0.15430651E+04</pdfrwt>
<totfact> 0.26697146E+01</totfact>
</mgrwt>
</event>
<event>
 6    1  0.5196787E-004  0.5783275E+03  0.7818608E-02  0.9951419E-01
         -2   -1    0    0    0  501 -0.00000000000E+00  0.00000000000E+00  0.57692632521E+02  0.57692632521E+02  0.00000000000E+00 0. -1.
          2   -1    0    0  501    0  0.00000000000E+00 -0.00000000000E+00 -0.14493299665E+04  0.14493299665E+04  0.00000000000E+00 0.  1.
         23    2    1    2    0    0  0.14404556538E+03  0.18758743757E+03 -0.32580095315E+03  0.41526009630E+03  0.10176696354E+03 0.  0.
         11    1    3    3    0    0 -0.11120121113E+02  0.11593012725E+02 -0.32332493981E+01  0.16386242378E+02  0.00000000000E+00 0. -1.
        -11    1    3    3    0    0  0.15516568649E+03  0.17599442485E+03 -0.32256770375E+03  0.39887385393E+03  0.00000000000E+00 0.  1.
         22    1    1    2    0    0 -0.14404556538E+03 -0.18758743757E+03 -0.10658363809E+04  0.10917625027E+04  0.00000000000E+00 0.  1.
<mgrwt>
<rscale>  0 0.57832745E+03</rscale>
<asrwt>0</asrwt>
<pdfrwt beam="1">  1        2 0.22297384E+00 0.57832745E+03</pdfrwt>
<pdfrwt beam="2">  1       -2 0.88757898E-02 0.57832745E+03</pdfrwt>
<totfact> 0.11495096E+03</totfact>
</mgrwt>
</event>
<event>
 6    1  0.5196787E-004  0.1936168E+04  0.7818608E-02  0.8637060E-01
          2   -1    0    0  501    0  0.00000000000E+00  0.00000000000E+00  0.19914227091E+04  0.19914227091E+04  0.00000000000E+00 0.  1.
         -2   -1    0    0    0  501 -0.00000000000E+00 -0.00000000000E+00 -0.47061164150E+03  0.47061164150E+03  0.00000000000E+00 0. -1.
         23    2    1    2    0    0 -0.71184632214E+03 -0.22254251522E+03 -0.18514977799E+02  0.75154464543E+03  0.90698358559E+02 0.  0.
         13    1    3    3    0    0 -0.29846540434E+03 -0.91434083349E+02  0.36958760242E+02  0.31433698342E+03  0.00000000000E+00 0.  1.
        -13    1    3    3    0    0 -0.41338091780E+03 -0.13110843187E+03 -0.55473738041E+02  0.43720766201E+03  0.00000000000E+00 0. -1.
         22    1    1    2    0    0  0.71184632214E+03  0.22254251522E+03  0.15393260454E+04  0.17104897052E+04  0.00000000000E+00 0.  1.
<mgrwt>
<rscale>  0 0.19361681E+04</rscale>
<asrwt>0</asrwt>
<pdfrwt beam="1">  1        2 0.30637272E+00 0.19361681E+04</pdfrwt>
<pdfrwt beam="2">  1       -2 0.72401792E-01 0.19361681E+04</pdfrwt>
<totfact> 0.10888866E+01</totfact>
</mgrwt>
</event>
<event>
 6    1  0.5196787E-004  0.2170570E+04  0.7818608E-02  0.8530778E-01
         -2   -1    0    0    0  501 -0.00000000000E+00  0.00000000000E+00  0.87039043301E+03  0.87039043301E+03  0.00000000000E+00 0. -1.
          2   -1    0    0  501    0  0.00000000000E+00 -0.00000000000E+00 -0.13532353307E+04  0.13532353307E+04  0.00000000000E+00 0.  1.
         23    2    1    2    0    0  0.64006936977E+03  0.43388394549E+03 -0.10190071600E+04  0.12826613395E+04  0.94342161604E+02 0.  0.
         13    1    3    3    0    0  0.43492575938E+03  0.32400813010E+03 -0.77009418032E+03  0.94190590353E+03  0.00000000000E+00 0.  1.
        -13    1    3    3    0    0  0.20514361039E+03  0.10987581539E+03 -0.24891297966E+03  0.34075543596E+03  0.00000000000E+00 0. -1.
         22    1    1    2    0    0 -0.64006936977E+03 -0.43388394549E+03  0.53616226225E+03  0.94096442427E+03  0.00000000000E+00 0. -1.
<mgrwt>
<rscale>  0 0.21705696E+04</rscale>
<asrwt>0</asrwt>
<pdfrwt beam="1">  1        2 0.20819005E+00 0.21705696E+04</pdfrwt>
<pdfrwt beam="2">  1       -2 0.13390622E+00 0.21705696E+04</pdfrwt>
<totfact> 0.56829402E+00</totfact>
</mgrwt>
</event>
<event>
 6    1  0.5196787E-004  0.4703806E+04  0.7818608E-02  0.7875897E-01
         -2   -1    0    0    0  501 -0.00000000000E+00  0.00000000000E+00  0.19742126334E+04  0.19742126334E+04  0.00000000000E+00 0. -1.
          2   -1    0    0  501    0  0.00000000000E+00 -0.00000000000E+00 -0.28018499500E+04  0.28018499500E+04  0.00000000000E+00 0.  1.
         23    2    1    2    0    0 -0.90900283074E+03 -0.73342701798E+03  0.16578180561E+04  0.20298488724E+04  0.87888568308E+02 0.  0.
         11    1    3    3    0    0 -0.57457928273E+03 -0.43965839395E+03  0.95890204412E+03  0.12012218720E+04  0.00000000000E+00 0. -1.
        -11    1    3    3    0    0 -0.33442354800E+03 -0.29376862404E+03  0.69891601200E+03  0.82862700038E+03  0.00000000000E+00 0.  1.
         22    1    1    2    0    0  0.90900283074E+03  0.73342701798E+03 -0.24854553728E+04  0.27462137111E+04  0.00000000000E+00 0.  1.
<mgrwt>
<rscale>  0 0.47038059E+04</rscale>
<asrwt>0</asrwt>
<pdfrwt beam="1">  1        2 0.43105384E+00 0.47038059E+04</pdfrwt>
<pdfrwt beam="2">  1       -2 0.30372502E+00 0.47038059E+04</pdfrwt>
<totfact> 0.51830954E-02</totfact>
</mgrwt>
</event>
<event>
 6    1  0.5196787E-004  0.2020381E+04  0.7818608E-02  0.8597151E-01
          2   -1    0    0  501    0  0.00000000000E+00  0.00000000000E+00  0.17673644105E+04  0.17673644105E+04  0.00000000000E+00 0.  1.
         -2   -1    0    0    0  501 -0.00000000000E+00 -0.00000000000E+00 -0.57740476172E+03  0.57740476172E+03  0.00000000000E+00 0. -1.
         23    2    1    2    0    0 -0.27506801568E+03 -0.45590693488E+03  0.15896491219E+04  0.16789875102E+04  0.92201855033E+02 0.  0.
         13    1    3    3    0    0 -0.66025315740E+02 -0.49038090849E+02  0.21272532033E+03  0.22807046846E+03  0.00000000000E+00 0. -1.
        -13    1    3    3    0    0 -0.20904269994E+03 -0.40686884403E+03  0.13769238015E+04  0.14509170417E+04  0.00000000000E+00 0.  1.
         22    1    1    2    0    0  0.27506801568E+03  0.45590693488E+03 -0.39968947315E+03  0.66578166201E+03  0.00000000000E+00 0. -1.
<mgrwt>
<rscale>  0 0.20203808E+04</rscale>
<asrwt>0</asrwt>
<pdfrwt beam="1">  1        2 0.27190221E+00 0.20203808E+04</pdfrwt>
<pdfrwt beam="2">  1       -2 0.88831503E-01 0.20203808E+04</pdfrwt>
<totfact> 0.90881181E+00</totfact>
</mgrwt>
</event>
<event>
 6    1  0.5196787E-004  0.2399716E+04  0.7818608E-02  0.8439610E-01
         -2   -1    0    0    0  501 -0.00000000000E+00  0.00000000000E+00  0.83569736543E+03  0.83569736543E+03  0.00000000000E+00 0. -1.
          2   -1    0    0  501    0  0.00000000000E+00 -0.00000000000E+00 -0.17227038281E+04  0.17227038281E+04  0.00000000000E+00 0.  1.
         23    2    1    2    0    0  0.10869906840E+04  0.11233187787E+03  0.80013950637E+02  0.10991905584E+04  0.87466870784E+02 0.  0.
         11    1    3    3    0    0  0.95966507033E+03  0.81227410689E+02  0.92494512238E+02  0.96752786743E+03  0.00000000000E+00 0. -1.
        -11    1    3    3    0    0  0.12732561368E+03  0.31104467182E+02 -0.12480561601E+02  0.13166269098E+03  0.00000000000E+00 0.  1.
         22    1    1    2    0    0 -0.10869906840E+04 -0.11233187787E+03 -0.96702041334E+03  0.14592106351E+04  0.00000000000E+00 0. -1.
<mgrwt>
<rscale>  0 0.23997159E+04</rscale>
<asrwt>0</asrwt>
<pdfrwt beam="1">  1        2 0.26503136E+00 0.23997159E+04</pdfrwt>
<pdfrwt beam="2">  1       -2 0.12856883E+00 0.23997159E+04</pdfrwt>
<totfact> 0.38264462E+00</totfact>
</mgrwt>
</event>
<event>
 6    1  0.5196787E-004  0.1299650E+04  0.7818608E-02  0.9029843E-01
          2   -1    0    0  501    0  0.00000000000E+00  0.00000000000E+00  0.58011058180E+03  0.58011058180E+03  0.00000000000E+00 0.  1.
         -2   -1    0    0    0  501 -0.00000000000E+00 -0.00000000000E+00 -0.72791674762E+03  0.72791674762E+03  0.00000000000E+00 0. -1.
         23    2    1    2    0    0  0.24818376679E+03 -0.29589613553E+03  0.44751709449E+03  0.59840807279E+03  0.93118025090E+02 0.  0.
         13    1    3    3    0    0  0.14854389905E+03 -0.10493062127E+03  0.20582483821E+03  0.27466268266E+03  0.00000000000E+00 0. -1.
        -13    1    3    3    0    0  0.99639867741E+02 -0.19096551426E+03  0.24169225628E+03  0.32374539012E+03  0.00000000000E+00 0.  1.
         22    1    1    2    0    0 -0.24818376679E+03  0.29589613553E+03 -0.59532326031E+03  0.70961925663E+03  0.00000000000E+00 0. -1.
<mgrwt>
<rscale>  0 0.12996495E+04</rscale>
<asrwt>0</asrwt>
<pdfrwt beam="1">  1        2 0.89247782E-01 0.12996495E+04</pdfrwt>
<pdfrwt beam="2">  1       -2 0.11198719E+00 0.12996495E+04</pdfrwt>
<totfact> 0.31850974E+01</totfact>
</mgrwt>
</event>
<event>
 6    1  0.5196787E-004  0.1000737E+04  0.7818608E-02  0.9307737E-01
          2   -1    0    0  501    0  0.00000000000E+00  0.00000000000E+00  0.56458985413E+03  0.56458985413E+03  0.00000000000E+00 0.  1.
         -2   -1    0    0    0  501 -0.00000000000E+00 -0.00000000000E+00 -0.44345187454E+03  0.44345187454E+03  0.00000000000E+00 0. -1.
         23    2    1    2    0    0 -0.28606531049E+03 -0.21624980981E+03  0.40645592474E+03  0.54978015278E+03  0.91948113235E+02 0.  0.
         11    1    3    3    0    0 -0.59094794366E+02 -0.18729040955E+02  0.11626858040E+03  0.13176249271E+03  0.00000000000E+00 0.  1.
        -11    1    3    3    0    0 -0.22697051612E+03 -0.19752076886E+03  0.29018734434E+03  0.41801766007E+03  0.00000000000E+00 0. -1.
         22    1    1    2    0    0  0.28606531049E+03  0.21624980981E+03 -0.28531794516E+03  0.45826157589E+03  0.00000000000E+00 0. -1.
<mgrwt>
<rscale>  0 0.10007366E+04</rscale>
<asrwt>0</asrwt>
<pdfrwt beam="1">  1        2 0.86859978E-01 0.10007366E+04</pdfrwt>
<pdfrwt beam="2">  1       -2 0.68223365E-01 0.10007366E+04</pdfrwt>
<totfact> 0.10482227E+02</totfact>
</mgrwt>
</event>
<event>
 6    1  0.5203118E-004  0.4483628E+04  0.7818608E-02  0.7913509E-01
          2   -1    0    0  501    0  0.00000000000E+00  0.00000000000E+00  0.30677284051E+04  0.30677284051E+04  0.00000000000E+00 0.  1.
         -2   -1    0    0    0  501 -0.00000000000E+00 -0.00000000000E+00 -0.16382579402E+04  0.16382579402E+04  0.00000000000E+00 0. -1.
         23    2    1    2    0    0 -0.15114048373E+03  0.13015207853E+04 -0.11930295088E+04  0.17743816802E+04  0.91165442969E+02 0.  0.
         11    1    3    3    0    0 -0.13991384571E+03  0.83501151614E+03 -0.78139970943E+03  0.11521309050E+04  0.00000000000E+00 0. -1.
        -11    1    3    3    0    0 -0.11226638024E+02  0.46650926914E+03 -0.41162979938E+03  0.62225077527E+03  0.00000000000E+00 0.  1.
         22    1    1    2    0    0  0.15114048373E+03 -0.13015207853E+04  0.26224999737E+04  0.29316046651E+04  0.00000000000E+00 0.  1.
<mgrwt>
<rscale>  0 0.44836282E+04</rscale>
<asrwt>0</asrwt>
<pdfrwt beam="1">  1        2 0.47195822E+00 0.44836282E+04</pdfrwt>
<pdfrwt beam="2">  1       -2 0.25203968E+00 0.44836282E+04</pdfrwt>
<totfact> 0.74689499E-02</totfact>
</mgrwt>
</event>
<event>
 6    1  0.5196787E-004  0.1646941E+04  0.7818608E-02  0.8792218E-01
         -1   -1    0    0    0  501 -0.00000000000E+00  0.00000000000E+00  0.72949785599E+03  0.72949785599E+03  0.00000000000E+00 0.  1.
          1   -1    0    0  501    0  0.00000000000E+00 -0.00000000000E+00 -0.92954799864E+03  0.92954799864E+03  0.00000000000E+00 0. -1.
         23    2    1    2    0    0  0.16508156361E+03  0.60802449484E+03  0.42990912285E+03  0.76809446137E+03  0.90562347082E+02 0.  0.
         13    1    3    3    0    0  0.10460534917E+03  0.36734275194E+03  0.20656043849E+03  0.43422366498E+03  0.00000000000E+00 0. -1.
        -13    1    3    3    0    0  0.60476214438E+02  0.24068174290E+03  0.22334868436E+03  0.33387079639E+03  0.00000000000E+00 0.  1.
         22    1    1    2    0    0 -0.16508156361E+03 -0.60802449484E+03 -0.62995926551E+03  0.89095139326E+03  0.00000000000E+00 0. -1.
<mgrwt>
<rscale>  0 0.16469405E+04</rscale>
<asrwt>0</asrwt>
<pdfrwt beam="1">  1        1 0.14300739E+00 0.16469405E+04</pdfrwt>
<pdfrwt beam="2">  1       -1 0.11223044E+00 0.16469405E+04</pdfrwt>
<totfact> 0.11975875E+01</totfact>
</mgrwt>
</event>
<event>
 6    1  0.5196787E-004  0.3723145E+04  0.7818608E-02  0.8062852E-01
          2   -1    0    0  501    0  0.00000000000E+00  0.00000000000E+00  0.21273304442E+04  0.21273304442E+04  0.00000000000E+00 0.  1.
         -2   -1    0    0    0  501 -0.00000000000E+00 -0.00000000000E+00 -0.16290149239E+04  0.16290149239E+04  0.00000000000E+00 0. -1.
         23    2    1    2    0    0  0.13604931625E+04  0.49492852621E+03  0.14282288067E+04  0.20356958943E+04  0.91237922358E+02 0.  0.
         13    1    3    3    0    0  0.81778379451E+03  0.25941708185E+03  0.88305346977E+03  0.12311990040E+04  0.00000000000E+00 0.  1.
        -13    1    3    3    0    0  0.54270936801E+03  0.23551144436E+03  0.54517533695E+03  0.80449689034E+03  0.00000000000E+00 0. -1.
         22    1    1    2    0    0 -0.13604931625E+04 -0.49492852621E+03 -0.92991328639E+03  0.17206494738E+04  0.00000000000E+00 0. -1.
<mgrwt>
<rscale>  0 0.37231455E+04</rscale>
<asrwt>0</asrwt>
<pdfrwt beam="1">  1        2 0.32728161E+00 0.37231455E+04</pdfrwt>
<pdfrwt beam="2">  1       -2 0.25061768E+00 0.37231455E+04</pdfrwt>
<totfact> 0.29158193E-01</totfact>
</mgrwt>
</event>
<event>
 6    1  0.5196787E-004  0.1568865E+04  0.7818608E-02  0.8839907E-01
         -4   -1    0    0    0  501 -0.00000000000E+00  0.00000000000E+00  0.54275641760E+03  0.54275641760E+03  0.00000000000E+00 0. -1.
          4   -1    0    0  501    0  0.00000000000E+00 -0.00000000000E+00 -0.11337215635E+04  0.11337215635E+04  0.00000000000E+00 0.  1.
         23    2    1    2    0    0  0.39070168133E+03 -0.73226271854E+02 -0.10158289070E+04  0.10946540333E+04  0.91373921639E+02 0.  0.
         13    1    3    3    0    0  0.32588213633E+03 -0.32762184293E+02 -0.87736006082E+03  0.93650050925E+03  0.00000000000E+00 0. -1.
        -13    1    3    3    0    0  0.64819544993E+02 -0.40464087561E+02 -0.13846884620E+03  0.15815352403E+03  0.00000000000E+00 0.  1.
         22    1    1    2    0    0 -0.39070168133E+03  0.73226271854E+02  0.42486376115E+03  0.58182394779E+03  0.00000000000E+00 0. -1.
<mgrwt>
<rscale>  0 0.15688654E+04</rscale>
<asrwt>0</asrwt>
<pdfrwt beam="1">  1        4 0.17441870E+00 0.15688654E+04</pdfrwt>
<pdfrwt beam="2">  1       -4 0.83500988E-01 0.15688654E+04</pdfrwt>
<totfact> 0.47590307E-01</totfact>
</mgrwt>
</event>
<event>
 6    1  0.5196787E-004  0.1507658E+04  0.7818608E-02  0.8879376E-01
         -1   -1    0    0    0  501 -0.00000000000E+00  0.00000000000E+00  0.62173759748E+03  0.62173759748E+03  0.00000000000E+00 0.  1.
          1   -1    0    0  501    0  0.00000000000E+00 -0.00000000000E+00 -0.91398375983E+03  0.91398375983E+03  0.00000000000E+00 0. -1.
         23    2    1    2    0    0  0.54637308622E+03  0.11876418489E+03  0.36430950634E+03  0.67334450984E+03  0.89682392717E+02 0.  0.
         11    1    3    3    0    0  0.34014935392E+03  0.10538333954E+03  0.19376959625E+03  0.40540583081E+03  0.00000000000E+00 0.  1.
        -11    1    3    3    0    0  0.20622373230E+03  0.13380845351E+02  0.17053991009E+03  0.26793867903E+03  0.00000000000E+00 0. -1.
         22    1    1    2    0    0 -0.54637308622E+03 -0.11876418489E+03 -0.65655566869E+03  0.86237684747E+03  0.00000000000E+00 0. -1.
<mgrwt>
<rscale>  0 0.15076579E+04</rscale>
<asrwt>0</asrwt>
<pdfrwt beam="1">  1        1 0.14061289E+00 0.15076579E+04</pdfrwt>
<pdfrwt beam="2">  1       -1 0.95651938E-01 0.15076579E+04</pdfrwt>
<totfact> 0.18071723E+01</totfact>
</mgrwt>
</event>
<event>
 6    1  0.5196787E-004  0.1201915E+04  0.7818608E-02  0.9111182E-01
         -2   -1    0    0    0  501 -0.00000000000E+00  0.00000000000E+00  0.82294272082E+02  0.82294272082E+02  0.00000000000E+00 0. -1.
          2   -1    0    0  501    0  0.00000000000E+00 -0.00000000000E+00 -0.43885158962E+04  0.43885158962E+04  0.00000000000E+00 0.  1.
         23    2    1    2    0    0  0.27416722553E+03  0.53082700711E+03 -0.21648889147E+04  0.22476928184E+04  0.91836886663E+02 0.  0.
         11    1    3    3    0    0  0.19689697028E+03  0.28513146642E+03 -0.12819247442E+04  0.13279305026E+04  0.00000000000E+00 0. -1.
        -11    1    3    3    0    0  0.77270255253E+02  0.24569554069E+03 -0.88296417057E+03  0.91976231581E+03  0.00000000000E+00 0.  1.
         22    1    1    2    0    0 -0.27416722553E+03 -0.53082700711E+03 -0.21413327094E+04  0.22231173499E+04  0.00000000000E+00 0.  1.
<mgrwt>
<rscale>  0 0.12019147E+04</rscale>
<asrwt>0</asrwt>
<pdfrwt beam="1">  1        2 0.67515641E+00 0.12019147E+04</pdfrwt>
<pdfrwt beam="2">  1       -2 0.12660655E-01 0.12019147E+04</pdfrwt>
<totfact> 0.76412354E+00</totfact>
</mgrwt>
</event>
<event>
 6    1  0.5196787E-004  0.1827744E+04  0.7818608E-02  0.8691683E-01
         -2   -1    0    0    0  501 -0.00000000000E+00  0.00000000000E+00  0.57111538154E+03  0.57111538154E+03  0.00000000000E+00 0. -1.
          2   -1    0    0  501    0  0.00000000000E+00 -0.00000000000E+00 -0.14623348168E+04  0.14623348168E+04  0.00000000000E+00 0.  1.
         23    2    1    2    0    0  0.34937337323E+03  0.34285893339E+03 -0.13022453910E+04  0.13942660789E+04  0.92308388003E+02 0.  0.
         13    1    3    3    0    0  0.17538018390E+03  0.23213171402E+03 -0.80420514410E+03  0.85521298830E+03  0.00000000000E+00 0. -1.
        -13    1    3    3    0    0  0.17399318934E+03  0.11072721937E+03 -0.49804024685E+03  0.53905309064E+03  0.00000000000E+00 0.  1.
         22    1    1    2    0    0 -0.34937337323E+03 -0.34285893339E+03  0.41102595574E+03  0.63918411934E+03  0.00000000000E+00 0. -1.
<mgrwt>
<rscale>  0 0.18277439E+04</rscale>
<asrwt>0</asrwt>
<pdfrwt beam="1">  1        2 0.22497459E+00 0.18277439E+04</pdfrwt>
<pdfrwt beam="2">  1       -2 0.87863905E-01 0.18277439E+04</pdfrwt>
<totfact> 0.14028758E+01</totfact>
</mgrwt>
</event>
<event>
 6    1  0.5196787E-004  0.2305213E+03  0.7818608E-02  0.1126273E+00
         -2   -1    0    0    0  501 -0.00000000000E+00  0.00000000000E+00  0.61934818888E+01  0.61934818888E+01  0.00000000000E+00 0. -1.
          2   -1    0    0  501    0  0.00000000000E+00 -0.00000000000E+00 -0.21450005135E+04  0.21450005135E+04  0.00000000000E+00 0.  1.
         23    2    1    2    0    0  0.49845734056E+02  0.72264572565E+01 -0.20123152767E+04  0.20150434061E+04  0.91925714336E+02 0.  0.
         11    1    3    3    0    0 -0.57788889830E+01 -0.94927074251E+01 -0.13850801684E+04  0.13851247524E+04  0.00000000000E+00 0. -1.
        -11    1    3    3    0    0  0.55624623039E+02  0.16719164682E+02 -0.62723510832E+03  0.62991865369E+03  0.00000000000E+00 0.  1.
         22    1    1    2    0    0 -0.49845734056E+02 -0.72264572565E+01 -0.12649175489E+03  0.13615058921E+03  0.00000000000E+00 0. -1.
<mgrwt>
<rscale>  0 0.23052134E+03</rscale>
<asrwt>0</asrwt>
<pdfrwt beam="1">  1        2 0.33000016E+00 0.23052134E+03</pdfrwt>
<pdfrwt beam="2">  1       -2 0.95284313E-03 0.23052134E+03</pdfrwt>
<totfact> 0.14185348E+04</totfact>
</mgrwt>
</event>
<event>
 6    1  0.5196787E-004  0.4442444E+03  0.7818608E-02  0.1029452E+00
          2   -1    0    0  501    0  0.00000000000E+00  0.00000000000E+00  0.21552958953E+04  0.21552958953E+04  0.00000000000E+00 0.  1.
         -2   -1    0    0    0  501 -0.00000000000E+00 -0.00000000000E+00 -0.22891647857E+02  0.22891647857E+02  0.00000000000E+00 0. -1.
         23    2    1    2    0    0 -0.46279832158E+02  0.18271511837E+03  0.15953748860E+04  0.16090415405E+04  0.90923125030E+02 0.  0.
         11    1    3    3    0    0 -0.30007609836E+02  0.85888760795E+02  0.42898425019E+03  0.43852573789E+03  0.00000000000E+00 0. -1.
        -11    1    3    3    0    0 -0.16272222321E+02  0.96826357578E+02  0.11663906358E+04  0.11705158026E+04  0.00000000000E+00 0.  1.
         22    1    1    2    0    0  0.46279832158E+02 -0.18271511837E+03  0.53702936144E+03  0.56914600271E+03  0.00000000000E+00 0. -1.
<mgrwt>
<rscale>  0 0.44424441E+03</rscale>
<asrwt>0</asrwt>
<pdfrwt beam="1">  1        2 0.33158382E+00 0.44424441E+03</pdfrwt>
<pdfrwt beam="2">  1       -2 0.35217937E-02 0.44424441E+03</pdfrwt>
<totfact> 0.20246468E+03</totfact>
</mgrwt>
</event>
<event>
 6    1  0.5196787E-004  0.2396518E+04  0.7818608E-02  0.8440808E-01
         -2   -1    0    0    0  501 -0.00000000000E+00  0.00000000000E+00  0.36824079162E+03  0.36824079162E+03  0.00000000000E+00 0. -1.
          2   -1    0    0  501    0  0.00000000000E+00 -0.00000000000E+00 -0.38991453073E+04  0.38991453073E+04  0.00000000000E+00 0.  1.
         23    2    1    2    0    0 -0.20670399939E+03  0.61977205346E+03 -0.35529695665E+04  0.36136806545E+04  0.90836065010E+02 0.  0.
         13    1    3    3    0    0 -0.18289387954E+03  0.41565932983E+03 -0.24510951789E+04  0.24928077394E+04  0.00000000000E+00 0. -1.
        -13    1    3    3    0    0 -0.23810119846E+02  0.20411272362E+03 -0.11018743875E+04  0.11208729150E+04  0.00000000000E+00 0.  1.
         22    1    1    2    0    0  0.20670399939E+03 -0.61977205346E+03  0.22065050799E+02  0.65370544443E+03  0.00000000000E+00 0. -1.
<mgrwt>
<rscale>  0 0.23965178E+04</rscale>
<asrwt>0</asrwt>
<pdfrwt beam="1">  1        2 0.59986848E+00 0.23965178E+04</pdfrwt>
<pdfrwt beam="2">  1       -2 0.56652432E-01 0.23965178E+04</pdfrwt>
<totfact> 0.10866804E+00</totfact>
</mgrwt>
</event>
<event>
 6    1  0.5196787E-004  0.3981604E+04  0.7818608E-02  0.8008268E-01
          2   -1    0    0  501    0  0.00000000000E+00  0.00000000000E+00  0.25389695197E+04  0.25389695197E+04  0.00000000000E+00 0.  1.
         -2   -1    0    0    0  501 -0.00000000000E+00 -0.00000000000E+00 -0.15609844105E+04  0.15609844105E+04  0.00000000000E+00 0. -1.
         23    2    1    2    0    0  0.10146579095E+04 -0.11452401848E+04  0.17987576085E+04  0.23636436902E+04  0.10088015548E+03 0.  0.
         13    1    3    3    0    0  0.12963896937E+03 -0.19446114121E+03  0.30128729885E+03  0.38130753241E+03  0.00000000000E+00 0.  1.
        -13    1    3    3    0    0  0.88501894009E+03 -0.95077904361E+03  0.14974703096E+04  0.19823361578E+04  0.00000000000E+00 0. -1.
         22    1    1    2    0    0 -0.10146579095E+04  0.11452401848E+04 -0.82077249934E+03  0.17363102401E+04  0.00000000000E+00 0. -1.
<mgrwt>
<rscale>  0 0.39816036E+04</rscale>
<asrwt>0</asrwt>
<pdfrwt beam="1">  1        2 0.39061069E+00 0.39816036E+04</pdfrwt>
<pdfrwt beam="2">  1       -2 0.24015145E+00 0.39816036E+04</pdfrwt>
<totfact> 0.19294697E-01</totfact>
</mgrwt>
</event>
<event>
 6    1  0.5196787E-004  0.1192014E+04  0.7818608E-02  0.9119876E-01
          2   -1    0    0  501    0  0.00000000000E+00  0.00000000000E+00  0.94667915440E+03  0.94667915440E+03  0.00000000000E+00 0.  1.
         -2   -1    0    0    0  501 -0.00000000000E+00 -0.00000000000E+00 -0.37523175996E+03  0.37523175996E+03  0.00000000000E+00 0. -1.
         23    2    1    2    0    0 -0.25384837536E+03  0.42124201431E+03  0.65380823471E+03  0.82324555532E+03  0.91565300695E+02 0.  0.
         13    1    3    3    0    0 -0.15362896231E+03  0.19220704495E+03  0.27108557670E+03  0.36610489765E+03  0.00000000000E+00 0. -1.
        -13    1    3    3    0    0 -0.10021941304E+03  0.22903496936E+03  0.38272265801E+03  0.45714065767E+03  0.00000000000E+00 0.  1.
         22    1    1    2    0    0  0.25384837536E+03 -0.42124201431E+03 -0.82360840273E+02  0.49866535904E+03  0.00000000000E+00 0. -1.
<mgrwt>
<rscale>  0 0.11920136E+04</rscale>
<asrwt>0</asrwt>
<pdfrwt beam="1">  1        2 0.14564295E+00 0.11920136E+04</pdfrwt>
<pdfrwt beam="2">  1       -2 0.57727963E-01 0.11920136E+04</pdfrwt>
<totfact> 0.75698012E+01</totfact>
</mgrwt>
</event>
<event>
 6    1  0.5196787E-004  0.2281605E+04  0.7818608E-02  0.8485210E-01
         -2   -1    0    0    0  501 -0.00000000000E+00  0.00000000000E+00  0.12875437599E+04  0.12875437599E+04  0.00000000000E+00 0. -1.
          2   -1    0    0  501    0  0.00000000000E+00 -0.00000000000E+00 -0.10107851778E+04  0.10107851778E+04  0.00000000000E+00 0.  1.
         23    2    1    2    0    0  0.69243548362E+02 -0.47279903252E+03  0.11795110503E+04  0.12769105058E+04  0.10450132976E+03 0.  0.
         13    1    3    3    0    0  0.44653715591E+02 -0.45727721470E+03  0.10929346898E+04  0.11855811408E+04  0.00000000000E+00 0.  1.
        -13    1    3    3    0    0  0.24589832771E+02 -0.15521817821E+02  0.86576360483E+02  0.91329364930E+02  0.00000000000E+00 0. -1.
         22    1    1    2    0    0 -0.69243548362E+02  0.47279903252E+03 -0.90275246824E+03  0.10214184319E+04  0.00000000000E+00 0.  1.
<mgrwt>
<rscale>  0 0.22816048E+04</rscale>
<asrwt>0</asrwt>
<pdfrwt beam="1">  1        2 0.15550541E+00 0.22816048E+04</pdfrwt>
<pdfrwt beam="2">  1       -2 0.19808366E+00 0.22816048E+04</pdfrwt>
<totfact> 0.30812816E+00</totfact>
</mgrwt>
</event>
<event>
 6    1  0.5196787E-004  0.3002673E+04  0.7818608E-02  0.8242968E-01
         -2   -1    0    0    0  501 -0.00000000000E+00  0.00000000000E+00  0.68199024686E+03  0.68199024686E+03  0.00000000000E+00 0. -1.
          2   -1    0    0  501    0  0.00000000000E+00 -0.00000000000E+00 -0.33050490722E+04  0.33050490722E+04  0.00000000000E+00 0.  1.
         23    2    1    2    0    0 -0.31634153529E+03  0.13480459606E+04 -0.20785005570E+04  0.24991402680E+04  0.90761415858E+02 0.  0.
         11    1    3    3    0    0 -0.64022265874E+02  0.35916379703E+03 -0.48629273693E+03  0.60792936236E+03  0.00000000000E+00 0.  1.
        -11    1    3    3    0    0 -0.25231926942E+03  0.98888216353E+03 -0.15922078201E+04  0.18912109056E+04  0.00000000000E+00 0. -1.
         22    1    1    2    0    0  0.31634153529E+03 -0.13480459606E+04 -0.54455826834E+03  0.14878990511E+04  0.00000000000E+00 0. -1.
<mgrwt>
<rscale>  0 0.30026730E+04</rscale>
<asrwt>0</asrwt>
<pdfrwt beam="1">  1        2 0.50846908E+00 0.30026730E+04</pdfrwt>
<pdfrwt beam="2">  1       -2 0.10492158E+00 0.30026730E+04</pdfrwt>
<totfact> 0.69602433E-01</totfact>
</mgrwt>
</event>
<event>
 6    1  0.5196787E-004  0.1487362E+04  0.7818608E-02  0.8892901E-01
          2   -1    0    0  501    0  0.00000000000E+00  0.00000000000E+00  0.39082907103E+04  0.39082907103E+04  0.00000000000E+00 0.  1.
         -2   -1    0    0    0  501 -0.00000000000E+00 -0.00000000000E+00 -0.14150970924E+03  0.14150970924E+03  0.00000000000E+00 0. -1.
         23    2    1    2    0    0 -0.84123344425E+01  0.71977742306E+02  0.38980899015E+04  0.38998217874E+04  0.90848942430E+02 0.  0.
         11    1    3    3    0    0 -0.39540074922E+02  0.70264666549E+01  0.94378005133E+03  0.94463409532E+03  0.00000000000E+00 0.  1.
        -11    1    3    3    0    0  0.31127740479E+02  0.64951275651E+02  0.29543098502E+04  0.29551876921E+04  0.00000000000E+00 0. -1.
         22    1    1    2    0    0  0.84123344425E+01 -0.71977742306E+02 -0.13130890047E+03  0.14997863214E+03  0.00000000000E+00 0. -1.
<mgrwt>
<rscale>  0 0.14873615E+04</rscale>
<asrwt>0</asrwt>
<pdfrwt beam="1">  1        2 0.60127541E+00 0.14873615E+04</pdfrwt>
<pdfrwt beam="2">  1       -2 0.21770728E-01 0.14873615E+04</pdfrwt>
<totfact> 0.73666788E+00</totfact>
</mgrwt>
</event>
<event>
 6    1  0.5196787E-004  0.2172657E+04  0.7818608E-02  0.8529896E-01
          2   -1    0    0  501    0  0.00000000000E+00  0.00000000000E+00  0.97646164087E+03  0.97646164087E+03  0.00000000000E+00 0.  1.
         -2   -1    0    0    0  501 -0.00000000000E+00 -0.00000000000E+00 -0.12085567215E+04  0.12085567215E+04  0.00000000000E+00 0. -1.
         23    2    1    2    0    0  0.10132045691E+03  0.10063815172E+04  0.27698096318E+03  0.10526632894E+04  0.91169916892E+02 0.  0.
         11    1    3    3    0    0  0.74092208248E+02  0.38971517686E+03  0.79572066818E+02  0.40459768686E+03  0.00000000000E+00 0. -1.
        -11    1    3    3    0    0  0.27228248665E+02  0.61666634029E+03  0.19740889636E+03  0.64806560250E+03  0.00000000000E+00 0.  1.
         22    1    1    2    0    0 -0.10132045691E+03 -0.10063815172E+04 -0.50907604384E+03  0.11323550731E+04  0.00000000000E+00 0. -1.
<mgrwt>
<rscale>  0 0.21726567E+04</rscale>
<asrwt>0</asrwt>
<pdfrwt beam="1">  1        2 0.15022487E+00 0.21726567E+04</pdfrwt>
<pdfrwt beam="2">  1       -2 0.18593180E+00 0.21726567E+04</pdfrwt>
<totfact> 0.39452757E+00</totfact>
</mgrwt>
</event>
<event>
 6    1  0.5196787E-004  0.2589892E+04  0.7818608E-02  0.8371643E-01
         -2   -1    0    0    0  501 -0.00000000000E+00  0.00000000000E+00  0.97179992303E+03  0.97179992303E+03  0.00000000000E+00 0. -1.
          2   -1    0    0  501    0  0.00000000000E+00 -0.00000000000E+00 -0.17255462265E+04  0.17255462265E+04  0.00000000000E+00 0.  1.
         23    2    1    2    0    0  0.12750508688E+04 -0.20439651474E+03 -0.44614393752E+03  0.13698854650E+04  0.10004559467E+03 0.  0.
         13    1    3    3    0    0  0.49279919480E+03 -0.33533484144E+02 -0.18993528534E+03  0.52919840662E+03  0.00000000000E+00 0.  1.
        -13    1    3    3    0    0  0.78225167402E+03 -0.17086303060E+03 -0.25620865219E+03  0.84068705842E+03  0.00000000000E+00 0. -1.
         22    1    1    2    0    0 -0.12750508688E+04  0.20439651474E+03 -0.30760236594E+03  0.13274606845E+04  0.00000000000E+00 0.  1.
<mgrwt>
<rscale>  0 0.25898924E+04</rscale>
<asrwt>0</asrwt>
<pdfrwt beam="1">  1        2 0.26546865E+00 0.25898924E+04</pdfrwt>
<pdfrwt beam="2">  1       -2 0.14950768E+00 0.25898924E+04</pdfrwt>
<totfact> 0.25399737E+00</totfact>
</mgrwt>
</event>
<event>
 6    1  0.5196787E-004  0.1461825E+04  0.7818608E-02  0.8910243E-01
          4   -1    0    0  501    0  0.00000000000E+00  0.00000000000E+00  0.64284408101E+03  0.64284408101E+03  0.00000000000E+00 0.  1.
         -4   -1    0    0    0  501 -0.00000000000E+00 -0.00000000000E+00 -0.83104658882E+03  0.83104658882E+03  0.00000000000E+00 0. -1.
         23    2    1    2    0    0  0.37874561663E+03 -0.58252881654E+03  0.12540913823E+03  0.71156506437E+03  0.88370383437E+02 0.  0.
         11    1    3    3    0    0  0.17436571482E+03 -0.28093652332E+03  0.15437517665E+02  0.33100913823E+03  0.00000000000E+00 0. -1.
        -11    1    3    3    0    0  0.20437990181E+03 -0.30159229322E+03  0.10997162056E+03  0.38055592614E+03  0.00000000000E+00 0.  1.
         22    1    1    2    0    0 -0.37874561663E+03  0.58252881654E+03 -0.31361164603E+03  0.76232560546E+03  0.00000000000E+00 0. -1.
<mgrwt>
<rscale>  0 0.14618254E+04</rscale>
<asrwt>0</asrwt>
<pdfrwt beam="1">  1        4 0.98899090E-01 0.14618254E+04</pdfrwt>
<pdfrwt beam="2">  1       -4 0.12785332E+00 0.14618254E+04</pdfrwt>
<totfact> 0.74099756E-01</totfact>
</mgrwt>
</event>
<event>
 6    1  0.5196787E-004  0.9798740E+03  0.7818608E-02  0.9330898E-01
          2   -1    0    0  501    0  0.00000000000E+00  0.00000000000E+00  0.45868604609E+03  0.45868604609E+03  0.00000000000E+00 0.  1.
         -2   -1    0    0    0  501 -0.00000000000E+00 -0.00000000000E+00 -0.52331714083E+03  0.52331714083E+03  0.00000000000E+00 0. -1.
         23    2    1    2    0    0 -0.18428667533E+03  0.14446187661E+01 -0.48319615617E+03  0.52466263953E+03  0.88479909330E+02 0.  0.
         11    1    3    3    0    0 -0.92485251912E+02  0.42878448635E+02 -0.20857109919E+03  0.23215078418E+03  0.00000000000E+00 0.  1.
        -11    1    3    3    0    0 -0.91801423414E+02 -0.41433829868E+02 -0.27462505698E+03  0.29251185535E+03  0.00000000000E+00 0. -1.
         22    1    1    2    0    0  0.18428667533E+03 -0.14446187661E+01  0.41856506143E+03  0.45734054738E+03  0.00000000000E+00 0.  1.
<mgrwt>
<rscale>  0 0.97987401E+03</rscale>
<asrwt>0</asrwt>
<pdfrwt beam="1">  1        2 0.70567085E-01 0.97987401E+03</pdfrwt>
<pdfrwt beam="2">  1       -2 0.80510329E-01 0.97987401E+03</pdfrwt>
<totfact> 0.92727979E+01</totfact>
</mgrwt>
</event>
<event>
 6    1  0.5196787E-004  0.1428287E+04  0.7818608E-02  0.8933594E-01
          1   -1    0    0  501    0  0.00000000000E+00  0.00000000000E+00  0.82067109989E+03  0.82067109989E+03  0.00000000000E+00 0.  1.
         -1   -1    0    0    0  501 -0.00000000000E+00 -0.00000000000E+00 -0.62144333944E+03  0.62144333944E+03  0.00000000000E+00 0. -1.
         23    2    1    2    0    0  0.44128385555E+03 -0.93390726639E+01 -0.46275864764E+03  0.64647339969E+03  0.94676454775E+02 0.  0.
         13    1    3    3    0    0  0.19849308722E+03  0.13745263453E+02 -0.14642569126E+03  0.24704032262E+03  0.00000000000E+00 0. -1.
        -13    1    3    3    0    0  0.24279076834E+03 -0.23084336117E+02 -0.31633295638E+03  0.39943307707E+03  0.00000000000E+00 0.  1.
         22    1    1    2    0    0 -0.44128385555E+03  0.93390726639E+01  0.66198640810E+03  0.79564103964E+03  0.00000000000E+00 0.  1.
<mgrwt>
<rscale>  0 0.14282865E+04</rscale>
<asrwt>0</asrwt>
<pdfrwt beam="1">  1        1 0.12625709E+00 0.14282865E+04</pdfrwt>
<pdfrwt beam="2">  1       -1 0.95606667E-01 0.14282865E+04</pdfrwt>
<totfact> 0.21795011E+01</totfact>
</mgrwt>
</event>
<event>
 6    1  0.5196787E-004  0.1977772E+04  0.7818608E-02  0.8617084E-01
          2   -1    0    0  501    0  0.00000000000E+00  0.00000000000E+00  0.11983644603E+04  0.11983644603E+04  0.00000000000E+00 0.  1.
         -2   -1    0    0    0  501 -0.00000000000E+00 -0.00000000000E+00 -0.81602539756E+03  0.81602539756E+03  0.00000000000E+00 0. -1.
         23    2    1    2    0    0 -0.21335211748E+03  0.63874476969E+03  0.92615789699E+03  0.11487958818E+04  0.91921276090E+02 0.  0.
         11    1    3    3    0    0 -0.22083197771E+03  0.58668547852E+03  0.84650157241E+03  0.10533430235E+04  0.00000000000E+00 0.  1.
        -11    1    3    3    0    0  0.74798602309E+01  0.52059291168E+02  0.79656324576E+02  0.95452858265E+02  0.00000000000E+00 0. -1.
         22    1    1    2    0    0  0.21335211748E+03 -0.63874476969E+03 -0.54381883428E+03  0.86559397604E+03  0.00000000000E+00 0. -1.
<mgrwt>
<rscale>  0 0.19777723E+04</rscale>
<asrwt>0</asrwt>
<pdfrwt beam="1">  1        2 0.18436376E+00 0.19777723E+04</pdfrwt>
<pdfrwt beam="2">  1       -2 0.12554237E+00 0.19777723E+04</pdfrwt>
<totfact> 0.83813169E+00</totfact>
</mgrwt>
</event>
<event>
 6    1  0.5196787E-004  0.3084677E+04  0.7818608E-02  0.8219956E-01
         -2   -1    0    0    0  501 -0.00000000000E+00  0.00000000000E+00  0.66951702183E+03  0.66951702183E+03  0.00000000000E+00 0. -1.
          2   -1    0    0  501    0  0.00000000000E+00 -0.00000000000E+00 -0.35530212005E+04  0.35530212005E+04  0.00000000000E+00 0.  1.
         23    2    1    2    0    0  0.58332067693E+03  0.13896730480E+04 -0.10033493101E+04  0.18128833669E+04  0.91553652667E+02 0.  0.
         13    1    3    3    0    0  0.21025938021E+03  0.39644281124E+03 -0.31115541159E+03  0.54607105738E+03  0.00000000000E+00 0. -1.
        -13    1    3    3    0    0  0.37306129672E+03  0.99323023678E+03 -0.69219389847E+03  0.12668123095E+04  0.00000000000E+00 0.  1.
         22    1    1    2    0    0 -0.58332067693E+03 -0.13896730480E+04 -0.18801548686E+04  0.24096548555E+04  0.00000000000E+00 0. -1.
<mgrwt>
<rscale>  0 0.30846771E+04</rscale>
<asrwt>0</asrwt>
<pdfrwt beam="1">  1        2 0.54661865E+00 0.30846771E+04</pdfrwt>
<pdfrwt beam="2">  1       -2 0.10300262E+00 0.30846771E+04</pdfrwt>
<totfact> 0.48755605E-01</totfact>
</mgrwt>
</event>
<event>
 6    1  0.5196787E-004  0.1436829E+04  0.7818608E-02  0.8927583E-01
          2   -1    0    0  501    0  0.00000000000E+00  0.00000000000E+00  0.23870267555E+04  0.23870267555E+04  0.00000000000E+00 0.  1.
         -2   -1    0    0    0  501 -0.00000000000E+00 -0.00000000000E+00 -0.21621837195E+03  0.21621837195E+03  0.00000000000E+00 0. -1.
         23    2    1    2    0    0 -0.43013269605E+03  0.53830522902E+03  0.75070477410E+03  0.10248025668E+04  0.10897700313E+03 0.  0.
         11    1    3    3    0    0 -0.35805846211E+03  0.37204694820E+03  0.55048562981E+03  0.75475772442E+03  0.00000000000E+00 0.  1.
        -11    1    3    3    0    0 -0.72074233942E+02  0.16625828082E+03  0.20021914429E+03  0.27004484235E+03  0.00000000000E+00 0. -1.
         22    1    1    2    0    0  0.43013269605E+03 -0.53830522902E+03  0.14201036095E+04  0.15784425607E+04  0.00000000000E+00 0.  1.
<mgrwt>
<rscale>  0 0.14368285E+04</rscale>
<asrwt>0</asrwt>
<pdfrwt beam="1">  1        2 0.36723487E+00 0.14368285E+04</pdfrwt>
<pdfrwt beam="2">  1       -2 0.33264367E-01 0.14368285E+04</pdfrwt>
<totfact> 0.33220870E+01</totfact>
</mgrwt>
</event>
<event>
 6    1  0.5196787E-004  0.3819066E+04  0.7818608E-02  0.8042076E-01
         -2   -1    0    0    0  501 -0.00000000000E+00  0.00000000000E+00  0.25791625767E+04  0.25791625767E+04  0.00000000000E+00 0. -1.
          2   -1    0    0  501    0  0.00000000000E+00 -0.00000000000E+00 -0.14137596777E+04  0.14137596777E+04  0.00000000000E+00 0.  1.
         23    2    1    2    0    0 -0.17585550747E+04 -0.73119623508E+03  0.71089587473E+03  0.20349282503E+04  0.91630529788E+02 0.  0.
         11    1    3    3    0    0 -0.15817388494E+04 -0.64905625481E+03  0.60907881412E+03  0.18149790113E+04  0.00000000000E+00 0.  1.
        -11    1    3    3    0    0 -0.17681622537E+03 -0.82139980262E+02  0.10181706061E+03  0.21994923901E+03  0.00000000000E+00 0. -1.
         22    1    1    2    0    0  0.17585550747E+04  0.73119623508E+03  0.45450702435E+03  0.19579940041E+04  0.00000000000E+00 0.  1.
<mgrwt>
<rscale>  0 0.38190659E+04</rscale>
<asrwt>0</asrwt>
<pdfrwt beam="1">  1        2 0.21750149E+00 0.38190659E+04</pdfrwt>
<pdfrwt beam="2">  1       -2 0.39679424E+00 0.38190659E+04</pdfrwt>
<totfact> 0.88557206E-02</totfact>
</mgrwt>
</event>
<event>
 6    1  0.5196787E-004  0.1019080E+04  0.7818608E-02  0.9287862E-01
         -2   -1    0    0    0  501 -0.00000000000E+00  0.00000000000E+00  0.45184092206E+03  0.45184092206E+03  0.00000000000E+00 0. -1.
          2   -1    0    0  501    0  0.00000000000E+00 -0.00000000000E+00 -0.57460737589E+03  0.57460737589E+03  0.00000000000E+00 0.  1.
         23    2    1    2    0    0  0.42562378423E+03 -0.20273000672E+03 -0.24534537765E+03  0.53933367706E+03  0.91822652713E+02 0.  0.
         13    1    3    3    0    0  0.11770424056E+03 -0.84568802361E+02 -0.11372723963E+03  0.18422827040E+03  0.00000000000E+00 0. -1.
        -13    1    3    3    0    0  0.30791954366E+03 -0.11816120435E+03 -0.13161813803E+03  0.35510540666E+03  0.00000000000E+00 0.  1.
         22    1    1    2    0    0 -0.42562378423E+03  0.20273000672E+03  0.12257892382E+03  0.48711462089E+03  0.00000000000E+00 0. -1.
<mgrwt>
<rscale>  0 0.10190802E+04</rscale>
<asrwt>0</asrwt>
<pdfrwt beam="1">  1        2 0.88401134E-01 0.10190802E+04</pdfrwt>
<pdfrwt beam="2">  1       -2 0.69513988E-01 0.10190802E+04</pdfrwt>
<totfact> 0.98435680E+01</totfact>
</mgrwt>
</event>
<event>
 6    1  0.5196787E-004  0.2899132E+04  0.7818608E-02  0.8273136E-01
         -1   -1    0    0    0  501 -0.00000000000E+00  0.00000000000E+00  0.91325497970E+03  0.91325497970E+03  0.00000000000E+00 0. -1.
          1   -1    0    0  501    0  0.00000000000E+00 -0.00000000000E+00 -0.23008272615E+04  0.23008272615E+04  0.00000000000E+00 0.  1.
         23    2    1    2    0    0  0.87624835357E+03 -0.67552562082E+02 -0.19704470055E+04  0.21595124383E+04  0.91967624314E+02 0.  0.
         11    1    3    3    0    0  0.71344207128E+03 -0.21132169375E+02 -0.16231290738E+04  0.17731311706E+04  0.00000000000E+00 0.  1.
        -11    1    3    3    0    0  0.16280628229E+03 -0.46420392707E+02 -0.34731793164E+03  0.38638126773E+03  0.00000000000E+00 0. -1.
         22    1    1    2    0    0 -0.87624835357E+03  0.67552562082E+02  0.58287472367E+03  0.10545698029E+04  0.00000000000E+00 0. -1.
<mgrwt>
<rscale>  0 0.28991323E+04</rscale>
<asrwt>0</asrwt>
<pdfrwt beam="1">  1        1 0.35397342E+00 0.28991323E+04</pdfrwt>
<pdfrwt beam="2">  1       -1 0.14050077E+00 0.28991323E+04</pdfrwt>
<totfact> 0.66239393E-01</totfact>
</mgrwt>
</event>
<event>
 6    1  0.5196787E-004  0.2044215E+04  0.7818608E-02  0.8586223E-01
          2   -1    0    0  501    0  0.00000000000E+00  0.00000000000E+00  0.86635106426E+03  0.86635106426E+03  0.00000000000E+00 0.  1.
         -2   -1    0    0    0  501 -0.00000000000E+00 -0.00000000000E+00 -0.12058668482E+04  0.12058668482E+04  0.00000000000E+00 0. -1.
         23    2    1    2    0    0  0.66256794963E+02 -0.99078852773E+03  0.66516673892E+02  0.99941120741E+03  0.91358765530E+02 0.  0.
         13    1    3    3    0    0  0.39729281292E+02 -0.54846124293E+03 -0.86106181166E+01  0.54996572033E+03  0.00000000000E+00 0.  1.
        -13    1    3    3    0    0  0.26527513671E+02 -0.44232728479E+03  0.75127292009E+02  0.44944548708E+03  0.00000000000E+00 0. -1.
         22    1    1    2    0    0 -0.66256794963E+02  0.99078852773E+03 -0.40603245782E+03  0.10728067050E+04  0.00000000000E+00 0.  1.
<mgrwt>
<rscale>  0 0.20442153E+04</rscale>
<asrwt>0</asrwt>
<pdfrwt beam="1">  1        2 0.13328478E+00 0.20442153E+04</pdfrwt>
<pdfrwt beam="2">  1       -2 0.18551798E+00 0.20442153E+04</pdfrwt>
<totfact> 0.47550505E+00</totfact>
</mgrwt>
</event>
<event>
 6    1  0.5196787E-004  0.2014908E+04  0.7818608E-02  0.8599682E-01
          2   -1    0    0  501    0  0.00000000000E+00  0.00000000000E+00  0.17112573291E+04  0.17112573291E+04  0.00000000000E+00 0. -1.
         -2   -1    0    0    0  501 -0.00000000000E+00 -0.00000000000E+00 -0.59310997313E+03  0.59310997313E+03  0.00000000000E+00 0.  1.
         23    2    1    2    0    0  0.18712485135E+03 -0.69239190166E+03  0.13660561301E+04  0.15454990555E+04  0.89642203726E+02 0.  0.
         11    1    3    3    0    0  0.15647799830E+03 -0.48249423627E+03  0.89166743963E+03  0.10258444692E+04  0.00000000000E+00 0. -1.
        -11    1    3    3    0    0  0.30646853052E+02 -0.20989766538E+03  0.47438869043E+03  0.51965458638E+03  0.00000000000E+00 0.  1.
         22    1    1    2    0    0 -0.18712485135E+03  0.69239190166E+03 -0.24790877414E+03  0.75886824665E+03  0.00000000000E+00 0.  1.
<mgrwt>
<rscale>  0 0.20149082E+04</rscale>
<asrwt>0</asrwt>
<pdfrwt beam="1">  1        2 0.26327036E+00 0.20149082E+04</pdfrwt>
<pdfrwt beam="2">  1       -2 0.91247689E-01 0.20149082E+04</pdfrwt>
<totfact> 0.91822633E+00</totfact>
</mgrwt>
</event>
<event>
 6    1  0.5196787E-004  0.1858535E+04  0.7818608E-02  0.8675776E-01
          2   -1    0    0  501    0  0.00000000000E+00  0.00000000000E+00  0.79117676160E+03  0.79117676160E+03  0.00000000000E+00 0.  1.
         -2   -1    0    0    0  501 -0.00000000000E+00 -0.00000000000E+00 -0.10914599080E+04  0.10914599080E+04  0.00000000000E+00 0. -1.
         23    2    1    2    0    0  0.60613925617E+03  0.25323491150E+03 -0.81336103501E+03  0.10491010446E+04  0.86741629747E+02 0.  0.
         13    1    3    3    0    0  0.34452628611E+03  0.11045237070E+03 -0.39791727901E+03  0.53780688815E+03  0.00000000000E+00 0.  1.
        -13    1    3    3    0    0  0.26161297006E+03  0.14278254080E+03 -0.41544375600E+03  0.51129415649E+03  0.00000000000E+00 0. -1.
         22    1    1    2    0    0 -0.60613925617E+03 -0.25323491150E+03  0.51307788862E+03  0.83353562495E+03  0.00000000000E+00 0.  1.
<mgrwt>
<rscale>  0 0.18585346E+04</rscale>
<asrwt>0</asrwt>
<pdfrwt beam="1">  1        2 0.12171950E+00 0.18585346E+04</pdfrwt>
<pdfrwt beam="2">  1       -2 0.16791691E+00 0.18585346E+04</pdfrwt>
<totfact> 0.72417412E+00</totfact>
</mgrwt>
</event>
<event>
 6    1  0.5196787E-004  0.1350022E+04  0.7818608E-02  0.8990811E-01
          2   -1    0    0  501    0  0.00000000000E+00  0.00000000000E+00  0.24533871233E+04  0.24533871233E+04  0.00000000000E+00 0.  1.
         -2   -1    0    0    0  501 -0.00000000000E+00 -0.00000000000E+00 -0.18571882713E+03  0.18571882713E+03  0.00000000000E+00 0. -1.
         23    2    1    2    0    0 -0.48297759754E+03 -0.43979191776E+03  0.83553924615E+03  0.10650418137E+04  0.97488165437E+02 0.  0.
         13    1    3    3    0    0 -0.16002948243E+03 -0.20963192077E+03  0.32298063693E+03  0.41697897943E+03  0.00000000000E+00 0. -1.
        -13    1    3    3    0    0 -0.32294811511E+03 -0.23015999699E+03  0.51255860922E+03  0.64806283426E+03  0.00000000000E+00 0.  1.
         22    1    1    2    0    0  0.48297759754E+03  0.43979191776E+03  0.14321290501E+04  0.15740641368E+04  0.00000000000E+00 0.  1.
<mgrwt>
<rscale>  0 0.13500225E+04</rscale>
<asrwt>0</asrwt>
<pdfrwt beam="1">  1        2 0.37744415E+00 0.13500225E+04</pdfrwt>
<pdfrwt beam="2">  1       -2 0.28572129E-01 0.13500225E+04</pdfrwt>
<totfact> 0.40779329E+01</totfact>
</mgrwt>
</event>
<event>
 6    1  0.5196787E-004  0.3477619E+04  0.7818608E-02  0.8119114E-01
         -2   -1    0    0    0  501 -0.00000000000E+00  0.00000000000E+00  0.94078112500E+03  0.94078112500E+03  0.00000000000E+00 0. -1.
          2   -1    0    0  501    0  0.00000000000E+00 -0.00000000000E+00 -0.32137749049E+04  0.32137749049E+04  0.00000000000E+00 0.  1.
         23    2    1    2    0    0 -0.76304620119E+03  0.15428894491E+04 -0.85342114078E+03  0.19234276528E+04  0.92189667225E+02 0.  0.
         11    1    3    3    0    0 -0.92837778680E+02  0.23552770102E+03 -0.98228079919E+02  0.27155276979E+03  0.00000000000E+00 0.  1.
        -11    1    3    3    0    0 -0.67020842251E+03  0.13073617481E+04 -0.75519306086E+03  0.16518748830E+04  0.00000000000E+00 0. -1.
         22    1    1    2    0    0  0.76304620119E+03 -0.15428894491E+04 -0.14195726391E+04  0.22311283771E+04  0.00000000000E+00 0. -1.
<mgrwt>
<rscale>  0 0.34776192E+04</rscale>
<asrwt>0</asrwt>
<pdfrwt beam="1">  1        2 0.49442692E+00 0.34776192E+04</pdfrwt>
<pdfrwt beam="2">  1       -2 0.14473555E+00 0.34776192E+04</pdfrwt>
<totfact> 0.34389756E-01</totfact>
</mgrwt>
</event>
<event>
 6    1  0.5196787E-004  0.2137042E+04  0.7818608E-02  0.8545099E-01
         -2   -1    0    0    0  501 -0.00000000000E+00  0.00000000000E+00  0.53638514895E+03  0.53638514895E+03  0.00000000000E+00 0. -1.
          2   -1    0    0  501    0  0.00000000000E+00 -0.00000000000E+00 -0.21285764636E+04  0.21285764636E+04  0.00000000000E+00 0.  1.
         23    2    1    2    0    0 -0.89705055801E+03 -0.50718384456E+03 -0.45465925345E+03  0.11300628061E+04  0.91606512887E+02 0.  0.
         13    1    3    3    0    0 -0.82729594636E+03 -0.43941483202E+03 -0.42256168738E+03  0.10276489464E+04  0.00000000000E+00 0. -1.
        -13    1    3    3    0    0 -0.69754611648E+02 -0.67769012537E+02 -0.32097566072E+02  0.10241385968E+03  0.00000000000E+00 0.  1.
         22    1    1    2    0    0  0.89705055801E+03  0.50718384456E+03 -0.11375320612E+04  0.15348988065E+04  0.00000000000E+00 0. -1.
<mgrwt>
<rscale>  0 0.21370417E+04</rscale>
<asrwt>0</asrwt>
<pdfrwt beam="1">  1        2 0.32747331E+00 0.21370417E+04</pdfrwt>
<pdfrwt beam="2">  1       -2 0.82520791E-01 0.21370417E+04</pdfrwt>
<totfact> 0.67051341E+00</totfact>
</mgrwt>
</event>
<event>
 6    1  0.5196787E-004  0.3777601E+03  0.7818608E-02  0.1051765E+00
         -2   -1    0    0    0  501 -0.00000000000E+00  0.00000000000E+00  0.36168115958E+02  0.36168115958E+02  0.00000000000E+00 0. -1.
          2   -1    0    0  501    0  0.00000000000E+00 -0.00000000000E+00 -0.98638445766E+03  0.98638445766E+03  0.00000000000E+00 0.  1.
         23    2    1    2    0    0  0.40533561599E+02 -0.14005822736E+03 -0.77862571380E+03  0.79738015024E+03  0.91092398858E+02 0.  0.
         11    1    3    3    0    0  0.45462907928E+02 -0.42230025999E+02 -0.45629740430E+03  0.46049709257E+03  0.00000000000E+00 0.  1.
        -11    1    3    3    0    0 -0.49293463298E+01 -0.97828201364E+02 -0.32232830951E+03  0.33688305767E+03  0.00000000000E+00 0. -1.
         22    1    1    2    0    0 -0.40533561599E+02  0.14005822736E+03 -0.17159062790E+03  0.22517242338E+03  0.00000000000E+00 0. -1.
<mgrwt>
<rscale>  0 0.37776007E+03</rscale>
<asrwt>0</asrwt>
<pdfrwt beam="1">  1        2 0.15175146E+00 0.37776007E+03</pdfrwt>
<pdfrwt beam="2">  1       -2 0.55643253E-02 0.37776007E+03</pdfrwt>
<totfact> 0.44696153E+03</totfact>
</mgrwt>
</event>
<event>
 6    1  0.5196787E-004  0.2004597E+04  0.7818608E-02  0.8604475E-01
          1   -1    0    0  501    0  0.00000000000E+00  0.00000000000E+00  0.61588139058E+03  0.61588139058E+03  0.00000000000E+00 0.  1.
         -1   -1    0    0    0  501 -0.00000000000E+00 -0.00000000000E+00 -0.16311611484E+04  0.16311611484E+04  0.00000000000E+00 0. -1.
         23    2    1    2    0    0 -0.41221425581E+03  0.62601907588E+03  0.23354153779E+03  0.79054842488E+03  0.92761447487E+02 0.  0.
         13    1    3    3    0    0 -0.37019864005E+03  0.52830043219E+03  0.17188541151E+03  0.66760240745E+03  0.00000000000E+00 0.  1.
        -13    1    3    3    0    0 -0.42015615769E+02  0.97718643692E+02  0.61656126283E+02  0.12294601743E+03  0.00000000000E+00 0. -1.
         22    1    1    2    0    0  0.41221425581E+03 -0.62601907588E+03 -0.12488212956E+04  0.14564941141E+04  0.00000000000E+00 0. -1.
<mgrwt>
<rscale>  0 0.20045965E+04</rscale>
<asrwt>0</asrwt>
<pdfrwt beam="1">  1        1 0.94750985E-01 0.20045965E+04</pdfrwt>
<pdfrwt beam="2">  1       -1 0.25094787E+00 0.20045965E+04</pdfrwt>
<totfact> 0.21014291E+00</totfact>
</mgrwt>
</event>
<event>
 6    1  0.5196787E-004  0.2934693E+04  0.7818608E-02  0.8262630E-01
          2   -1    0    0  501    0  0.00000000000E+00  0.00000000000E+00  0.19583921787E+04  0.19583921787E+04  0.00000000000E+00 0.  1.
         -2   -1    0    0    0  501 -0.00000000000E+00 -0.00000000000E+00 -0.10994250220E+04  0.10994250220E+04  0.00000000000E+00 0. -1.
         23    2    1    2    0    0 -0.53258333748E+03 -0.13470917226E+04  0.66504892643E+03  0.15963434923E+04  0.87871213921E+02 0.  0.
         13    1    3    3    0    0 -0.46916252150E+03 -0.11038021309E+04  0.53509070995E+03  0.13133220030E+04  0.00000000000E+00 0. -1.
        -13    1    3    3    0    0 -0.63420815981E+02 -0.24328959178E+03  0.12995821648E+03  0.28302148929E+03  0.00000000000E+00 0.  1.
         22    1    1    2    0    0  0.53258333748E+03  0.13470917226E+04  0.19391823023E+03  0.14614737085E+04  0.00000000000E+00 0. -1.
<mgrwt>
<rscale>  0 0.29346927E+04</rscale>
<asrwt>0</asrwt>
<pdfrwt beam="1">  1        2 0.30129110E+00 0.29346927E+04</pdfrwt>
<pdfrwt beam="2">  1       -2 0.16914231E+00 0.29346927E+04</pdfrwt>
<totfact> 0.13110462E+00</totfact>
</mgrwt>
</event>
<event>
 6    1  0.5196787E-004  0.1354592E+04  0.7818608E-02  0.8987359E-01
          2   -1    0    0  501    0  0.00000000000E+00  0.00000000000E+00  0.77050746081E+03  0.77050746081E+03  0.00000000000E+00 0.  1.
         -2   -1    0    0    0  501 -0.00000000000E+00 -0.00000000000E+00 -0.59536050831E+03  0.59536050831E+03  0.00000000000E+00 0. -1.
         23    2    1    2    0    0 -0.20273166407E+03 -0.92606863462E+02  0.72961000434E+03  0.76828497520E+03  0.90856402644E+02 0.  0.
         13    1    3    3    0    0 -0.12177295001E+03 -0.28607866686E+02  0.51747987959E+03  0.53238377809E+03  0.00000000000E+00 0.  1.
        -13    1    3    3    0    0 -0.80958714060E+02 -0.63998996776E+02  0.21213012475E+03  0.23590119711E+03  0.00000000000E+00 0. -1.
         22    1    1    2    0    0  0.20273166407E+03  0.92606863462E+02 -0.55446305184E+03  0.59758299393E+03  0.00000000000E+00 0. -1.
<mgrwt>
<rscale>  0 0.13545918E+04</rscale>
<asrwt>0</asrwt>
<pdfrwt beam="1">  1        2 0.11853961E+00 0.13545918E+04</pdfrwt>
<pdfrwt beam="2">  1       -2 0.91593924E-01 0.13545918E+04</pdfrwt>
<totfact> 0.35882211E+01</totfact>
</mgrwt>
</event>
<event>
 6    1  0.5196787E-004  0.2451867E+04  0.7818608E-02  0.8420337E-01
          2   -1    0    0  501    0  0.00000000000E+00  0.00000000000E+00  0.22391361914E+04  0.22391361914E+04  0.00000000000E+00 0.  1.
         -2   -1    0    0    0  501 -0.00000000000E+00 -0.00000000000E+00 -0.67120219091E+03  0.67120219091E+03  0.00000000000E+00 0. -1.
         23    2    1    2    0    0  0.13254415431E+03  0.98717969894E+03 -0.59679688336E+02  0.10021407954E+04  0.92912849946E+02 0.  0.
         13    1    3    3    0    0  0.98297520905E+02  0.47800537747E+03 -0.61070793802E+02  0.49181417767E+03  0.00000000000E+00 0.  1.
        -13    1    3    3    0    0  0.34246633402E+02  0.50917432147E+03  0.13911054661E+01  0.51032661768E+03  0.00000000000E+00 0. -1.
         22    1    1    2    0    0 -0.13254415431E+03 -0.98717969894E+03  0.16276136889E+04  0.19081975870E+04  0.00000000000E+00 0.  1.
<mgrwt>
<rscale>  0 0.24518671E+04</rscale>
<asrwt>0</asrwt>
<pdfrwt beam="1">  1        2 0.34448249E+00 0.24518671E+04</pdfrwt>
<pdfrwt beam="2">  1       -2 0.10326188E+00 0.24518671E+04</pdfrwt>
<totfact> 0.33619719E+00</totfact>
</mgrwt>
</event>
<event>
 6    1  0.5196787E-004  0.1110940E+04  0.7818608E-02  0.9194594E-01
          2   -1    0    0  501    0  0.00000000000E+00  0.00000000000E+00  0.14426920360E+04  0.14426920360E+04  0.00000000000E+00 0.  1.
         -2   -1    0    0    0  501 -0.00000000000E+00 -0.00000000000E+00 -0.21386888649E+03  0.21386888649E+03  0.00000000000E+00 0. -1.
         23    2    1    2    0    0 -0.32200059185E+03 -0.95746789867E+02 -0.34156209146E+02  0.34966816128E+03  0.90825918482E+02 0.  0.
         11    1    3    3    0    0 -0.10617478308E+03 -0.13167836292E+02  0.27566550780E+02  0.11048253797E+03  0.00000000000E+00 0. -1.
        -11    1    3    3    0    0 -0.21582580877E+03 -0.82578953575E+02 -0.61722759925E+02  0.23918562331E+03  0.00000000000E+00 0.  1.
         22    1    1    2    0    0  0.32200059185E+03  0.95746789867E+02  0.12629793587E+04  0.13068927612E+04  0.00000000000E+00 0.  1.
<mgrwt>
<rscale>  0 0.11109400E+04</rscale>
<asrwt>0</asrwt>
<pdfrwt beam="1">  1        2 0.22195262E+00 0.11109400E+04</pdfrwt>
<pdfrwt beam="2">  1       -2 0.32902906E-01 0.11109400E+04</pdfrwt>
<totfact> 0.11688576E+02</totfact>
</mgrwt>
</event>
<event>
 6    1  0.5196787E-004  0.1581683E+04  0.7818608E-02  0.8831880E-01
          2   -1    0    0  501    0  0.00000000000E+00  0.00000000000E+00  0.95350122020E+03  0.95350122020E+03  0.00000000000E+00 0.  1.
         -2   -1    0    0    0  501 -0.00000000000E+00 -0.00000000000E+00 -0.65593034945E+03  0.65593034945E+03  0.00000000000E+00 0. -1.
         23    2    1    2    0    0  0.67704241219E+03 -0.39035584814E+03  0.45023302960E+02  0.78812505556E+03  0.91377728804E+02 0.  0.
         13    1    3    3    0    0  0.29887293710E+03 -0.14068967685E+03  0.54926161105E+02  0.33486639257E+03  0.00000000000E+00 0.  1.
        -13    1    3    3    0    0  0.37816947509E+03 -0.24966617129E+03 -0.99028581451E+01  0.45325866299E+03  0.00000000000E+00 0. -1.
         22    1    1    2    0    0 -0.67704241219E+03  0.39035584814E+03  0.25254756779E+03  0.82130651408E+03  0.00000000000E+00 0.  1.
<mgrwt>
<rscale>  0 0.15816831E+04</rscale>
<asrwt>0</asrwt>
<pdfrwt beam="1">  1        2 0.14669250E+00 0.15816831E+04</pdfrwt>
<pdfrwt beam="2">  1       -2 0.10091236E+00 0.15816831E+04</pdfrwt>
<totfact> 0.20967169E+01</totfact>
</mgrwt>
</event>
<event>
 6    1  0.5196787E-004  0.2746475E+04  0.7818608E-02  0.8320081E-01
         -2   -1    0    0    0  501 -0.00000000000E+00  0.00000000000E+00  0.94531119112E+03  0.94531119112E+03  0.00000000000E+00 0. -1.
          2   -1    0    0  501    0  0.00000000000E+00 -0.00000000000E+00 -0.19948786728E+04  0.19948786728E+04  0.00000000000E+00 0.  1.
         23    2    1    2    0    0 -0.10426614751E+04 -0.34886113889E+03 -0.14041055114E+04  0.17849650976E+04  0.75769826862E+02 0.  0.
         11    1    3    3    0    0 -0.87565825311E+03 -0.31262907609E+03 -0.12175166139E+04  0.15319468074E+04  0.00000000000E+00 0.  1.
        -11    1    3    3    0    0 -0.16700322203E+03 -0.36232062801E+02 -0.18658889748E+03  0.25301829026E+03  0.00000000000E+00 0. -1.
         22    1    1    2    0    0  0.10426614751E+04  0.34886113889E+03  0.35453802977E+03  0.11552247662E+04  0.00000000000E+00 0. -1.
<mgrwt>
<rscale>  0 0.27464749E+04</rscale>
<asrwt>0</asrwt>
<pdfrwt beam="1">  1        2 0.30690441E+00 0.27464749E+04</pdfrwt>
<pdfrwt beam="2">  1       -2 0.14543249E+00 0.27464749E+04</pdfrwt>
<totfact> 0.19110791E+00</totfact>
</mgrwt>
</event>
<event>
 6    1  0.5196787E-004  0.2125782E+04  0.7818608E-02  0.8549971E-01
          2   -1    0    0  501    0  0.00000000000E+00  0.00000000000E+00  0.11257976271E+04  0.11257976271E+04  0.00000000000E+00 0.  1.
         -2   -1    0    0    0  501 -0.00000000000E+00 -0.00000000000E+00 -0.10034989822E+04  0.10034989822E+04  0.00000000000E+00 0. -1.
         23    2    1    2    0    0 -0.62542173247E+03 -0.40503833513E+03 -0.69385842060E+03  0.10241627931E+04  0.11073175918E+03 0.  0.
         11    1    3    3    0    0 -0.93055404676E+02 -0.75952241083E+02 -0.63492778183E+02  0.13586531620E+03  0.00000000000E+00 0. -1.
        -11    1    3    3    0    0 -0.53236632780E+03 -0.32908609405E+03 -0.63036564242E+03  0.88829747687E+03  0.00000000000E+00 0.  1.
         22    1    1    2    0    0  0.62542173247E+03  0.40503833513E+03  0.81615706549E+03  0.11051338163E+04  0.00000000000E+00 0.  1.
<mgrwt>
<rscale>  0 0.21257815E+04</rscale>
<asrwt>0</asrwt>
<pdfrwt beam="1">  1        2 0.17319964E+00 0.21257815E+04</pdfrwt>
<pdfrwt beam="2">  1       -2 0.15438446E+00 0.21257815E+04</pdfrwt>
<totfact> 0.53595852E+00</totfact>
</mgrwt>
</event>
<event>
 6    1  0.5196787E-004  0.5899513E+03  0.7818608E-02  0.9926476E-01
          2   -1    0    0  501    0  0.00000000000E+00  0.00000000000E+00  0.30459272849E+04  0.30459272849E+04  0.00000000000E+00 0.  1.
         -2   -1    0    0    0  501 -0.00000000000E+00 -0.00000000000E+00 -0.28566220599E+02  0.28566220599E+02  0.00000000000E+00 0. -1.
         23    2    1    2    0    0  0.12916963925E+03 -0.25442702902E+03  0.17504811975E+04  0.17758778942E+04  0.90221747822E+02 0.  0.
         13    1    3    3    0    0  0.32384274737E+02 -0.13191085474E+02  0.32658722005E+03  0.32845389066E+03  0.00000000000E+00 0.  1.
        -13    1    3    3    0    0  0.96785364512E+02 -0.24123594355E+03  0.14238939774E+04  0.14474240036E+04  0.00000000000E+00 0. -1.
         22    1    1    2    0    0 -0.12916963925E+03  0.25442702902E+03  0.12668798668E+04  0.12986156112E+04  0.00000000000E+00 0. -1.
<mgrwt>
<rscale>  0 0.58995129E+03</rscale>
<asrwt>0</asrwt>
<pdfrwt beam="1">  1        2 0.46860394E+00 0.58995129E+03</pdfrwt>
<pdfrwt beam="2">  1       -2 0.43948056E-02 0.58995129E+03</pdfrwt>
<totfact> 0.44196425E+02</totfact>
</mgrwt>
</event>
<event>
 6    1  0.5196787E-004  0.3172247E+04  0.7818608E-02  0.8196185E-01
         -2   -1    0    0    0  501 -0.00000000000E+00  0.00000000000E+00  0.14677402849E+04  0.14677402849E+04  0.00000000000E+00 0. -1.
          2   -1    0    0  501    0  0.00000000000E+00 -0.00000000000E+00 -0.17140549638E+04  0.17140549638E+04  0.00000000000E+00 0.  1.
         23    2    1    2    0    0  0.22835464120E+03 -0.15495354386E+04 -0.36575385134E+03  0.16109764707E+04  0.90903199191E+02 0.  0.
         11    1    3    3    0    0  0.64295056864E+02 -0.62160079789E+03 -0.18223874784E+03  0.65094728473E+03  0.00000000000E+00 0. -1.
        -11    1    3    3    0    0  0.16405958434E+03 -0.92793464071E+03 -0.18351510350E+03  0.96002918594E+03  0.00000000000E+00 0.  1.
         22    1    1    2    0    0 -0.22835464120E+03  0.15495354386E+04  0.11943917244E+03  0.15708187781E+04  0.00000000000E+00 0. -1.
<mgrwt>
<rscale>  0 0.31722469E+04</rscale>
<asrwt>0</asrwt>
<pdfrwt beam="1">  1        2 0.26370076E+00 0.31722469E+04</pdfrwt>
<pdfrwt beam="2">  1       -2 0.22580620E+00 0.31722469E+04</pdfrwt>
<totfact> 0.73848762E-01</totfact>
</mgrwt>
</event>
<event>
 6    1  0.5196787E-004  0.1650225E+04  0.7818608E-02  0.8790273E-01
          2   -1    0    0  501    0  0.00000000000E+00  0.00000000000E+00  0.84054708658E+03  0.84054708658E+03  0.00000000000E+00 0.  1.
         -2   -1    0    0    0  501 -0.00000000000E+00 -0.00000000000E+00 -0.80996172968E+03  0.80996172968E+03  0.00000000000E+00 0. -1.
         23    2    1    2    0    0  0.71484767886E+03  0.13884019732E+03  0.39822324045E+03  0.83476288903E+03  0.89238597664E+02 0.  0.
         11    1    3    3    0    0  0.11302177442E+03  0.34952346085E+02  0.31629828620E+02  0.12245829514E+03  0.00000000000E+00 0. -1.
        -11    1    3    3    0    0  0.60182590444E+03  0.10388785124E+03  0.36659341182E+03  0.71230459390E+03  0.00000000000E+00 0.  1.
         22    1    1    2    0    0 -0.71484767886E+03 -0.13884019732E+03 -0.36763788355E+03  0.81574592722E+03  0.00000000000E+00 0.  1.
<mgrwt>
<rscale>  0 0.16502254E+04</rscale>
<asrwt>0</asrwt>
<pdfrwt beam="1">  1        2 0.12931494E+00 0.16502254E+04</pdfrwt>
<pdfrwt beam="2">  1       -2 0.12460950E+00 0.16502254E+04</pdfrwt>
<totfact> 0.14875648E+01</totfact>
</mgrwt>
</event>
<event>
 6    1  0.5196787E-004  0.3603803E+04  0.7818608E-02  0.8089621E-01
          2   -1    0    0  501    0  0.00000000000E+00  0.00000000000E+00  0.22715570459E+04  0.22715570459E+04  0.00000000000E+00 0.  1.
         -2   -1    0    0    0  501 -0.00000000000E+00 -0.00000000000E+00 -0.14293496518E+04  0.14293496518E+04  0.00000000000E+00 0. -1.
         23    2    1    2    0    0  0.36845148595E+03 -0.14127349491E+04 -0.66111799971E+03  0.16053008728E+04  0.91309083418E+02 0.  0.
         13    1    3    3    0    0  0.15826564440E+03 -0.77431550739E+03 -0.33876253270E+03  0.85986776468E+03  0.00000000000E+00 0. -1.
        -13    1    3    3    0    0  0.21018584155E+03 -0.63841944172E+03 -0.32235546701E+03  0.74543310811E+03  0.00000000000E+00 0.  1.
         22    1    1    2    0    0 -0.36845148595E+03  0.14127349491E+04  0.15033253938E+04  0.20956058250E+04  0.00000000000E+00 0.  1.
<mgrwt>
<rscale>  0 0.36038031E+04</rscale>
<asrwt>0</asrwt>
<pdfrwt beam="1">  1        2 0.34947032E+00 0.36038031E+04</pdfrwt>
<pdfrwt beam="2">  1       -2 0.21989995E+00 0.36038031E+04</pdfrwt>
<totfact> 0.37946210E-01</totfact>
</mgrwt>
</event>
<event>
 6    1  0.5196787E-004  0.2669593E+04  0.7818608E-02  0.8344939E-01
         -2   -1    0    0    0  501 -0.00000000000E+00  0.00000000000E+00  0.80597478600E+03  0.80597478600E+03  0.00000000000E+00 0. -1.
          2   -1    0    0  501    0  0.00000000000E+00 -0.00000000000E+00 -0.22105930808E+04  0.22105930808E+04  0.00000000000E+00 0.  1.
         23    2    1    2    0    0 -0.10864778942E+04 -0.22445554412E+03 -0.15386144210E+04  0.18990843243E+04  0.91500976373E+02 0.  0.
         11    1    3    3    0    0 -0.10130140464E+04 -0.22264903750E+03 -0.14019223468E+04  0.17438911430E+04  0.00000000000E+00 0. -1.
        -11    1    3    3    0    0 -0.73463847759E+02 -0.18065066220E+01 -0.13669207418E+03  0.15519318135E+03  0.00000000000E+00 0.  1.
         22    1    1    2    0    0  0.10864778942E+04  0.22445554412E+03  0.13399612623E+03  0.11174835424E+04  0.00000000000E+00 0. -1.
<mgrwt>
<rscale>  0 0.26695934E+04</rscale>
<asrwt>0</asrwt>
<pdfrwt beam="1">  1        2 0.34009124E+00 0.26695934E+04</pdfrwt>
<pdfrwt beam="2">  1       -2 0.12399612E+00 0.26695934E+04</pdfrwt>
<totfact> 0.21915813E+00</totfact>
</mgrwt>
</event>
<event>
 6    1  0.5196787E-004  0.2503475E+04  0.7818608E-02  0.8401749E-01
         -2   -1    0    0    0  501 -0.00000000000E+00  0.00000000000E+00  0.31919754503E+04  0.31919754503E+04  0.00000000000E+00 0. -1.
          2   -1    0    0  501    0  0.00000000000E+00 -0.00000000000E+00 -0.49087039487E+03  0.49087039487E+03  0.00000000000E+00 0.  1.
         23    2    1    2    0    0 -0.86913771647E+02  0.12470485500E+04  0.13603153987E+04  0.18497061906E+04  0.90944585991E+02 0.  0.
         11    1    3    3    0    0 -0.97815985290E+02  0.86303347462E+03  0.91544154142E+03  0.12619144032E+04  0.00000000000E+00 0.  1.
        -11    1    3    3    0    0  0.10902213643E+02  0.38401507536E+03  0.44487385730E+03  0.58779178735E+03  0.00000000000E+00 0. -1.
         22    1    1    2    0    0  0.86913771647E+02 -0.12470485500E+04  0.13407896567E+04  0.18331396546E+04  0.00000000000E+00 0.  1.
<mgrwt>
<rscale>  0 0.25034746E+04</rscale>
<asrwt>0</asrwt>
<pdfrwt beam="1">  1        2 0.75518524E-01 0.25034746E+04</pdfrwt>
<pdfrwt beam="2">  1       -2 0.49107313E+00 0.25034746E+04</pdfrwt>
<totfact> 0.10490449E-01</totfact>
</mgrwt>
</event>
<event>
 6    1  0.5196787E-004  0.1582089E+04  0.7818608E-02  0.8831628E-01
          2   -1    0    0  501    0  0.00000000000E+00  0.00000000000E+00  0.18453443115E+04  0.18453443115E+04  0.00000000000E+00 0.  1.
         -2   -1    0    0    0  501 -0.00000000000E+00 -0.00000000000E+00 -0.33909719740E+03  0.33909719740E+03  0.00000000000E+00 0. -1.
         23    2    1    2    0    0  0.47635666321E+03  0.60387362699E+03  0.99457130678E+03  0.12606497793E+04  0.92123578436E+02 0.  0.
         11    1    3    3    0    0  0.26578277525E+03  0.40344424977E+03  0.59285740798E+03  0.76477947964E+03  0.00000000000E+00 0. -1.
        -11    1    3    3    0    0  0.21057388795E+03  0.20042937722E+03  0.40171389881E+03  0.49587029961E+03  0.00000000000E+00 0.  1.
         22    1    1    2    0    0 -0.47635666321E+03 -0.60387362699E+03  0.51167580730E+03  0.92379172963E+03  0.00000000000E+00 0. -1.
<mgrwt>
<rscale>  0 0.15820886E+04</rscale>
<asrwt>0</asrwt>
<pdfrwt beam="1">  1        2 0.28389912E+00 0.15820886E+04</pdfrwt>
<pdfrwt beam="2">  1       -2 0.52168801E-01 0.15820886E+04</pdfrwt>
<totfact> 0.27120772E+01</totfact>
</mgrwt>
</event>
<event>
 6    1  0.5656030E-004  0.4334504E+04  0.7818608E-02  0.7940269E-01
          2   -1    0    0  501    0  0.00000000000E+00  0.00000000000E+00  0.34996117387E+04  0.34996117387E+04  0.00000000000E+00 0.  1.
         -2   -1    0    0    0  501 -0.00000000000E+00 -0.00000000000E+00 -0.13421433168E+04  0.13421433168E+04  0.00000000000E+00 0. -1.
         23    2    1    2    0    0 -0.19575876987E+04  0.92578313038E+03  0.10127850074E+04  0.23923624528E+04  0.91872911966E+02 0.  0.
         11    1    3    3    0    0 -0.11839539212E+04  0.51015072183E+03  0.59888032544E+03  0.14214986074E+04  0.00000000000E+00 0. -1.
        -11    1    3    3    0    0 -0.77363377747E+03  0.41563240855E+03  0.41390468195E+03  0.97086384546E+03  0.00000000000E+00 0.  1.
         22    1    1    2    0    0  0.19575876987E+04 -0.92578313038E+03  0.11446834146E+04  0.24493926027E+04  0.00000000000E+00 0. -1.
<mgrwt>
<rscale>  0 0.43345037E+04</rscale>
<asrwt>0</asrwt>
<pdfrwt beam="1">  1        2 0.53840180E+00 0.43345037E+04</pdfrwt>
<pdfrwt beam="2">  1       -2 0.20648359E+00 0.43345037E+04</pdfrwt>
<totfact> 0.75228531E-02</totfact>
</mgrwt>
</event>
<event>
 6    1  0.5196787E-004  0.4303909E+04  0.7818608E-02  0.7945896E-01
         -2   -1    0    0    0  501 -0.00000000000E+00  0.00000000000E+00  0.17297784586E+04  0.17297784586E+04  0.00000000000E+00 0. -1.
          2   -1    0    0  501    0  0.00000000000E+00 -0.00000000000E+00 -0.26771680972E+04  0.26771680972E+04  0.00000000000E+00 0.  1.
         23    2    1    2    0    0  0.13538752898E+04 -0.13703940259E+04 -0.14536830581E+04  0.24151405628E+04  0.93549014688E+02 0.  0.
         13    1    3    3    0    0  0.10318489226E+04 -0.10993672653E+04 -0.11350980887E+04  0.18872647546E+04  0.00000000000E+00 0. -1.
        -13    1    3    3    0    0  0.32202636719E+03 -0.27102676059E+03 -0.31858496945E+03  0.52787580819E+03  0.00000000000E+00 0.  1.
         22    1    1    2    0    0 -0.13538752898E+04  0.13703940259E+04  0.50629341955E+03  0.19918059929E+04  0.00000000000E+00 0. -1.
<mgrwt>
<rscale>  0 0.43039088E+04</rscale>
<asrwt>0</asrwt>
<pdfrwt beam="1">  1        2 0.41187202E+00 0.43039088E+04</pdfrwt>
<pdfrwt beam="2">  1       -2 0.26611976E+00 0.43039088E+04</pdfrwt>
<totfact> 0.10795017E-01</totfact>
</mgrwt>
</event>
<event>
 6    1  0.5196787E-004  0.4376734E+04  0.7818608E-02  0.7932580E-01
          2   -1    0    0  501    0  0.00000000000E+00  0.00000000000E+00  0.18058001293E+04  0.18058001293E+04  0.00000000000E+00 0.  1.
         -2   -1    0    0    0  501 -0.00000000000E+00 -0.00000000000E+00 -0.26519823084E+04  0.26519823084E+04  0.00000000000E+00 0. -1.
         23    2    1    2    0    0 -0.16771565394E+04 -0.10050007654E+04  0.57570557729E+03  0.20402122964E+04  0.90270185816E+02 0.  0.
         13    1    3    3    0    0 -0.57217825066E+03 -0.34379504237E+03  0.15212727040E+03  0.68463544174E+03  0.00000000000E+00 0.  1.
        -13    1    3    3    0    0 -0.11049782888E+04 -0.66120572308E+03  0.42357830689E+03  0.13555768547E+04  0.00000000000E+00 0. -1.
         22    1    1    2    0    0  0.16771565394E+04  0.10050007654E+04 -0.14218877564E+04  0.24175701413E+04  0.00000000000E+00 0.  1.
<mgrwt>
<rscale>  0 0.43767339E+04</rscale>
<asrwt>0</asrwt>
<pdfrwt beam="1">  1        2 0.27781540E+00 0.43767339E+04</pdfrwt>
<pdfrwt beam="2">  1       -2 0.40799728E+00 0.43767339E+04</pdfrwt>
<totfact> 0.43119765E-02</totfact>
</mgrwt>
</event>
<event>
 6    1  0.5196787E-004  0.2833385E+04  0.7818608E-02  0.8292978E-01
         -2   -1    0    0    0  501 -0.00000000000E+00  0.00000000000E+00  0.13349747779E+04  0.13349747779E+04  0.00000000000E+00 0. -1.
          2   -1    0    0  501    0  0.00000000000E+00 -0.00000000000E+00 -0.15034120605E+04  0.15034120605E+04  0.00000000000E+00 0.  1.
         23    2    1    2    0    0  0.30539595253E+03 -0.24228053710E+03  0.12785609464E+04  0.13397973613E+04  0.91500432943E+02 0.  0.
         11    1    3    3    0    0  0.44016108290E+02 -0.15096681506E+01  0.17336623425E+03  0.17887299423E+03  0.00000000000E+00 0.  1.
        -11    1    3    3    0    0  0.26137984424E+03 -0.24077086895E+03  0.11051947121E+04  0.11609243671E+04  0.00000000000E+00 0. -1.
         22    1    1    2    0    0 -0.30539595253E+03  0.24228053710E+03 -0.14469982290E+04  0.14985894772E+04  0.00000000000E+00 0.  1.
<mgrwt>
<rscale>  0 0.28333847E+04</rscale>
<asrwt>0</asrwt>
<pdfrwt beam="1">  1        2 0.23129416E+00 0.28333847E+04</pdfrwt>
<pdfrwt beam="2">  1       -2 0.20538073E+00 0.28333847E+04</pdfrwt>
<totfact> 0.13452946E+00</totfact>
</mgrwt>
</event>
<event>
 6    1  0.5196787E-004  0.2672306E+04  0.7818608E-02  0.8344047E-01
         -2   -1    0    0    0  501 -0.00000000000E+00  0.00000000000E+00  0.11157172531E+04  0.11157172531E+04  0.00000000000E+00 0. -1.
          2   -1    0    0  501    0  0.00000000000E+00 -0.00000000000E+00 -0.16001404727E+04  0.16001404727E+04  0.00000000000E+00 0.  1.
         23    2    1    2    0    0  0.13094901012E+04  0.12663815088E+03 -0.14493588838E+02  0.13188482755E+04  0.91373757188E+02 0.  0.
         11    1    3    3    0    0  0.74357279594E+03  0.11693466430E+03 -0.14336587684E+02  0.75284776437E+03  0.00000000000E+00 0.  1.
        -11    1    3    3    0    0  0.56591730523E+03  0.97034865828E+01 -0.15700115391E+00  0.56600051118E+03  0.00000000000E+00 0. -1.
         22    1    1    2    0    0 -0.13094901012E+04 -0.12663815088E+03 -0.46992963075E+03  0.13970094503E+04  0.00000000000E+00 0.  1.
<mgrwt>
<rscale>  0 0.26723056E+04</rscale>
<asrwt>0</asrwt>
<pdfrwt beam="1">  1        2 0.24617546E+00 0.26723056E+04</pdfrwt>
<pdfrwt beam="2">  1       -2 0.17164881E+00 0.26723056E+04</pdfrwt>
<totfact> 0.20343236E+00</totfact>
</mgrwt>
</event>
<event>
 6    1  0.5196787E-004  0.3465506E+04  0.7818608E-02  0.8122014E-01
         -2   -1    0    0    0  501 -0.00000000000E+00  0.00000000000E+00  0.16570094428E+04  0.16570094428E+04  0.00000000000E+00 0. -1.
          2   -1    0    0  501    0  0.00000000000E+00 -0.00000000000E+00 -0.18119586461E+04  0.18119586461E+04  0.00000000000E+00 0.  1.
         23    2    1    2    0    0 -0.10377756382E+04  0.68618064784E+02  0.13083049005E+04  0.16737524232E+04  0.89993040147E+02 0.  0.
         11    1    3    3    0    0 -0.48998113641E+03  0.52544506503E+02  0.68407122924E+03  0.84308711642E+03  0.00000000000E+00 0.  1.
        -11    1    3    3    0    0 -0.54779450183E+03  0.16073558281E+02  0.62423367126E+03  0.83066530676E+03  0.00000000000E+00 0. -1.
         22    1    1    2    0    0  0.10377756382E+04 -0.68618064784E+02 -0.14632541038E+04  0.17952156657E+04  0.00000000000E+00 0.  1.
<mgrwt>
<rscale>  0 0.34655058E+04</rscale>
<asrwt>0</asrwt>
<pdfrwt beam="1">  1        2 0.27876287E+00 0.34655058E+04</pdfrwt>
<pdfrwt beam="2">  1       -2 0.25492453E+00 0.34655058E+04</pdfrwt>
<totfact> 0.41971773E-01</totfact>
</mgrwt>
</event>
<event>
 6    1  0.7471368E-004  0.3802604E+04  0.7818608E-02  0.8045596E-01
          2   -1    0    0  501    0  0.00000000000E+00  0.00000000000E+00  0.20766903346E+04  0.20766903346E+04  0.00000000000E+00 0.  1.
         -2   -1    0    0    0  501 -0.00000000000E+00 -0.00000000000E+00 -0.17407263002E+04  0.17407263002E+04  0.00000000000E+00 0. -1.
         23    2    1    2    0    0 -0.81603217542E+02 -0.14971834698E+04  0.13404535435E+04  0.20126405818E+04  0.75425337310E+02 0.  0.
         11    1    3    3    0    0 -0.67738947181E+02 -0.80786861307E+03  0.76346004018E+03  0.11136029337E+04  0.00000000000E+00 0. -1.
        -11    1    3    3    0    0 -0.13864270361E+02 -0.68931485677E+03  0.57699350334E+03  0.89903764807E+03  0.00000000000E+00 0.  1.
         22    1    1    2    0    0  0.81603217542E+02  0.14971834698E+04 -0.10044895092E+04  0.18047760530E+04  0.00000000000E+00 0.  1.
<mgrwt>
<rscale>  0 0.38026041E+04</rscale>
<asrwt>0</asrwt>
<pdfrwt beam="1">  1        2 0.31949082E+00 0.38026041E+04</pdfrwt>
<pdfrwt beam="2">  1       -2 0.26780405E+00 0.38026041E+04</pdfrwt>
<totfact> 0.24264599E-01</totfact>
</mgrwt>
</event>
<event>
 6    1  0.5196787E-004  0.4640712E+04  0.7818608E-02  0.7886455E-01
         -2   -1    0    0    0  501 -0.00000000000E+00  0.00000000000E+00  0.15125387165E+04  0.15125387165E+04  0.00000000000E+00 0. -1.
          2   -1    0    0  501    0  0.00000000000E+00 -0.00000000000E+00 -0.35596122798E+04  0.35596122798E+04  0.00000000000E+00 0.  1.
         23    2    1    2    0    0  0.20628022701E+04 -0.58896034202E+03 -0.19878733045E+04  0.29261006333E+04  0.91635973891E+02 0.  0.
         13    1    3    3    0    0  0.53576848738E+03 -0.16850540947E+03 -0.47012878769E+03  0.73243636045E+03  0.00000000000E+00 0. -1.
        -13    1    3    3    0    0  0.15270337827E+04 -0.42045493255E+03 -0.15177445168E+04  0.21936642729E+04  0.00000000000E+00 0.  1.
         22    1    1    2    0    0 -0.20628022701E+04  0.58896034202E+03 -0.59200258831E+02  0.21460503630E+04  0.00000000000E+00 0. -1.
<mgrwt>
<rscale>  0 0.46407118E+04</rscale>
<asrwt>0</asrwt>
<pdfrwt beam="1">  1        2 0.54763265E+00 0.46407118E+04</pdfrwt>
<pdfrwt beam="2">  1       -2 0.23269827E+00 0.46407118E+04</pdfrwt>
<totfact> 0.45363282E-02</totfact>
</mgrwt>
</event>
<event>
 6    1  0.5196787E-004  0.6598719E+03  0.7818608E-02  0.9788430E-01
          2   -1    0    0  501    0  0.00000000000E+00  0.00000000000E+00  0.32607018516E+04  0.32607018516E+04  0.00000000000E+00 0.  1.
         -2   -1    0    0    0  501 -0.00000000000E+00 -0.00000000000E+00 -0.33384758355E+02  0.33384758355E+02  0.00000000000E+00 0. -1.
         23    2    1    2    0    0  0.57173858144E+02  0.26920698756E+03  0.25047033861E+04  0.25208390287E+04  0.73137568413E+02 0.  0.
         11    1    3    3    0    0 -0.14685535345E+02  0.93117518773E+02  0.77580652687E+03  0.78151283060E+03  0.00000000000E+00 0. -1.
        -11    1    3    3    0    0  0.71859393489E+02  0.17608946879E+03  0.17288968592E+04  0.17393261981E+04  0.00000000000E+00 0.  1.
         22    1    1    2    0    0 -0.57173858144E+02 -0.26920698756E+03  0.72261370713E+03  0.77324758127E+03  0.00000000000E+00 0. -1.
<mgrwt>
<rscale>  0 0.65987194E+03</rscale>
<asrwt>0</asrwt>
<pdfrwt beam="1">  1        2 0.50164619E+00 0.65987194E+03</pdfrwt>
<pdfrwt beam="2">  1       -2 0.51361193E-02 0.65987194E+03</pdfrwt>
<totfact> 0.25242112E+02</totfact>
</mgrwt>
</event>
<event>
 6    1  0.5196787E-004  0.3569841E+04  0.7818608E-02  0.8097435E-01
         -2   -1    0    0    0  501 -0.00000000000E+00  0.00000000000E+00  0.94868884861E+03  0.94868884861E+03  0.00000000000E+00 0. -1.
          2   -1    0    0  501    0  0.00000000000E+00 -0.00000000000E+00 -0.33582566912E+04  0.33582566912E+04  0.00000000000E+00 0.  1.
         23    2    1    2    0    0 -0.59796984165E+03  0.15359168887E+04 -0.20284724554E+04  0.26152474832E+04  0.90610571924E+02 0.  0.
         11    1    3    3    0    0 -0.28733073162E+03  0.77350614372E+03 -0.94657178013E+03  0.12557343822E+04  0.00000000000E+00 0. -1.
        -11    1    3    3    0    0 -0.31063911003E+03  0.76241074502E+03 -0.10819006752E+04  0.13595131010E+04  0.00000000000E+00 0.  1.
         22    1    1    2    0    0  0.59796984165E+03 -0.15359168887E+04 -0.38109538728E+03  0.16916980566E+04  0.00000000000E+00 0. -1.
<mgrwt>
<rscale>  0 0.35698407E+04</rscale>
<asrwt>0</asrwt>
<pdfrwt beam="1">  1        2 0.51665488E+00 0.35698407E+04</pdfrwt>
<pdfrwt beam="2">  1       -2 0.14595213E+00 0.35698407E+04</pdfrwt>
<totfact> 0.26748010E-01</totfact>
</mgrwt>
</event>
<event>
 6    1  0.5196787E-004  0.1246034E+04  0.7818608E-02  0.9073491E-01
          2   -1    0    0  501    0  0.00000000000E+00  0.00000000000E+00  0.21260924205E+04  0.21260924205E+04  0.00000000000E+00 0.  1.
         -2   -1    0    0    0  501 -0.00000000000E+00 -0.00000000000E+00 -0.18256508269E+03  0.18256508269E+03  0.00000000000E+00 0. -1.
         23    2    1    2    0    0  0.24011901830E+03 -0.52634963755E+03  0.56561043099E+03  0.81421577265E+03  0.91274754895E+02 0.  0.
         11    1    3    3    0    0  0.10830071369E+03 -0.34265075223E+03  0.35824828368E+03  0.50742528056E+03  0.00000000000E+00 0.  1.
        -11    1    3    3    0    0  0.13181830461E+03 -0.18369888532E+03  0.20736214731E+03  0.30679049209E+03  0.00000000000E+00 0. -1.
         22    1    1    2    0    0 -0.24011901830E+03  0.52634963755E+03  0.13779169068E+04  0.14944417305E+04  0.00000000000E+00 0.  1.
<mgrwt>
<rscale>  0 0.12460341E+04</rscale>
<asrwt>0</asrwt>
<pdfrwt beam="1">  1        2 0.32709112E+00 0.12460341E+04</pdfrwt>
<pdfrwt beam="2">  1       -2 0.28086937E-01 0.12460341E+04</pdfrwt>
<totfact> 0.64908780E+01</totfact>
</mgrwt>
</event>
<event>
 6    1  0.5196787E-004  0.2281655E+04  0.7818608E-02  0.8485190E-01
         -2   -1    0    0    0  501 -0.00000000000E+00  0.00000000000E+00  0.23279129535E+04  0.23279129535E+04  0.00000000000E+00 0. -1.
          2   -1    0    0  501    0  0.00000000000E+00 -0.00000000000E+00 -0.55907884230E+03  0.55907884230E+03  0.00000000000E+00 0.  1.
         23    2    1    2    0    0 -0.76517503772E+03 -0.65435080327E+03  0.15597560365E+04  0.18587012466E+04  0.90904449101E+02 0.  0.
         13    1    3    3    0    0 -0.69709552428E+03 -0.62590628889E+03  0.14344236284E+04  0.17132635519E+04  0.00000000000E+00 0.  1.
        -13    1    3    3    0    0 -0.68079513443E+02 -0.28444514381E+02  0.12533240804E+03  0.14543769475E+03  0.00000000000E+00 0. -1.
         22    1    1    2    0    0  0.76517503772E+03  0.65435080327E+03  0.20907807468E+03  0.10282905491E+04  0.00000000000E+00 0.  1.
<mgrwt>
<rscale>  0 0.22816546E+04</rscale>
<asrwt>0</asrwt>
<pdfrwt beam="1">  1        2 0.86012131E-01 0.22816546E+04</pdfrwt>
<pdfrwt beam="2">  1       -2 0.35814045E+00 0.22816546E+04</pdfrwt>
<totfact> 0.67820174E-01</totfact>
</mgrwt>
</event>
<event>
 6    1  0.5196787E-004  0.9953714E+03  0.7818608E-02  0.9313636E-01
         -2   -1    0    0    0  501 -0.00000000000E+00  0.00000000000E+00  0.11531873102E+03  0.11531873102E+03  0.00000000000E+00 0. -1.
          2   -1    0    0  501    0  0.00000000000E+00 -0.00000000000E+00 -0.21478820499E+04  0.21478820499E+04  0.00000000000E+00 0.  1.
         23    2    1    2    0    0 -0.83968878482E+02  0.18648209550E+02 -0.21297611757E+04  0.21334088257E+04  0.90288558329E+02 0.  0.
         11    1    3    3    0    0 -0.31517375235E+00 -0.10958053131E+02 -0.10347037174E+04  0.10347617895E+04  0.00000000000E+00 0. -1.
        -11    1    3    3    0    0 -0.83653704730E+02  0.29606262681E+02 -0.10950574583E+04  0.10986470361E+04  0.00000000000E+00 0.  1.
         22    1    1    2    0    0  0.83968878482E+02 -0.18648209550E+02  0.97197856820E+02  0.12979195523E+03  0.00000000000E+00 0. -1.
<mgrwt>
<rscale>  0 0.99537135E+03</rscale>
<asrwt>0</asrwt>
<pdfrwt beam="1">  1        2 0.33044340E+00 0.99537135E+03</pdfrwt>
<pdfrwt beam="2">  1       -2 0.17741343E-01 0.99537135E+03</pdfrwt>
<totfact> 0.14620193E+02</totfact>
</mgrwt>
</event>
<event>
 6    1  0.5196787E-004  0.9936485E+03  0.7818608E-02  0.9315539E-01
          1   -1    0    0  501    0  0.00000000000E+00  0.00000000000E+00  0.14668610316E+04  0.14668610316E+04  0.00000000000E+00 0.  1.
         -1   -1    0    0    0  501 -0.00000000000E+00 -0.00000000000E+00 -0.16827383064E+03  0.16827383064E+03  0.00000000000E+00 0. -1.
         23    2    1    2    0    0 -0.25889781753E+03 -0.36353463656E+03  0.31190488809E+03  0.55220942694E+03  0.92005869812E+02 0.  0.
         11    1    3    3    0    0 -0.82361246927E+02 -0.16462146952E+03  0.17094622443E+03  0.25120950394E+03  0.00000000000E+00 0. -1.
        -11    1    3    3    0    0 -0.17653657060E+03 -0.19891316705E+03  0.14095866366E+03  0.30099992300E+03  0.00000000000E+00 0.  1.
         22    1    1    2    0    0  0.25889781753E+03  0.36353463656E+03  0.98668231286E+03  0.10829254353E+04  0.00000000000E+00 0. -1.
<mgrwt>
<rscale>  0 0.99364848E+03</rscale>
<asrwt>0</asrwt>
<pdfrwt beam="1">  1        1 0.22567092E+00 0.99364848E+03</pdfrwt>
<pdfrwt beam="2">  1       -1 0.25888283E-01 0.99364848E+03</pdfrwt>
<totfact> 0.91242103E+01</totfact>
</mgrwt>
</event>
<event>
 6    1  0.5196787E-004  0.1705034E+04  0.7818608E-02  0.8758498E-01
          2   -1    0    0  501    0  0.00000000000E+00  0.00000000000E+00  0.14686324853E+04  0.14686324853E+04  0.00000000000E+00 0.  1.
         -2   -1    0    0    0  501 -0.00000000000E+00 -0.00000000000E+00 -0.49487211899E+03  0.49487211899E+03  0.00000000000E+00 0. -1.
         23    2    1    2    0    0 -0.27535348574E+03 -0.53965087551E+03 -0.19836643506E+03  0.64406387124E+03  0.91795523474E+02 0.  0.
         11    1    3    3    0    0 -0.20700717904E+03 -0.31802972379E+03 -0.14388710525E+03  0.40583047747E+03  0.00000000000E+00 0.  1.
        -11    1    3    3    0    0 -0.68346306695E+02 -0.22162115172E+03 -0.54479329815E+02  0.23823339377E+03  0.00000000000E+00 0. -1.
         22    1    1    2    0    0  0.27535348574E+03  0.53965087551E+03  0.11721268014E+04  0.13194407331E+04  0.00000000000E+00 0.  1.
<mgrwt>
<rscale>  0 0.17050340E+04</rscale>
<asrwt>0</asrwt>
<pdfrwt beam="1">  1        2 0.22594346E+00 0.17050340E+04</pdfrwt>
<pdfrwt beam="2">  1       -2 0.76134173E-01 0.17050340E+04</pdfrwt>
<totfact> 0.19425410E+01</totfact>
</mgrwt>
</event>
<event>
 6    1  0.5196787E-004  0.1700873E+04  0.7818608E-02  0.8760867E-01
         -2   -1    0    0    0  501 -0.00000000000E+00  0.00000000000E+00  0.47097842836E+03  0.47097842836E+03  0.00000000000E+00 0. -1.
          2   -1    0    0  501    0  0.00000000000E+00 -0.00000000000E+00 -0.15356162558E+04  0.15356162558E+04  0.00000000000E+00 0.  1.
         23    2    1    2    0    0 -0.54276748819E+03  0.21983834953E+03  0.18970864604E+03  0.62228600410E+03  0.91241735828E+02 0.  0.
         13    1    3    3    0    0 -0.37751655547E+03  0.15080077125E+03  0.86634640588E+02  0.41565031362E+03  0.00000000000E+00 0.  1.
        -13    1    3    3    0    0 -0.16525093272E+03  0.69037578273E+02  0.10307400545E+03  0.20663569048E+03  0.00000000000E+00 0. -1.
         22    1    1    2    0    0  0.54276748819E+03 -0.21983834953E+03 -0.12543464735E+04  0.13843086801E+04  0.00000000000E+00 0.  1.
<mgrwt>
<rscale>  0 0.17008729E+04</rscale>
<asrwt>0</asrwt>
<pdfrwt beam="1">  1        2 0.23624865E+00 0.17008729E+04</pdfrwt>
<pdfrwt beam="2">  1       -2 0.72458220E-01 0.17008729E+04</pdfrwt>
<totfact> 0.19871724E+01</totfact>
</mgrwt>
</event>
<event>
 6    1  0.5196787E-004  0.1421556E+04  0.7818608E-02  0.8938361E-01
          2   -1    0    0  501    0  0.00000000000E+00  0.00000000000E+00  0.68212387997E+03  0.68212387997E+03  0.00000000000E+00 0.  1.
         -2   -1    0    0    0  501 -0.00000000000E+00 -0.00000000000E+00 -0.74063570217E+03  0.74063570217E+03  0.00000000000E+00 0. -1.
         23    2    1    2    0    0 -0.38222129436E+03  0.56048937601E+03 -0.23178620155E+03  0.72256998708E+03  0.90227958654E+02 0.  0.
         11    1    3    3    0    0 -0.26768116613E+03  0.45637234725E+03 -0.16752872894E+03  0.55497279308E+03  0.00000000000E+00 0.  1.
        -11    1    3    3    0    0 -0.11454012823E+03  0.10411702876E+03 -0.64257472607E+02  0.16759719400E+03  0.00000000000E+00 0. -1.
         22    1    1    2    0    0  0.38222129436E+03 -0.56048937601E+03  0.17327437936E+03  0.70018959505E+03  0.00000000000E+00 0.  1.
<mgrwt>
<rscale>  0 0.14215559E+04</rscale>
<asrwt>0</asrwt>
<pdfrwt beam="1">  1        2 0.10494214E+00 0.14215559E+04</pdfrwt>
<pdfrwt beam="2">  1       -2 0.11394395E+00 0.14215559E+04</pdfrwt>
<totfact> 0.24810228E+01</totfact>
</mgrwt>
</event>
<event>
 6    1  0.5196787E-004  0.2050750E+04  0.7818608E-02  0.8583254E-01
          1   -1    0    0  501    0  0.00000000000E+00  0.00000000000E+00  0.46550831865E+03  0.46550831865E+03  0.00000000000E+00 0.  1.
         -1   -1    0    0    0  501 -0.00000000000E+00 -0.00000000000E+00 -0.22585923351E+04  0.22585923351E+04  0.00000000000E+00 0. -1.
         23    2    1    2    0    0  0.58347283403E+03 -0.50491288587E+03 -0.50362353957E+01  0.77666838593E+03  0.88379000154E+02 0.  0.
         11    1    3    3    0    0  0.18372128134E+03 -0.13389718633E+03  0.34066856454E+02  0.22987500176E+03  0.00000000000E+00 0. -1.
        -11    1    3    3    0    0  0.39975155269E+03 -0.37101569954E+03 -0.39103091850E+02  0.54679338417E+03  0.00000000000E+00 0.  1.
         22    1    1    2    0    0 -0.58347283403E+03  0.50491288587E+03 -0.17880477811E+04  0.19474322678E+04  0.00000000000E+00 0. -1.
<mgrwt>
<rscale>  0 0.20507496E+04</rscale>
<asrwt>0</asrwt>
<pdfrwt beam="1">  1        1 0.71616666E-01 0.20507496E+04</pdfrwt>
<pdfrwt beam="2">  1       -1 0.34747574E+00 0.20507496E+04</pdfrwt>
<totfact> 0.73023746E-01</totfact>
</mgrwt>
</event>
<event>
 6    1  0.5196787E-004  0.8549689E+03  0.7818608E-02  0.9483692E-01
          2   -1    0    0  501    0  0.00000000000E+00  0.00000000000E+00  0.22265475839E+04  0.22265475839E+04  0.00000000000E+00 0.  1.
         -2   -1    0    0    0  501 -0.00000000000E+00 -0.00000000000E+00 -0.82074575618E+02  0.82074575618E+02  0.00000000000E+00 0. -1.
         23    2    1    2    0    0 -0.22766243116E+03 -0.33737832407E+03  0.77677106003E+03  0.88164530779E+03  0.90944229791E+02 0.  0.
         13    1    3    3    0    0 -0.93876400961E+02 -0.13698913551E+03  0.41486550549E+03  0.44686932044E+03  0.00000000000E+00 0.  1.
        -13    1    3    3    0    0 -0.13378603020E+03 -0.20038918856E+03  0.36190555454E+03  0.43477598734E+03  0.00000000000E+00 0. -1.
         22    1    1    2    0    0  0.22766243116E+03  0.33737832407E+03  0.13677019483E+04  0.14269768518E+04  0.00000000000E+00 0. -1.
<mgrwt>
<rscale>  0 0.85496888E+03</rscale>
<asrwt>0</asrwt>
<pdfrwt beam="1">  1        2 0.34254574E+00 0.85496888E+03</pdfrwt>
<pdfrwt beam="2">  1       -2 0.12626859E-01 0.85496888E+03</pdfrwt>
<totfact> 0.23812853E+02</totfact>
</mgrwt>
</event>
<event>
 6    1  0.5196787E-004  0.3960979E+04  0.7818608E-02  0.8012465E-01
         -2   -1    0    0    0  501 -0.00000000000E+00  0.00000000000E+00  0.24944688421E+04  0.24944688421E+04  0.00000000000E+00 0. -1.
          2   -1    0    0  501    0  0.00000000000E+00 -0.00000000000E+00 -0.15724144653E+04  0.15724144653E+04  0.00000000000E+00 0.  1.
         23    2    1    2    0    0 -0.16334985111E+04  0.11107606998E+04  0.59184954492E+03  0.20640997572E+04  0.90084437635E+02 0.  0.
         13    1    3    3    0    0 -0.92361082674E+03  0.57562994877E+03  0.31387266299E+03  0.11326618409E+04  0.00000000000E+00 0.  1.
        -13    1    3    3    0    0 -0.70988768435E+03  0.53513075104E+03  0.27797688193E+03  0.93143791634E+03  0.00000000000E+00 0. -1.
         22    1    1    2    0    0  0.16334985111E+04 -0.11107606998E+04  0.33020483188E+03  0.20027835502E+04  0.00000000000E+00 0.  1.
<mgrwt>
<rscale>  0 0.39609791E+04</rscale>
<asrwt>0</asrwt>
<pdfrwt beam="1">  1        2 0.24190992E+00 0.39609791E+04</pdfrwt>
<pdfrwt beam="2">  1       -2 0.38376444E+00 0.39609791E+04</pdfrwt>
<totfact> 0.86533263E-02</totfact>
</mgrwt>
</event>
<event>
 6    1  0.5196787E-004  0.1277371E+04  0.7818608E-02  0.9047705E-01
          2   -1    0    0  501    0  0.00000000000E+00  0.00000000000E+00  0.22123363376E+04  0.22123363376E+04  0.00000000000E+00 0.  1.
         -2   -1    0    0    0  501 -0.00000000000E+00 -0.00000000000E+00 -0.18438394946E+03  0.18438394946E+03  0.00000000000E+00 0. -1.
         23    2    1    2    0    0  0.25618594195E+03 -0.29046827596E+03  0.19646026219E+04  0.20042712470E+04  0.86236380568E+02 0.  0.
         13    1    3    3    0    0  0.71217229259E+02 -0.14090238057E+03  0.71387994311E+03  0.73112922782E+03  0.00000000000E+00 0. -1.
        -13    1    3    3    0    0  0.18496871269E+03 -0.14956589539E+03  0.12507226788E+04  0.12731420192E+04  0.00000000000E+00 0.  1.
         22    1    1    2    0    0 -0.25618594195E+03  0.29046827596E+03  0.63349766277E+02  0.39244904011E+03  0.00000000000E+00 0. -1.
<mgrwt>
<rscale>  0 0.12773712E+04</rscale>
<asrwt>0</asrwt>
<pdfrwt beam="1">  1        2 0.34035942E+00 0.12773712E+04</pdfrwt>
<pdfrwt beam="2">  1       -2 0.28366763E-01 0.12773712E+04</pdfrwt>
<totfact> 0.56905498E+01</totfact>
</mgrwt>
</event>
<event>
 6    1  0.5196787E-004  0.1898200E+04  0.7818608E-02  0.8655753E-01
         -2   -1    0    0    0  501 -0.00000000000E+00  0.00000000000E+00  0.35236162201E+03  0.35236162201E+03  0.00000000000E+00 0. -1.
          2   -1    0    0  501    0  0.00000000000E+00 -0.00000000000E+00 -0.25564377135E+04  0.25564377135E+04  0.00000000000E+00 0.  1.
         23    2    1    2    0    0  0.17748765125E+03 -0.91140801612E+03 -0.13886486716E+04  0.16730451871E+04  0.92566877427E+02 0.  0.
         13    1    3    3    0    0  0.43149818191E+02 -0.45653871074E+03 -0.70262763413E+03  0.83903223624E+03  0.00000000000E+00 0.  1.
        -13    1    3    3    0    0  0.13433783305E+03 -0.45486930539E+03 -0.68602103745E+03  0.83401295085E+03  0.00000000000E+00 0. -1.
         22    1    1    2    0    0 -0.17748765125E+03  0.91140801612E+03 -0.81542741997E+03  0.12357541485E+04  0.00000000000E+00 0.  1.
<mgrwt>
<rscale>  0 0.18981997E+04</rscale>
<asrwt>0</asrwt>
<pdfrwt beam="1">  1        2 0.39329811E+00 0.18981997E+04</pdfrwt>
<pdfrwt beam="2">  1       -2 0.54209480E-01 0.18981997E+04</pdfrwt>
<totfact> 0.96959616E+00</totfact>
</mgrwt>
</event>
<event>
 6    1  0.5196787E-004  0.2033667E+04  0.7818608E-02  0.8591040E-01
          2   -1    0    0  501    0  0.00000000000E+00  0.00000000000E+00  0.11813738896E+04  0.11813738896E+04  0.00000000000E+00 0.  1.
         -2   -1    0    0    0  501 -0.00000000000E+00 -0.00000000000E+00 -0.87521030354E+03  0.87521030354E+03  0.00000000000E+00 0. -1.
         23    2    1    2    0    0 -0.49650849182E+03 -0.57896974268E+03  0.83015964434E+03  0.11312202029E+04  0.93634752949E+02 0.  0.
         11    1    3    3    0    0 -0.33076112283E+03 -0.44051175819E+03  0.56276211760E+03  0.78749903523E+03  0.00000000000E+00 0.  1.
        -11    1    3    3    0    0 -0.16574736899E+03 -0.13845798449E+03  0.26739752674E+03  0.34372116767E+03  0.00000000000E+00 0. -1.
         22    1    1    2    0    0  0.49650849182E+03  0.57896974268E+03 -0.52399605826E+03  0.92536399026E+03  0.00000000000E+00 0. -1.
<mgrwt>
<rscale>  0 0.20336672E+04</rscale>
<asrwt>0</asrwt>
<pdfrwt beam="1">  1        2 0.18174983E+00 0.20336672E+04</pdfrwt>
<pdfrwt beam="2">  1       -2 0.13464774E+00 0.20336672E+04</pdfrwt>
<totfact> 0.71524040E+00</totfact>
</mgrwt>
</event>
<event>
 6    1  0.5196787E-004  0.3183196E+04  0.7818608E-02  0.8193269E-01
          2   -1    0    0  501    0  0.00000000000E+00  0.00000000000E+00  0.25060177216E+04  0.25060177216E+04  0.00000000000E+00 0.  1.
         -2   -1    0    0    0  501 -0.00000000000E+00 -0.00000000000E+00 -0.10108404524E+04  0.10108404524E+04  0.00000000000E+00 0. -1.
         23    2    1    2    0    0  0.19100582559E+03 -0.50333673674E+03 -0.90491667282E+03  0.10571260695E+04  0.93862911064E+02 0.  0.
         11    1    3    3    0    0 -0.76549294675E+01 -0.32598352936E+02 -0.36358203901E+02  0.49428428563E+02  0.00000000000E+00 0.  1.
        -11    1    3    3    0    0  0.19866075506E+03 -0.47073838380E+03 -0.86855846891E+03  0.10076976409E+04  0.00000000000E+00 0. -1.
         22    1    1    2    0    0 -0.19100582559E+03  0.50333673674E+03  0.24000939420E+04  0.24597321046E+04  0.00000000000E+00 0.  1.
<mgrwt>
<rscale>  0 0.31831959E+04</rscale>
<asrwt>0</asrwt>
<pdfrwt beam="1">  1        2 0.38554118E+00 0.31831959E+04</pdfrwt>
<pdfrwt beam="2">  1       -2 0.15551392E+00 0.31831959E+04</pdfrwt>
<totfact> 0.79212500E-01</totfact>
</mgrwt>
</event>
<event>
 6    1  0.5196787E-004  0.3199116E+04  0.7818608E-02  0.8189051E-01
          2   -1    0    0  501    0  0.00000000000E+00  0.00000000000E+00  0.27702991955E+04  0.27702991955E+04  0.00000000000E+00 0.  1.
         -2   -1    0    0    0  501 -0.00000000000E+00 -0.00000000000E+00 -0.92357723542E+03  0.92357723542E+03  0.00000000000E+00 0. -1.
         23    2    1    2    0    0 -0.89901618959E+03 -0.45993521612E+03  0.23544444853E+04  0.25635876736E+04  0.93821180013E+02 0.  0.
         13    1    3    3    0    0 -0.36142666730E+02 -0.27154003713E+01  0.61932053737E+02  0.71758240207E+02  0.00000000000E+00 0.  1.
        -13    1    3    3    0    0 -0.86287352286E+03 -0.45721981575E+03  0.22925124316E+04  0.24918294334E+04  0.00000000000E+00 0. -1.
         22    1    1    2    0    0  0.89901618959E+03  0.45993521612E+03 -0.50772252525E+03  0.11302887573E+04  0.00000000000E+00 0. -1.
<mgrwt>
<rscale>  0 0.31991157E+04</rscale>
<asrwt>0</asrwt>
<pdfrwt beam="1">  1        2 0.42619987E+00 0.31991157E+04</pdfrwt>
<pdfrwt beam="2">  1       -2 0.14208881E+00 0.31991157E+04</pdfrwt>
<totfact> 0.70098926E-01</totfact>
</mgrwt>
</event>
<event>
 6    1  0.5196787E-004  0.1747800E+04  0.7818608E-02  0.8734562E-01
         -2   -1    0    0    0  501 -0.00000000000E+00  0.00000000000E+00  0.59970174281E+03  0.59970174281E+03  0.00000000000E+00 0. -1.
          2   -1    0    0  501    0  0.00000000000E+00 -0.00000000000E+00 -0.12734680116E+04  0.12734680116E+04  0.00000000000E+00 0.  1.
         23    2    1    2    0    0 -0.37697365498E+03  0.56217144206E+03 -0.92619055954E+03  0.11507682806E+04  0.91064901733E+02 0.  0.
         11    1    3    3    0    0 -0.16819071854E+03  0.22643003250E+03 -0.45900230351E+03  0.53874093222E+03  0.00000000000E+00 0. -1.
        -11    1    3    3    0    0 -0.20878293644E+03  0.33574140956E+03 -0.46718825603E+03  0.61202734843E+03  0.00000000000E+00 0.  1.
         22    1    1    2    0    0  0.37697365498E+03 -0.56217144206E+03  0.25242429070E+03  0.72240147381E+03  0.00000000000E+00 0. -1.
<mgrwt>
<rscale>  0 0.17477997E+04</rscale>
<asrwt>0</asrwt>
<pdfrwt beam="1">  1        2 0.19591816E+00 0.17477997E+04</pdfrwt>
<pdfrwt beam="2">  1       -2 0.92261807E-01 0.17477997E+04</pdfrwt>
<totfact> 0.16208342E+01</totfact>
</mgrwt>
</event>
<event>
 6    1  0.5196787E-004  0.1139230E+04  0.7818608E-02  0.9167777E-01
          2   -1    0    0  501    0  0.00000000000E+00  0.00000000000E+00  0.13529423553E+04  0.13529423553E+04  0.00000000000E+00 0.  1.
         -2   -1    0    0    0  501 -0.00000000000E+00 -0.00000000000E+00 -0.23981906857E+03  0.23981906857E+03  0.00000000000E+00 0. -1.
         23    2    1    2    0    0 -0.44635594660E+03  0.11186748775E+03  0.10213952574E+04  0.11235471900E+04  0.85802392003E+02 0.  0.
         11    1    3    3    0    0 -0.21937761630E+03  0.21166093375E+02  0.41850292446E+03  0.47298968257E+03  0.00000000000E+00 0. -1.
        -11    1    3    3    0    0 -0.22697833030E+03  0.90701394376E+02  0.60289233297E+03  0.65055750747E+03  0.00000000000E+00 0.  1.
         22    1    1    2    0    0  0.44635594660E+03 -0.11186748775E+03  0.91728029322E+02  0.46921423385E+03  0.00000000000E+00 0. -1.
<mgrwt>
<rscale>  0 0.11392302E+04</rscale>
<asrwt>0</asrwt>
<pdfrwt beam="1">  1        2 0.20814497E+00 0.11392302E+04</pdfrwt>
<pdfrwt beam="2">  1       -2 0.36895242E-01 0.11392302E+04</pdfrwt>
<totfact> 0.10550778E+02</totfact>
</mgrwt>
</event>
<event>
 6    1  0.5196787E-004  0.1592977E+04  0.7818608E-02  0.8824874E-01
          2   -1    0    0  501    0  0.00000000000E+00  0.00000000000E+00  0.11291604255E+04  0.11291604255E+04  0.00000000000E+00 0.  1.
         -2   -1    0    0    0  501 -0.00000000000E+00 -0.00000000000E+00 -0.56182809003E+03  0.56182809003E+03  0.00000000000E+00 0. -1.
         23    2    1    2    0    0 -0.46859538462E+03 -0.40548235326E+03  0.81133686821E+03  0.10250036919E+04  0.91473938041E+02 0.  0.
         11    1    3    3    0    0 -0.34039415544E+03 -0.28662851731E+03  0.51200469505E+03  0.67836044677E+03  0.00000000000E+00 0.  1.
        -11    1    3    3    0    0 -0.12820122917E+03 -0.11885383595E+03  0.29933217316E+03  0.34664324510E+03  0.00000000000E+00 0. -1.
         22    1    1    2    0    0  0.46859538462E+03  0.40548235326E+03 -0.24400453277E+03  0.66598482363E+03  0.00000000000E+00 0. -1.
<mgrwt>
<rscale>  0 0.15929771E+04</rscale>
<asrwt>0</asrwt>
<pdfrwt beam="1">  1        2 0.17371699E+00 0.15929771E+04</pdfrwt>
<pdfrwt beam="2">  1       -2 0.86435091E-01 0.15929771E+04</pdfrwt>
<totfact> 0.23264795E+01</totfact>
</mgrwt>
</event>
<event>
 6    1  0.5196787E-004  0.4217254E+04  0.7818608E-02  0.7962098E-01
         -2   -1    0    0    0  501 -0.00000000000E+00  0.00000000000E+00  0.12765300551E+04  0.12765300551E+04  0.00000000000E+00 0. -1.
          2   -1    0    0  501    0  0.00000000000E+00 -0.00000000000E+00 -0.34831202575E+04  0.34831202575E+04  0.00000000000E+00 0.  1.
         23    2    1    2    0    0  0.11871728720E+04 -0.12917839003E+04 -0.24219381289E+04  0.29920361572E+04  0.91711464163E+02 0.  0.
         11    1    3    3    0    0  0.65047153839E+03 -0.71443508773E+03 -0.12561237051E+04  0.15847326207E+04  0.00000000000E+00 0. -1.
        -11    1    3    3    0    0  0.53670133360E+03 -0.57734881256E+03 -0.11658144239E+04  0.14073035365E+04  0.00000000000E+00 0.  1.
         22    1    1    2    0    0 -0.11871728720E+04  0.12917839003E+04  0.21534792654E+03  0.17676141554E+04  0.00000000000E+00 0. -1.
<mgrwt>
<rscale>  0 0.42172539E+04</rscale>
<asrwt>0</asrwt>
<pdfrwt beam="1">  1        2 0.53586466E+00 0.42172539E+04</pdfrwt>
<pdfrwt beam="2">  1       -2 0.19638924E+00 0.42172539E+04</pdfrwt>
<totfact> 0.90821223E-02</totfact>
</mgrwt>
</event>
<event>
 6    1  0.5196787E-004  0.4611367E+03  0.7818608E-02  0.1024452E+00
          4   -1    0    0  501    0  0.00000000000E+00  0.00000000000E+00  0.11772433412E+03  0.11772433412E+03  0.00000000000E+00 0.  1.
         -4   -1    0    0    0  501 -0.00000000000E+00 -0.00000000000E+00 -0.45157828357E+03  0.45157828357E+03  0.00000000000E+00 0. -1.
         23    2    1    2    0    0 -0.77846530997E+02  0.60928108446E+02  0.72399170696E+02  0.15119507840E+03  0.88577621488E+02 0.  0.
         13    1    3    3    0    0 -0.65228684426E+02 -0.56131437117E+00  0.56849107252E+02  0.86526974645E+02  0.00000000000E+00 0. -1.
        -13    1    3    3    0    0 -0.12617846571E+02  0.61489422818E+02  0.15550063444E+02  0.64668103758E+02  0.00000000000E+00 0.  1.
         22    1    1    2    0    0  0.77846530997E+02 -0.60928108446E+02 -0.40625312014E+03  0.41810753929E+03  0.00000000000E+00 0. -1.
<mgrwt>
<rscale>  0 0.46113665E+03</rscale>
<asrwt>0</asrwt>
<pdfrwt beam="1">  1        4 0.18111436E-01 0.46113665E+03</pdfrwt>
<pdfrwt beam="2">  1       -4 0.69473583E-01 0.46113665E+03</pdfrwt>
<totfact> 0.10201571E+02</totfact>
</mgrwt>
</event>
<event>
 6    1  0.5196787E-004  0.2770368E+04  0.7818608E-02  0.8312527E-01
         -2   -1    0    0    0  501 -0.00000000000E+00  0.00000000000E+00  0.54601437688E+03  0.54601437688E+03  0.00000000000E+00 0. -1.
          2   -1    0    0  501    0  0.00000000000E+00 -0.00000000000E+00 -0.35140740587E+04  0.35140740587E+04  0.00000000000E+00 0.  1.
         23    2    1    2    0    0  0.38652427198E+02 -0.12944866650E+04 -0.77119159709E+03  0.15099082228E+04  0.88862959915E+02 0.  0.
         13    1    3    3    0    0 -0.21225274256E+00 -0.32054447484E+03 -0.23486643747E+03  0.39738023208E+03  0.00000000000E+00 0.  1.
        -13    1    3    3    0    0  0.38864679940E+02 -0.97394219020E+03 -0.53632515963E+03  0.11125279907E+04  0.00000000000E+00 0. -1.
         22    1    1    2    0    0 -0.38652427198E+02  0.12944866650E+04 -0.21968680847E+04  0.25501802128E+04  0.00000000000E+00 0. -1.
<mgrwt>
<rscale>  0 0.27703682E+04</rscale>
<asrwt>0</asrwt>
<pdfrwt beam="1">  1        2 0.54062675E+00 0.27703682E+04</pdfrwt>
<pdfrwt beam="2">  1       -2 0.84002216E-01 0.27703682E+04</pdfrwt>
<totfact> 0.85794710E-01</totfact>
</mgrwt>
</event>
<event>
 6    1  0.5196787E-004  0.1121158E+04  0.7818608E-02  0.9184812E-01
         -2   -1    0    0    0  501 -0.00000000000E+00  0.00000000000E+00  0.34320905793E+03  0.34320905793E+03  0.00000000000E+00 0. -1.
          2   -1    0    0  501    0  0.00000000000E+00 -0.00000000000E+00 -0.91561914151E+03  0.91561914151E+03  0.00000000000E+00 0.  1.
         23    2    1    2    0    0  0.44572527308E+03 -0.21988922399E+03 -0.59339944305E+01  0.50522522076E+03  0.90526358121E+02 0.  0.
         11    1    3    3    0    0  0.24337527208E+03 -0.15572486348E+03  0.27861741979E+02  0.29027234252E+03  0.00000000000E+00 0.  1.
        -11    1    3    3    0    0  0.20235000100E+03 -0.64164360504E+02 -0.33795736410E+02  0.21495287824E+03  0.00000000000E+00 0. -1.
         22    1    1    2    0    0 -0.44572527308E+03  0.21988922399E+03 -0.56647608916E+03  0.75360297868E+03  0.00000000000E+00 0.  1.
<mgrwt>
<rscale>  0 0.11211579E+04</rscale>
<asrwt>0</asrwt>
<pdfrwt beam="1">  1        2 0.14086448E+00 0.11211579E+04</pdfrwt>
<pdfrwt beam="2">  1       -2 0.52801395E-01 0.11211579E+04</pdfrwt>
<totfact> 0.96014837E+01</totfact>
</mgrwt>
</event>
<event>
 6    1  0.5196787E-004  0.2756015E+04  0.7818608E-02  0.8317055E-01
         -2   -1    0    0    0  501 -0.00000000000E+00  0.00000000000E+00  0.84187731462E+03  0.84187731462E+03  0.00000000000E+00 0. -1.
          2   -1    0    0  501    0  0.00000000000E+00 -0.00000000000E+00 -0.22555605624E+04  0.22555605624E+04  0.00000000000E+00 0.  1.
         23    2    1    2    0    0  0.12762967570E+04 -0.51336071429E+03 -0.65463881016E+03  0.15262532624E+04  0.91784609405E+02 0.  0.
         11    1    3    3    0    0  0.39617433311E+03 -0.12969660007E+03 -0.23389447560E+03  0.47799784100E+03  0.00000000000E+00 0.  1.
        -11    1    3    3    0    0  0.88012242385E+03 -0.38366411421E+03 -0.42074433456E+03  0.10482554214E+04  0.00000000000E+00 0. -1.
         22    1    1    2    0    0 -0.12762967570E+04  0.51336071429E+03 -0.75904443758E+03  0.15711846146E+04  0.00000000000E+00 0. -1.
<mgrwt>
<rscale>  0 0.27560154E+04</rscale>
<asrwt>0</asrwt>
<pdfrwt beam="1">  1        2 0.34700931E+00 0.27560154E+04</pdfrwt>
<pdfrwt beam="2">  1       -2 0.12951959E+00 0.27560154E+04</pdfrwt>
<totfact> 0.18391029E+00</totfact>
</mgrwt>
</event>
<event>
 6    1  0.5196787E-004  0.3119361E+04  0.7818608E-02  0.8210445E-01
          2   -1    0    0  501    0  0.00000000000E+00  0.00000000000E+00  0.21121093615E+04  0.21121093615E+04  0.00000000000E+00 0.  1.
         -2   -1    0    0    0  501 -0.00000000000E+00 -0.00000000000E+00 -0.11517408777E+04  0.11517408777E+04  0.00000000000E+00 0. -1.
         23    2    1    2    0    0  0.35992547038E+03 -0.12259883550E+04  0.14140625725E+04  0.19079622952E+04  0.90296014403E+02 0.  0.
         13    1    3    3    0    0  0.55120583310E+02 -0.32541940184E+03  0.35354991463E+03  0.48366683568E+03  0.00000000000E+00 0.  1.
        -13    1    3    3    0    0  0.30480488707E+03 -0.90056895312E+03  0.10605126578E+04  0.14242954595E+04  0.00000000000E+00 0. -1.
         22    1    1    2    0    0 -0.35992547038E+03  0.12259883550E+04 -0.45369408871E+03  0.13558879441E+04  0.00000000000E+00 0.  1.
<mgrwt>
<rscale>  0 0.31193606E+04</rscale>
<asrwt>0</asrwt>
<pdfrwt beam="1">  1        2 0.32493990E+00 0.31193606E+04</pdfrwt>
<pdfrwt beam="2">  1       -2 0.17719091E+00 0.31193606E+04</pdfrwt>
<totfact> 0.93007156E-01</totfact>
</mgrwt>
</event>
<event>
 6    1  0.5196787E-004  0.7925274E+03  0.7818608E-02  0.9570897E-01
         -2   -1    0    0    0  501 -0.00000000000E+00  0.00000000000E+00  0.14556080156E+03  0.14556080156E+03  0.00000000000E+00 0. -1.
          2   -1    0    0  501    0  0.00000000000E+00 -0.00000000000E+00 -0.10787581578E+04  0.10787581578E+04  0.00000000000E+00 0.  1.
         23    2    1    2    0    0 -0.37789177850E+03  0.13595997984E+02 -0.31902947446E+03  0.50307750574E+03  0.91214712574E+02 0.  0.
         13    1    3    3    0    0 -0.21810950893E+03  0.12113277738E+02 -0.24095279483E+03  0.32523336041E+03  0.00000000000E+00 0.  1.
        -13    1    3    3    0    0 -0.15978226957E+03  0.14827202461E+01 -0.78076679626E+02  0.17784414534E+03  0.00000000000E+00 0. -1.
         22    1    1    2    0    0  0.37789177850E+03 -0.13595997984E+02 -0.61416788178E+03  0.72124145362E+03  0.00000000000E+00 0.  1.
<mgrwt>
<rscale>  0 0.79252736E+03</rscale>
<asrwt>0</asrwt>
<pdfrwt beam="1">  1        2 0.16596279E+00 0.79252736E+03</pdfrwt>
<pdfrwt beam="2">  1       -2 0.22393970E-01 0.79252736E+03</pdfrwt>
<totfact> 0.39442215E+02</totfact>
</mgrwt>
</event>
<event>
 6    1  0.5196787E-004  0.2964330E+04  0.7818608E-02  0.8253991E-01
          2   -1    0    0  501    0  0.00000000000E+00  0.00000000000E+00  0.24393382113E+04  0.24393382113E+04  0.00000000000E+00 0.  1.
         -2   -1    0    0    0  501 -0.00000000000E+00 -0.00000000000E+00 -0.90057733137E+03  0.90057733137E+03  0.00000000000E+00 0. -1.
         23    2    1    2    0    0 -0.51726930664E+02 -0.11050769702E+04  0.18790864688E+04  0.21824647697E+04  0.91190615859E+02 0.  0.
         11    1    3    3    0    0  0.18393295373E+02 -0.51944922115E+03  0.84916247846E+03  0.99561173230E+03  0.00000000000E+00 0. -1.
        -11    1    3    3    0    0 -0.70120226037E+02 -0.58562774903E+03  0.10299239903E+04  0.11868530374E+04  0.00000000000E+00 0.  1.
         22    1    1    2    0    0  0.51726930664E+02  0.11050769702E+04 -0.34032558888E+03  0.11574507730E+04  0.00000000000E+00 0. -1.
<mgrwt>
<rscale>  0 0.29643297E+04</rscale>
<asrwt>0</asrwt>
<pdfrwt beam="1">  1        2 0.37528280E+00 0.29643297E+04</pdfrwt>
<pdfrwt beam="2">  1       -2 0.13855036E+00 0.29643297E+04</pdfrwt>
<totfact> 0.11953347E+00</totfact>
</mgrwt>
</event>
<event>
 6    1  0.5196787E-004  0.2850573E+04  0.7818608E-02  0.8287737E-01
         -2   -1    0    0    0  501 -0.00000000000E+00  0.00000000000E+00  0.75125771541E+03  0.75125771541E+03  0.00000000000E+00 0. -1.
          2   -1    0    0  501    0  0.00000000000E+00 -0.00000000000E+00 -0.27040538333E+04  0.27040538333E+04  0.00000000000E+00 0.  1.
         23    2    1    2    0    0  0.20551094333E+03 -0.63680908740E+03  0.54596404674E+03  0.86850600480E+03  0.92007491132E+02 0.  0.
         13    1    3    3    0    0  0.52125022610E+02 -0.27718956036E+03  0.26545905570E+03  0.38732361225E+03  0.00000000000E+00 0.  1.
        -13    1    3    3    0    0  0.15338592072E+03 -0.35961952704E+03  0.28050499104E+03  0.48118239255E+03  0.00000000000E+00 0. -1.
         22    1    1    2    0    0 -0.20551094333E+03  0.63680908740E+03 -0.24987601646E+04  0.25868055439E+04  0.00000000000E+00 0.  1.
<mgrwt>
<rscale>  0 0.28505728E+04</rscale>
<asrwt>0</asrwt>
<pdfrwt beam="1">  1        2 0.41600829E+00 0.28505728E+04</pdfrwt>
<pdfrwt beam="2">  1       -2 0.11557811E+00 0.28505728E+04</pdfrwt>
<totfact> 0.13324411E+00</totfact>
</mgrwt>
</event>
<event>
 6    1  0.5196787E-004  0.9716057E+03  0.7818608E-02  0.9340247E-01
          2   -1    0    0  501    0  0.00000000000E+00  0.00000000000E+00  0.13039854703E+04  0.13039854703E+04  0.00000000000E+00 0.  1.
         -2   -1    0    0    0  501 -0.00000000000E+00 -0.00000000000E+00 -0.18098697507E+03  0.18098697507E+03  0.00000000000E+00 0. -1.
         23    2    1    2    0    0 -0.20230401922E+03 -0.37745746300E+03  0.90301243837E+03  0.10035215987E+04  0.90681214268E+02 0.  0.
         11    1    3    3    0    0 -0.20846807121E+03 -0.33304869525E+03  0.81138144069E+03  0.90150996246E+03  0.00000000000E+00 0.  1.
        -11    1    3    3    0    0  0.61640519950E+01 -0.44408767748E+02  0.91630997685E+02  0.10201163623E+03  0.00000000000E+00 0. -1.
         22    1    1    2    0    0  0.20230401922E+03  0.37745746300E+03  0.21998605688E+03  0.48145084670E+03  0.00000000000E+00 0. -1.
<mgrwt>
<rscale>  0 0.97160565E+03</rscale>
<asrwt>0</asrwt>
<pdfrwt beam="1">  1        2 0.20061314E+00 0.97160565E+03</pdfrwt>
<pdfrwt beam="2">  1       -2 0.27844151E-01 0.97160565E+03</pdfrwt>
<totfact> 0.19333761E+02</totfact>
</mgrwt>
</event>
<event>
 6    1  0.5196787E-004  0.2096632E+04  0.7818608E-02  0.8562729E-01
          2   -1    0    0  501    0  0.00000000000E+00  0.00000000000E+00  0.15184592918E+04  0.15184592918E+04  0.00000000000E+00 0.  1.
         -2   -1    0    0    0  501 -0.00000000000E+00 -0.00000000000E+00 -0.72373758132E+03  0.72373758132E+03  0.00000000000E+00 0. -1.
         23    2    1    2    0    0  0.19678394706E+03  0.12189358268E+03  0.14893147622E+04  0.15100483398E+04  0.92766160107E+02 0.  0.
         13    1    3    3    0    0  0.54470469654E+02  0.32901920574E+02  0.71092656592E+03  0.71376897563E+03  0.00000000000E+00 0. -1.
        -13    1    3    3    0    0  0.14231347740E+03  0.88991662104E+02  0.77838819628E+03  0.79627936422E+03  0.00000000000E+00 0.  1.
         22    1    1    2    0    0 -0.19678394706E+03 -0.12189358268E+03 -0.69459305170E+03  0.73214853329E+03  0.00000000000E+00 0. -1.
<mgrwt>
<rscale>  0 0.20966316E+04</rscale>
<asrwt>0</asrwt>
<pdfrwt beam="1">  1        2 0.23360912E+00 0.20966316E+04</pdfrwt>
<pdfrwt beam="2">  1       -2 0.11134424E+00 0.20966316E+04</pdfrwt>
<totfact> 0.72886251E+00</totfact>
</mgrwt>
</event>
<event>
 6    1  0.5196787E-004  0.4369042E+04  0.7818608E-02  0.7933974E-01
          2   -1    0    0  501    0  0.00000000000E+00  0.00000000000E+00  0.35270074310E+04  0.35270074310E+04  0.00000000000E+00 0.  1.
         -2   -1    0    0    0  501 -0.00000000000E+00 -0.00000000000E+00 -0.13530254970E+04  0.13530254970E+04  0.00000000000E+00 0. -1.
         23    2    1    2    0    0  0.14175826716E+04  0.14256289827E+04  0.20391024197E+04  0.28650512630E+04  0.92851678628E+02 0.  0.
         11    1    3    3    0    0  0.28230825488E+03  0.23803994172E+03  0.35220549443E+03  0.51030351256E+03  0.00000000000E+00 0.  1.
        -11    1    3    3    0    0  0.11352744168E+04  0.11875890409E+04  0.16868969253E+04  0.23547477504E+04  0.00000000000E+00 0. -1.
         22    1    1    2    0    0 -0.14175826716E+04 -0.14256289827E+04  0.13487951422E+03  0.20149816650E+04  0.00000000000E+00 0. -1.
<mgrwt>
<rscale>  0 0.43690415E+04</rscale>
<asrwt>0</asrwt>
<pdfrwt beam="1">  1        2 0.54261652E+00 0.43690415E+04</pdfrwt>
<pdfrwt beam="2">  1       -2 0.20815777E+00 0.43690415E+04</pdfrwt>
<totfact> 0.69990431E-02</totfact>
</mgrwt>
</event>
<event>
 6    1  0.5196787E-004  0.1021343E+04  0.7818608E-02  0.9285441E-01
          2   -1    0    0  501    0  0.00000000000E+00  0.00000000000E+00  0.13957032509E+04  0.13957032509E+04  0.00000000000E+00 0.  1.
         -2   -1    0    0    0  501 -0.00000000000E+00 -0.00000000000E+00 -0.18684865624E+03  0.18684865624E+03  0.00000000000E+00 0. -1.
         23    2    1    2    0    0 -0.34663235114E+03 -0.36109419105E+03  0.73093361859E+03  0.89048871565E+03  0.90350408170E+02 0.  0.
         13    1    3    3    0    0 -0.10519706035E+02 -0.26257277282E+02  0.16118760079E+02  0.32556462519E+02  0.00000000000E+00 0. -1.
        -13    1    3    3    0    0 -0.33611264510E+03 -0.33483691376E+03  0.71481485851E+03  0.85793225313E+03  0.00000000000E+00 0.  1.
         22    1    1    2    0    0  0.34663235114E+03  0.36109419105E+03  0.47792097612E+03  0.69206319154E+03  0.00000000000E+00 0.  1.
<mgrwt>
<rscale>  0 0.10213428E+04</rscale>
<asrwt>0</asrwt>
<pdfrwt beam="1">  1        2 0.21472357E+00 0.10213428E+04</pdfrwt>
<pdfrwt beam="2">  1       -2 0.28745948E-01 0.10213428E+04</pdfrwt>
<totfact> 0.16095195E+02</totfact>
</mgrwt>
</event>
<event>
 6    1  0.5196787E-004  0.2488361E+04  0.7818608E-02  0.8407144E-01
         -2   -1    0    0    0  501 -0.00000000000E+00  0.00000000000E+00  0.77216177550E+03  0.77216177550E+03  0.00000000000E+00 0. -1.
          2   -1    0    0  501    0  0.00000000000E+00 -0.00000000000E+00 -0.20047421071E+04  0.20047421071E+04  0.00000000000E+00 0.  1.
         23    2    1    2    0    0 -0.42079756300E+03  0.59534205610E+03  0.50569629577E+03  0.89193481494E+03  0.91193298891E+02 0.  0.
         13    1    3    3    0    0 -0.32241121778E+03  0.50025790556E+03  0.37987729875E+03  0.70605504568E+03  0.00000000000E+00 0. -1.
        -13    1    3    3    0    0 -0.98386345214E+02  0.95084150535E+02  0.12581899701E+03  0.18587976925E+03  0.00000000000E+00 0.  1.
         22    1    1    2    0    0  0.42079756300E+03 -0.59534205610E+03 -0.17382766274E+04  0.18849690677E+04  0.00000000000E+00 0.  1.
<mgrwt>
<rscale>  0 0.24883611E+04</rscale>
<asrwt>0</asrwt>
<pdfrwt beam="1">  1        2 0.30842186E+00 0.24883611E+04</pdfrwt>
<pdfrwt beam="2">  1       -2 0.11879412E+00 0.24883611E+04</pdfrwt>
<totfact> 0.32279906E+00</totfact>
</mgrwt>
</event>
<event>
 6    1  0.5196787E-004  0.6699819E+04  0.7818608E-02  0.7609211E-01
          2   -1    0    0  501    0  0.00000000000E+00  0.00000000000E+00  0.44195877385E+04  0.44195877385E+04  0.00000000000E+00 0.  1.
         -2   -1    0    0    0  501 -0.00000000000E+00 -0.00000000000E+00 -0.25391270155E+04  0.25391270155E+04  0.00000000000E+00 0. -1.
         23    2    1    2    0    0 -0.25268274526E+04  0.19976531165E+04 -0.12853169817E+02  0.32223913680E+04  0.90365785867E+02 0.  0.
         13    1    3    3    0    0 -0.12890130170E+04  0.10716221930E+04 -0.25079627714E+02  0.16764717922E+04  0.00000000000E+00 0. -1.
        -13    1    3    3    0    0 -0.12378144356E+04  0.92603092352E+03  0.12226457896E+02  0.15459195757E+04  0.00000000000E+00 0.  1.
         22    1    1    2    0    0  0.25268274526E+04 -0.19976531165E+04  0.18933138928E+04  0.37363233861E+04  0.00000000000E+00 0.  1.
<mgrwt>
<rscale>  0 0.66998193E+04</rscale>
<asrwt>0</asrwt>
<pdfrwt beam="1">  1        2 0.67993658E+00 0.66998193E+04</pdfrwt>
<pdfrwt beam="2">  1       -2 0.39063493E+00 0.66998193E+04</pdfrwt>
<totfact> 0.79343797E-04</totfact>
</mgrwt>
</event>
<event>
 6    1  0.5196787E-004  0.1664393E+04  0.7818608E-02  0.8781937E-01
         -2   -1    0    0    0  501 -0.00000000000E+00  0.00000000000E+00  0.31057474009E+03  0.31057474009E+03  0.00000000000E+00 0. -1.
          2   -1    0    0  501    0  0.00000000000E+00 -0.00000000000E+00 -0.22299020547E+04  0.22299020547E+04  0.00000000000E+00 0.  1.
         23    2    1    2    0    0  0.82226622593E+03 -0.41309404396E+02 -0.11201991857E+04  0.13931172262E+04  0.90006539048E+02 0.  0.
         13    1    3    3    0    0  0.36362738727E+03 -0.37165307445E+02 -0.42922998332E+03  0.56377700861E+03  0.00000000000E+00 0.  1.
        -13    1    3    3    0    0  0.45863883866E+03 -0.41440969507E+01 -0.69096920242E+03  0.82934021762E+03  0.00000000000E+00 0. -1.
         22    1    1    2    0    0 -0.82226622593E+03  0.41309404396E+02 -0.79912812884E+03  0.11473595685E+04  0.00000000000E+00 0. -1.
<mgrwt>
<rscale>  0 0.16643933E+04</rscale>
<asrwt>0</asrwt>
<pdfrwt beam="1">  1        2 0.34306186E+00 0.16643933E+04</pdfrwt>
<pdfrwt beam="2">  1       -2 0.47780728E-01 0.16643933E+04</pdfrwt>
<totfact> 0.19685500E+01</totfact>
</mgrwt>
</event>
<event>
 6    1  0.5196787E-004  0.1777036E+04  0.7818608E-02  0.8718608E-01
         -2   -1    0    0    0  501 -0.00000000000E+00  0.00000000000E+00  0.36809997282E+03  0.36809997282E+03  0.00000000000E+00 0. -1.
          2   -1    0    0  501    0  0.00000000000E+00 -0.00000000000E+00 -0.21447004710E+04  0.21447004710E+04  0.00000000000E+00 0.  1.
         23    2    1    2    0    0 -0.29474804812E+03  0.78199041146E+03 -0.47389017634E+03  0.96507966857E+03  0.91768469350E+02 0.  0.
         11    1    3    3    0    0 -0.11085102260E+03  0.36602995782E+03 -0.26029008997E+03  0.46261950907E+03  0.00000000000E+00 0. -1.
        -11    1    3    3    0    0 -0.18389702552E+03  0.41596045364E+03 -0.21360008637E+03  0.50246015950E+03  0.00000000000E+00 0.  1.
         22    1    1    2    0    0  0.29474804812E+03 -0.78199041146E+03 -0.13027103218E+04  0.15477207752E+04  0.00000000000E+00 0.  1.
<mgrwt>
<rscale>  0 0.17770359E+04</rscale>
<asrwt>0</asrwt>
<pdfrwt beam="1">  1        2 0.32995391E+00 0.17770359E+04</pdfrwt>
<pdfrwt beam="2">  1       -2 0.56630767E-01 0.17770359E+04</pdfrwt>
<totfact> 0.15348366E+01</totfact>
</mgrwt>
</event>
<event>
 6    1  0.5196787E-004  0.4788249E+04  0.7818608E-02  0.7862029E-01
          2   -1    0    0  501    0  0.00000000000E+00  0.00000000000E+00  0.23826905024E+04  0.23826905024E+04  0.00000000000E+00 0.  1.
         -2   -1    0    0    0  501 -0.00000000000E+00 -0.00000000000E+00 -0.24056130653E+04  0.24056130653E+04  0.00000000000E+00 0. -1.
         23    2    1    2    0    0  0.16748558499E+04  0.14987624354E+04 -0.83405576321E+03  0.23988751790E+04  0.86730342614E+02 0.  0.
         11    1    3    3    0    0  0.14067182308E+04  0.12412701894E+04 -0.72719490980E+03  0.20120686621E+04  0.00000000000E+00 0.  1.
        -11    1    3    3    0    0  0.26813761912E+03  0.25749224598E+03 -0.10686085340E+03  0.38680651690E+03  0.00000000000E+00 0. -1.
         22    1    1    2    0    0 -0.16748558499E+04 -0.14987624354E+04  0.81113320038E+03  0.23894283887E+04  0.00000000000E+00 0.  1.
<mgrwt>
<rscale>  0 0.47882487E+04</rscale>
<asrwt>0</asrwt>
<pdfrwt beam="1">  1        2 0.36656777E+00 0.47882487E+04</pdfrwt>
<pdfrwt beam="2">  1       -2 0.37009432E+00 0.47882487E+04</pdfrwt>
<totfact> 0.34917456E-02</totfact>
</mgrwt>
</event>
<event>
 6    1  0.5196787E-004  0.2443248E+04  0.7818608E-02  0.8423487E-01
         -2   -1    0    0    0  501 -0.00000000000E+00  0.00000000000E+00  0.96533397894E+03  0.96533397894E+03  0.00000000000E+00 0. -1.
          2   -1    0    0  501    0  0.00000000000E+00 -0.00000000000E+00 -0.15459570241E+04  0.15459570241E+04  0.00000000000E+00 0.  1.
         23    2    1    2    0    0  0.95774591660E+03 -0.50696597525E+03  0.28619921698E+03  0.11236049524E+04  0.79286547090E+02 0.  0.
         11    1    3    3    0    0  0.69036940082E+03 -0.39296926013E+03  0.23552409564E+03  0.82855678660E+03  0.00000000000E+00 0.  1.
        -11    1    3    3    0    0  0.26737651578E+03 -0.11399671512E+03  0.50675121333E+02  0.29504816585E+03  0.00000000000E+00 0. -1.
         22    1    1    2    0    0 -0.95774591660E+03  0.50696597525E+03 -0.86682226211E+03  0.13876860506E+04  0.00000000000E+00 0.  1.
<mgrwt>
<rscale>  0 0.24432477E+04</rscale>
<asrwt>0</asrwt>
<pdfrwt beam="1">  1        2 0.23783954E+00 0.24432477E+04</pdfrwt>
<pdfrwt beam="2">  1       -2 0.14851292E+00 0.24432477E+04</pdfrwt>
<totfact> 0.32969937E+00</totfact>
</mgrwt>
</event>
<event>
 6    1  0.5196787E-004  0.3140897E+04  0.7818608E-02  0.8204603E-01
         -2   -1    0    0    0  501 -0.00000000000E+00  0.00000000000E+00  0.12131807498E+04  0.12131807498E+04  0.00000000000E+00 0. -1.
          2   -1    0    0  501    0  0.00000000000E+00 -0.00000000000E+00 -0.20329278727E+04  0.20329278727E+04  0.00000000000E+00 0.  1.
         23    2    1    2    0    0 -0.74116016757E+03  0.12351283369E+04 -0.10534636635E+04  0.17868335203E+04  0.90155068751E+02 0.  0.
         11    1    3    3    0    0 -0.49981490061E+03  0.75292292387E+03 -0.64190728890E+03  0.11084912412E+04  0.00000000000E+00 0.  1.
        -11    1    3    3    0    0 -0.24134526697E+03  0.48220541301E+03 -0.41155637461E+03  0.67834227917E+03  0.00000000000E+00 0. -1.
         22    1    1    2    0    0  0.74116016757E+03 -0.12351283369E+04  0.23371654062E+03  0.14592751022E+04  0.00000000000E+00 0. -1.
<mgrwt>
<rscale>  0 0.31408973E+04</rscale>
<asrwt>0</asrwt>
<pdfrwt beam="1">  1        2 0.31275813E+00 0.31408973E+04</pdfrwt>
<pdfrwt beam="2">  1       -2 0.18664319E+00 0.31408973E+04</pdfrwt>
<totfact> 0.88508629E-01</totfact>
</mgrwt>
</event>
<event>
 6    1  0.5196787E-004  0.2117386E+04  0.7818608E-02  0.8553623E-01
         -2   -1    0    0    0  501 -0.00000000000E+00  0.00000000000E+00  0.54839283162E+03  0.54839283162E+03  0.00000000000E+00 0. -1.
          2   -1    0    0  501    0  0.00000000000E+00 -0.00000000000E+00 -0.20438457699E+04  0.20438457699E+04  0.00000000000E+00 0.  1.
         23    2    1    2    0    0 -0.23913292354E+03  0.88910387565E+03 -0.11431473007E+03  0.93234914526E+03  0.92286588004E+02 0.  0.
         11    1    3    3    0    0 -0.15836163761E+03  0.72878505490E+03 -0.90811363363E+02  0.75130071758E+03  0.00000000000E+00 0.  1.
        -11    1    3    3    0    0 -0.80771285938E+02  0.16031882075E+03 -0.23503366709E+02  0.18104842768E+03  0.00000000000E+00 0. -1.
         22    1    1    2    0    0  0.23913292354E+03 -0.88910387565E+03 -0.13811382082E+04  0.16598894563E+04  0.00000000000E+00 0.  1.
<mgrwt>
<rscale>  0 0.21173855E+04</rscale>
<asrwt>0</asrwt>
<pdfrwt beam="1">  1        2 0.31443780E+00 0.21173855E+04</pdfrwt>
<pdfrwt beam="2">  1       -2 0.84368131E-01 0.21173855E+04</pdfrwt>
<totfact> 0.71223688E+00</totfact>
</mgrwt>
</event>
<event>
 6    1  0.5196787E-004  0.2916348E+04  0.7818608E-02  0.8268030E-01
          2   -1    0    0  501    0  0.00000000000E+00  0.00000000000E+00  0.18103894715E+04  0.18103894715E+04  0.00000000000E+00 0.  1.
         -2   -1    0    0    0  501 -0.00000000000E+00 -0.00000000000E+00 -0.11744825109E+04  0.11744825109E+04  0.00000000000E+00 0. -1.
         23    2    1    2    0    0 -0.62928715640E+03  0.20946930314E+03  0.16456786356E+04  0.17767666270E+04  0.93604279090E+02 0.  0.
         11    1    3    3    0    0 -0.31593541703E+03  0.65942353648E+02  0.87118971471E+03  0.92905064488E+03  0.00000000000E+00 0. -1.
        -11    1    3    3    0    0 -0.31335173936E+03  0.14352694949E+03  0.77448892089E+03  0.84771598214E+03  0.00000000000E+00 0.  1.
         22    1    1    2    0    0  0.62928715640E+03 -0.20946930314E+03 -0.10097716750E+04  0.12081053554E+04  0.00000000000E+00 0. -1.
<mgrwt>
<rscale>  0 0.29163476E+04</rscale>
<asrwt>0</asrwt>
<pdfrwt beam="1">  1        2 0.27852146E+00 0.29163476E+04</pdfrwt>
<pdfrwt beam="2">  1       -2 0.18068962E+00 0.29163476E+04</pdfrwt>
<totfact> 0.13164368E+00</totfact>
</mgrwt>
</event>
<event>
 6    1  0.5196787E-004  0.3327882E+04  0.7818608E-02  0.8155837E-01
          1   -1    0    0  501    0  0.00000000000E+00  0.00000000000E+00  0.28201611206E+04  0.28201611206E+04  0.00000000000E+00 0.  1.
         -1   -1    0    0    0  501 -0.00000000000E+00 -0.00000000000E+00 -0.98175256245E+03  0.98175256245E+03  0.00000000000E+00 0. -1.
         23    2    1    2    0    0 -0.10877176569E+04  0.61354043495E+03  0.21739060593E+04  0.25088088382E+04  0.93234466585E+02 0.  0.
         11    1    3    3    0    0 -0.10457783758E+04  0.57466591124E+03  0.21002153771E+04  0.24155326433E+04  0.00000000000E+00 0. -1.
        -11    1    3    3    0    0 -0.41939281108E+02  0.38874523710E+02  0.73690682158E+02  0.93276194876E+02  0.00000000000E+00 0.  1.
         22    1    1    2    0    0  0.10877176569E+04 -0.61354043495E+03 -0.33549750112E+03  0.12931048448E+04  0.00000000000E+00 0. -1.
<mgrwt>
<rscale>  0 0.33278825E+04</rscale>
<asrwt>0</asrwt>
<pdfrwt beam="1">  1        1 0.43387094E+00 0.33278825E+04</pdfrwt>
<pdfrwt beam="2">  1       -1 0.15103886E+00 0.33278825E+04</pdfrwt>
<totfact> 0.22837337E-01</totfact>
</mgrwt>
</event>
<event>
 6    1  0.5196787E-004  0.1094469E+04  0.7818608E-02  0.9210599E-01
         -2   -1    0    0    0  501 -0.00000000000E+00  0.00000000000E+00  0.18467899711E+03  0.18467899711E+03  0.00000000000E+00 0. -1.
          2   -1    0    0  501    0  0.00000000000E+00 -0.00000000000E+00 -0.16215474774E+04  0.16215474774E+04  0.00000000000E+00 0.  1.
         23    2    1    2    0    0  0.42943093187E+03 -0.15116682571E+03 -0.23187071538E+03  0.51809529023E+03  0.86002131732E+02 0.  0.
         11    1    3    3    0    0  0.26828175726E+03 -0.53219555663E+02 -0.11864398403E+03  0.29813389162E+03  0.00000000000E+00 0.  1.
        -11    1    3    3    0    0  0.16114917462E+03 -0.97947270047E+02 -0.11322673135E+03  0.21996139861E+03  0.00000000000E+00 0. -1.
         22    1    1    2    0    0 -0.42943093187E+03  0.15116682571E+03 -0.12049977649E+04  0.12881311843E+04  0.00000000000E+00 0.  1.
<mgrwt>
<rscale>  0 0.10944693E+04</rscale>
<asrwt>0</asrwt>
<pdfrwt beam="1">  1        2 0.24946885E+00 0.10944693E+04</pdfrwt>
<pdfrwt beam="2">  1       -2 0.28412153E-01 0.10944693E+04</pdfrwt>
<totfact> 0.12218114E+02</totfact>
</mgrwt>
</event>
<event>
 6    1  0.5196787E-004  0.1018867E+04  0.7818608E-02  0.9288090E-01
         -2   -1    0    0    0  501 -0.00000000000E+00  0.00000000000E+00  0.42882039902E+03  0.42882039902E+03  0.00000000000E+00 0. -1.
          2   -1    0    0  501    0  0.00000000000E+00 -0.00000000000E+00 -0.60520128715E+03  0.60520128715E+03  0.00000000000E+00 0.  1.
         23    2    1    2    0    0 -0.31709784459E+03 -0.20803932836E+03 -0.42781303220E+03  0.57899473283E+03  0.91539635872E+02 0.  0.
         13    1    3    3    0    0 -0.20837737520E+03 -0.18299013349E+03 -0.28350476590E+03  0.39658728136E+03  0.00000000000E+00 0.  1.
        -13    1    3    3    0    0 -0.10872046939E+03 -0.25049194866E+02 -0.14430826630E+03  0.18240745147E+03  0.00000000000E+00 0. -1.
         22    1    1    2    0    0  0.31709784459E+03  0.20803932836E+03  0.25143214408E+03  0.45502695334E+03  0.00000000000E+00 0. -1.
<mgrwt>
<rscale>  0 0.10188673E+04</rscale>
<asrwt>0</asrwt>
<pdfrwt beam="1">  1        2 0.93107890E-01 0.10188673E+04</pdfrwt>
<pdfrwt beam="2">  1       -2 0.65972370E-01 0.10188673E+04</pdfrwt>
<totfact> 0.10357525E+02</totfact>
</mgrwt>
</event>
<event>
 6    1  0.5196787E-004  0.3742840E+04  0.7818608E-02  0.8058534E-01
          2   -1    0    0  501    0  0.00000000000E+00  0.00000000000E+00  0.18537547439E+04  0.18537547439E+04  0.00000000000E+00 0.  1.
         -2   -1    0    0    0  501 -0.00000000000E+00 -0.00000000000E+00 -0.18892539701E+04  0.18892539701E+04  0.00000000000E+00 0. -1.
         23    2    1    2    0    0  0.26475020138E+02  0.18626989802E+04 -0.18429247855E+03  0.18741888057E+04  0.90948030756E+02 0.  0.
         11    1    3    3    0    0  0.18329919498E+02  0.16714900089E+04 -0.19245154566E+03  0.16826325901E+04  0.00000000000E+00 0.  1.
        -11    1    3    3    0    0  0.81451006396E+01  0.19120897129E+03  0.81590671108E+01  0.19155621562E+03  0.00000000000E+00 0. -1.
         22    1    1    2    0    0 -0.26475020138E+02 -0.18626989802E+04  0.14879325229E+03  0.18688199083E+04  0.00000000000E+00 0. -1.
<mgrwt>
<rscale>  0 0.37428404E+04</rscale>
<asrwt>0</asrwt>
<pdfrwt beam="1">  1        2 0.28519304E+00 0.37428404E+04</pdfrwt>
<pdfrwt beam="2">  1       -2 0.29065446E+00 0.37428404E+04</pdfrwt>
<totfact> 0.23527577E-01</totfact>
</mgrwt>
</event>
<event>
 6    1  0.5196787E-004  0.3082679E+04  0.7818608E-02  0.8220508E-01
          2   -1    0    0  501    0  0.00000000000E+00  0.00000000000E+00  0.33055181023E+04  0.33055181023E+04  0.00000000000E+00 0.  1.
         -2   -1    0    0    0  501 -0.00000000000E+00 -0.00000000000E+00 -0.71871574604E+03  0.71871574604E+03  0.00000000000E+00 0. -1.
         23    2    1    2    0    0 -0.86997902975E+03  0.20358185827E+02 -0.36390949931E+03  0.94787586812E+03  0.93597915188E+02 0.  0.
         13    1    3    3    0    0 -0.62483643074E+03  0.10474224760E+02 -0.30586543807E+03  0.69576141081E+03  0.00000000000E+00 0. -1.
        -13    1    3    3    0    0 -0.24514259901E+03  0.98839610667E+01 -0.58044061231E+02  0.25211445730E+03  0.00000000000E+00 0.  1.
         22    1    1    2    0    0  0.86997902975E+03 -0.20358185827E+02  0.29507118556E+04  0.30763579802E+04  0.00000000000E+00 0.  1.
<mgrwt>
<rscale>  0 0.30826793E+04</rscale>
<asrwt>0</asrwt>
<pdfrwt beam="1">  1        2 0.50854124E+00 0.30826793E+04</pdfrwt>
<pdfrwt beam="2">  1       -2 0.11057166E+00 0.30826793E+04</pdfrwt>
<totfact> 0.60869589E-01</totfact>
</mgrwt>
</event>
<event>
 6    1  0.5196787E-004  0.3833738E+04  0.7818608E-02  0.8038953E-01
         -2   -1    0    0    0  501 -0.00000000000E+00  0.00000000000E+00  0.53377301501E+04  0.53377301501E+04  0.00000000000E+00 0. -1.
          2   -1    0    0  501    0  0.00000000000E+00 -0.00000000000E+00 -0.68838007827E+03  0.68838007827E+03  0.00000000000E+00 0.  1.
         23    2    1    2    0    0 -0.72340712537E+03  0.11792672660E+04  0.44090742197E+04  0.46219301691E+04  0.91180366882E+02 0.  0.
         11    1    3    3    0    0 -0.40443219151E+03  0.64067190292E+03  0.25612540938E+04  0.26709639491E+04  0.00000000000E+00 0. -1.
        -11    1    3    3    0    0 -0.31897493386E+03  0.53859536311E+03  0.18478201259E+04  0.19509662199E+04  0.00000000000E+00 0.  1.
         22    1    1    2    0    0  0.72340712537E+03 -0.11792672660E+04  0.24027585213E+03  0.14041800593E+04  0.00000000000E+00 0.  1.
<mgrwt>
<rscale>  0 0.38337382E+04</rscale>
<asrwt>0</asrwt>
<pdfrwt beam="1">  1        2 0.10590463E+00 0.38337382E+04</pdfrwt>
<pdfrwt beam="2">  1       -2 0.82118923E+00 0.38337382E+04</pdfrwt>
<totfact> 0.18775688E-03</totfact>
</mgrwt>
</event>
<event>
 6    1  0.5196787E-004  0.6662682E+03  0.7818608E-02  0.9776723E-01
          2   -1    0    0  501    0  0.00000000000E+00  0.00000000000E+00  0.10803546253E+04  0.10803546253E+04  0.00000000000E+00 0.  1.
         -2   -1    0    0    0  501 -0.00000000000E+00 -0.00000000000E+00 -0.10272399311E+03  0.10272399311E+03  0.00000000000E+00 0. -1.
         23    2    1    2    0    0 -0.25275918383E+03 -0.15916625643E+03  0.26334978366E+03  0.40885756936E+03  0.92683878181E+02 0.  0.
         11    1    3    3    0    0 -0.69238602479E+02 -0.84992863378E+02  0.59564302125E+02  0.12476248229E+03  0.00000000000E+00 0. -1.
        -11    1    3    3    0    0 -0.18352058135E+03 -0.74173393049E+02  0.20378548154E+03  0.28409508708E+03  0.00000000000E+00 0.  1.
         22    1    1    2    0    0  0.25275918383E+03  0.15916625643E+03  0.71428084849E+03  0.77422104900E+03  0.00000000000E+00 0.  1.
<mgrwt>
<rscale>  0 0.66626824E+03</rscale>
<asrwt>0</asrwt>
<pdfrwt beam="1">  1        2 0.16620840E+00 0.66626824E+03</pdfrwt>
<pdfrwt beam="2">  1       -2 0.15803692E-01 0.66626824E+03</pdfrwt>
<totfact> 0.72454287E+02</totfact>
</mgrwt>
</event>
<event>
 6    1  0.5196787E-004  0.2129219E+04  0.7818608E-02  0.8548480E-01
         -2   -1    0    0    0  501 -0.00000000000E+00  0.00000000000E+00  0.31006524796E+03  0.31006524796E+03  0.00000000000E+00 0. -1.
          2   -1    0    0  501    0  0.00000000000E+00 -0.00000000000E+00 -0.36553373321E+04  0.36553373321E+04  0.00000000000E+00 0.  1.
         23    2    1    2    0    0  0.16983524175E+03  0.96201977835E+03 -0.24550037608E+04  0.26436977148E+04  0.88136702802E+02 0.  0.
         13    1    3    3    0    0  0.32469114616E+02  0.42606135300E+03 -0.10382684564E+04  0.11227572789E+04  0.00000000000E+00 0. -1.
        -13    1    3    3    0    0  0.13736612713E+03  0.53595842536E+03 -0.14167353045E+04  0.15209404359E+04  0.00000000000E+00 0.  1.
         22    1    1    2    0    0 -0.16983524175E+03 -0.96201977835E+03 -0.89026832330E+03  0.13217048652E+04  0.00000000000E+00 0. -1.
<mgrwt>
<rscale>  0 0.21292187E+04</rscale>
<asrwt>0</asrwt>
<pdfrwt beam="1">  1        2 0.56235955E+00 0.21292187E+04</pdfrwt>
<pdfrwt beam="2">  1       -2 0.47702349E-01 0.21292187E+04</pdfrwt>
<totfact> 0.24229050E+00</totfact>
</mgrwt>
</event>
<event>
 6    1  0.5196787E-004  0.2609163E+04  0.7818608E-02  0.8365095E-01
         -2   -1    0    0    0  501 -0.00000000000E+00  0.00000000000E+00  0.16911392563E+04  0.16911392563E+04  0.00000000000E+00 0. -1.
          2   -1    0    0  501    0  0.00000000000E+00 -0.00000000000E+00 -0.10063825729E+04  0.10063825729E+04  0.00000000000E+00 0.  1.
         23    2    1    2    0    0 -0.94611795498E+03 -0.35753283235E+03 -0.50623674374E+03  0.11350128678E+04  0.94919220066E+02 0.  0.
         11    1    3    3    0    0 -0.50050669794E+03 -0.14126078557E+03 -0.27677525258E+03  0.58912316595E+03  0.00000000000E+00 0. -1.
        -11    1    3    3    0    0 -0.44561125704E+03 -0.21627204678E+03 -0.22946149116E+03  0.54588970182E+03  0.00000000000E+00 0.  1.
         22    1    1    2    0    0  0.94611795498E+03  0.35753283235E+03  0.11909934271E+04  0.15625089614E+04  0.00000000000E+00 0. -1.
<mgrwt>
<rscale>  0 0.26091631E+04</rscale>
<asrwt>0</asrwt>
<pdfrwt beam="1">  1        2 0.15482809E+00 0.26091631E+04</pdfrwt>
<pdfrwt beam="2">  1       -2 0.26017527E+00 0.26091631E+04</pdfrwt>
<totfact> 0.12273675E+00</totfact>
</mgrwt>
</event>
<event>
 6    1  0.5196787E-004  0.1932330E+04  0.7818608E-02  0.8638929E-01
          2   -1    0    0  501    0  0.00000000000E+00  0.00000000000E+00  0.21214693928E+04  0.21214693928E+04  0.00000000000E+00 0.  1.
         -2   -1    0    0    0  501 -0.00000000000E+00 -0.00000000000E+00 -0.44001312514E+03  0.44001312514E+03  0.00000000000E+00 0. -1.
         23    2    1    2    0    0  0.20245566671E+03 -0.85947633348E+03  0.32961039062E+03  0.94680758469E+03  0.90076234563E+02 0.  0.
         11    1    3    3    0    0  0.69150373610E+02 -0.16891641930E+03  0.44233598882E+02  0.18780612916E+03  0.00000000000E+00 0. -1.
        -11    1    3    3    0    0  0.13330529310E+03 -0.69055991418E+03  0.28537679174E+03  0.75900145553E+03  0.00000000000E+00 0.  1.
         22    1    1    2    0    0 -0.20245566671E+03  0.85947633348E+03  0.13518458770E+04  0.16146749332E+04  0.00000000000E+00 0.  1.
<mgrwt>
<rscale>  0 0.19323296E+04</rscale>
<asrwt>0</asrwt>
<pdfrwt beam="1">  1        2 0.32637990E+00 0.19323296E+04</pdfrwt>
<pdfrwt beam="2">  1       -2 0.67694328E-01 0.19323296E+04</pdfrwt>
<totfact> 0.10676466E+01</totfact>
</mgrwt>
</event>
<event>
 6    1  0.5196787E-004  0.1724619E+04  0.7818608E-02  0.8747446E-01
          2   -1    0    0  501    0  0.00000000000E+00  0.00000000000E+00  0.73639858043E+03  0.73639858043E+03  0.00000000000E+00 0.  1.
         -2   -1    0    0    0  501 -0.00000000000E+00 -0.00000000000E+00 -0.10097493763E+04  0.10097493763E+04  0.00000000000E+00 0. -1.
         23    2    1    2    0    0 -0.62927851344E+03 -0.23326293369E+03  0.40728043990E+03  0.79029131329E+03  0.90994282411E+02 0.  0.
         13    1    3    3    0    0 -0.13028996376E+03 -0.21226414924E+02  0.11084154759E+03  0.17237135499E+03  0.00000000000E+00 0.  1.
        -13    1    3    3    0    0 -0.49898854967E+03 -0.21203651877E+03  0.29643889231E+03  0.61791995831E+03  0.00000000000E+00 0. -1.
         22    1    1    2    0    0  0.62927851344E+03  0.23326293369E+03 -0.68063123582E+03  0.95585664348E+03  0.00000000000E+00 0. -1.
<mgrwt>
<rscale>  0 0.17246194E+04</rscale>
<asrwt>0</asrwt>
<pdfrwt beam="1">  1        2 0.11329209E+00 0.17246194E+04</pdfrwt>
<pdfrwt beam="2">  1       -2 0.15534606E+00 0.17246194E+04</pdfrwt>
<totfact> 0.99462023E+00</totfact>
</mgrwt>
</event>
<event>
 6    1  0.5196787E-004  0.2291807E+04  0.7818608E-02  0.8481159E-01
         -2   -1    0    0    0  501 -0.00000000000E+00  0.00000000000E+00  0.13672121670E+04  0.13672121670E+04  0.00000000000E+00 0.  1.
          2   -1    0    0  501    0  0.00000000000E+00 -0.00000000000E+00 -0.96041772108E+03  0.96041772108E+03  0.00000000000E+00 0. -1.
         23    2    1    2    0    0 -0.63530726862E+03  0.35061737710E+03 -0.69466221019E+03  0.10086323005E+04  0.90750540983E+02 0.  0.
         13    1    3    3    0    0 -0.54417615755E+03  0.33333706636E+03 -0.59541836437E+03  0.87279110839E+03  0.00000000000E+00 0. -1.
        -13    1    3    3    0    0 -0.91131111073E+02  0.17280310733E+02 -0.99243845820E+02  0.13584119212E+03  0.00000000000E+00 0.  1.
         22    1    1    2    0    0  0.63530726862E+03 -0.35061737710E+03  0.11014566561E+04  0.13189975875E+04  0.00000000000E+00 0.  1.
<mgrwt>
<rscale>  0 0.22918070E+04</rscale>
<asrwt>0</asrwt>
<pdfrwt beam="1">  1        2 0.14775657E+00 0.22918070E+04</pdfrwt>
<pdfrwt beam="2">  1       -2 0.21034033E+00 0.22918070E+04</pdfrwt>
<totfact> 0.27616280E+00</totfact>
</mgrwt>
</event>
<event>
 6    1  0.5196787E-004  0.1150288E+04  0.7818608E-02  0.9157518E-01
          2   -1    0    0  501    0  0.00000000000E+00  0.00000000000E+00  0.15488152531E+04  0.15488152531E+04  0.00000000000E+00 0.  1.
         -2   -1    0    0    0  501 -0.00000000000E+00 -0.00000000000E+00 -0.21357638062E+03  0.21357638062E+03  0.00000000000E+00 0. -1.
         23    2    1    2    0    0  0.14291850928E+03 -0.51721473238E+03  0.37296361669E+03  0.66061559132E+03  0.96821074329E+02 0.  0.
         13    1    3    3    0    0  0.12016753481E+03 -0.29890440385E+03  0.18407006792E+03  0.37103351461E+03  0.00000000000E+00 0.  1.
        -13    1    3    3    0    0  0.22750974474E+02 -0.21831032854E+03  0.18889354877E+03  0.28958207671E+03  0.00000000000E+00 0. -1.
         22    1    1    2    0    0 -0.14291850928E+03  0.51721473238E+03  0.96227525580E+03  0.11017760424E+04  0.00000000000E+00 0.  1.
<mgrwt>
<rscale>  0 0.11502875E+04</rscale>
<asrwt>0</asrwt>
<pdfrwt beam="1">  1        2 0.23827926E+00 0.11502875E+04</pdfrwt>
<pdfrwt beam="2">  1       -2 0.32857906E-01 0.11502875E+04</pdfrwt>
<totfact> 0.10184364E+02</totfact>
</mgrwt>
</event>
<event>
 6    1  0.5196787E-004  0.3687321E+04  0.7818608E-02  0.8070778E-01
          2   -1    0    0  501    0  0.00000000000E+00  0.00000000000E+00  0.11743242474E+04  0.11743242474E+04  0.00000000000E+00 0.  1.
         -2   -1    0    0    0  501 -0.00000000000E+00 -0.00000000000E+00 -0.28945018578E+04  0.28945018578E+04  0.00000000000E+00 0. -1.
         23    2    1    2    0    0 -0.45783274075E+03  0.89523560122E+03  0.84310162186E+03  0.13153813495E+04  0.91379152673E+02 0.  0.
         13    1    3    3    0    0 -0.41076734404E+03  0.73247008143E+03  0.68685368083E+03  0.10849010139E+04  0.00000000000E+00 0.  1.
        -13    1    3    3    0    0 -0.47065396709E+02  0.16276551979E+03  0.15624794103E+03  0.23048033556E+03  0.00000000000E+00 0. -1.
         22    1    1    2    0    0  0.45783274075E+03 -0.89523560122E+03 -0.25632792323E+04  0.27534447557E+04  0.00000000000E+00 0. -1.
<mgrwt>
<rscale>  0 0.36873208E+04</rscale>
<asrwt>0</asrwt>
<pdfrwt beam="1">  1        2 0.18066527E+00 0.36873208E+04</pdfrwt>
<pdfrwt beam="2">  1       -2 0.44530797E+00 0.36873208E+04</pdfrwt>
<totfact> 0.59162544E-02</totfact>
</mgrwt>
</event>
<event>
 6    1  0.5196787E-004  0.2193579E+04  0.7818608E-02  0.8521106E-01
         -2   -1    0    0    0  501 -0.00000000000E+00  0.00000000000E+00  0.94608434973E+03  0.94608434973E+03  0.00000000000E+00 0. -1.
          2   -1    0    0  501    0  0.00000000000E+00 -0.00000000000E+00 -0.12715004870E+04  0.12715004870E+04  0.00000000000E+00 0.  1.
         23    2    1    2    0    0 -0.96629369640E+02 -0.10322098479E+04 -0.51867753392E+03  0.11630022783E+04  0.93560194207E+02 0.  0.
         13    1    3    3    0    0  0.12802476606E+02 -0.32415037252E+03 -0.16777676592E+03  0.36522104347E+03  0.00000000000E+00 0. -1.
        -13    1    3    3    0    0 -0.10943184625E+03 -0.70805947537E+03 -0.35090076801E+03  0.79778123481E+03  0.00000000000E+00 0.  1.
         22    1    1    2    0    0  0.96629369640E+02  0.10322098479E+04  0.19326139665E+03  0.10545825585E+04  0.00000000000E+00 0. -1.
<mgrwt>
<rscale>  0 0.21935785E+04</rscale>
<asrwt>0</asrwt>
<pdfrwt beam="1">  1        2 0.19561546E+00 0.21935785E+04</pdfrwt>
<pdfrwt beam="2">  1       -2 0.14555144E+00 0.21935785E+04</pdfrwt>
<totfact> 0.50976379E+00</totfact>
</mgrwt>
</event>
<event>
 6    1  0.5196787E-004  0.4024669E+04  0.7818608E-02  0.7999588E-01
          2   -1    0    0  501    0  0.00000000000E+00  0.00000000000E+00  0.31073232546E+04  0.31073232546E+04  0.00000000000E+00 0.  1.
         -2   -1    0    0    0  501 -0.00000000000E+00 -0.00000000000E+00 -0.13032084878E+04  0.13032084878E+04  0.00000000000E+00 0. -1.
         23    2    1    2    0    0 -0.45241965719E+02 -0.17584337733E+04 -0.16660838090E+03  0.17689629102E+04  0.85646100486E+02 0.  0.
         11    1    3    3    0    0 -0.21387206022E+02 -0.55587162582E+03 -0.13384472010E+02  0.55644390649E+03  0.00000000000E+00 0. -1.
        -11    1    3    3    0    0 -0.23854759697E+02 -0.12025621475E+04 -0.15322390889E+03  0.12125190037E+04  0.00000000000E+00 0.  1.
         22    1    1    2    0    0  0.45241965719E+02  0.17584337733E+04  0.19707231477E+04  0.26415688322E+04  0.00000000000E+00 0.  1.
<mgrwt>
<rscale>  0 0.40246690E+04</rscale>
<asrwt>0</asrwt>
<pdfrwt beam="1">  1        2 0.47804973E+00 0.40246690E+04</pdfrwt>
<pdfrwt beam="2">  1       -2 0.20049361E+00 0.40246690E+04</pdfrwt>
<totfact> 0.15460126E-01</totfact>
</mgrwt>
</event>
<event>
 6    1  0.5196787E-004  0.2823999E+04  0.7818608E-02  0.8295856E-01
          2   -1    0    0  501    0  0.00000000000E+00  0.00000000000E+00  0.25569289538E+04  0.25569289538E+04  0.00000000000E+00 0.  1.
         -2   -1    0    0    0  501 -0.00000000000E+00 -0.00000000000E+00 -0.77974106198E+03  0.77974106198E+03  0.00000000000E+00 0. -1.
         23    2    1    2    0    0 -0.88034892895E+03  0.10429610391E+04  0.13102179071E+04  0.18941573010E+04  0.91536610199E+02 0.  0.
         13    1    3    3    0    0 -0.57918703970E+03  0.72961024905E+03  0.84830034517E+03  0.12599215127E+04  0.00000000000E+00 0.  1.
        -13    1    3    3    0    0 -0.30116188925E+03  0.31335079006E+03  0.46191756191E+03  0.63423578831E+03  0.00000000000E+00 0. -1.
         22    1    1    2    0    0  0.88034892895E+03 -0.10429610391E+04  0.46696998479E+03  0.14425127149E+04  0.00000000000E+00 0. -1.
<mgrwt>
<rscale>  0 0.28239989E+04</rscale>
<asrwt>0</asrwt>
<pdfrwt beam="1">  1        2 0.39337368E+00 0.28239989E+04</pdfrwt>
<pdfrwt beam="2">  1       -2 0.11996016E+00 0.28239989E+04</pdfrwt>
<totfact> 0.14882013E+00</totfact>
</mgrwt>
</event>
<event>
 6    1  0.5196787E-004  0.3282889E+04  0.7818608E-02  0.8167263E-01
          2   -1    0    0  501    0  0.00000000000E+00  0.00000000000E+00  0.19025684646E+04  0.19025684646E+04  0.00000000000E+00 0.  1.
         -2   -1    0    0    0  501 -0.00000000000E+00 -0.00000000000E+00 -0.14161595627E+04  0.14161595627E+04  0.00000000000E+00 0. -1.
         23    2    1    2    0    0 -0.13416981366E+04  0.10139093857E+03 -0.70459931065E+03  0.15218043855E+04  0.94838741700E+02 0.  0.
         13    1    3    3    0    0 -0.97697881593E+03  0.11506351196E+03 -0.52414271491E+03  0.11146536700E+04  0.00000000000E+00 0.  1.
        -13    1    3    3    0    0 -0.36471932065E+03 -0.13672573387E+02 -0.18045659575E+03  0.40715071542E+03  0.00000000000E+00 0. -1.
         22    1    1    2    0    0  0.13416981366E+04 -0.10139093857E+03  0.11910082126E+04  0.17969236418E+04  0.00000000000E+00 0.  1.
<mgrwt>
<rscale>  0 0.32828893E+04</rscale>
<asrwt>0</asrwt>
<pdfrwt beam="1">  1        2 0.29270284E+00 0.32828893E+04</pdfrwt>
<pdfrwt beam="2">  1       -2 0.21787070E+00 0.32828893E+04</pdfrwt>
<totfact> 0.64547827E-01</totfact>
</mgrwt>
</event>
<event>
 6    1  0.5196787E-004  0.6735554E+03  0.7818608E-02  0.9763556E-01
          2   -1    0    0  501    0  0.00000000000E+00  0.00000000000E+00  0.40021906836E+03  0.40021906836E+03  0.00000000000E+00 0.  1.
         -2   -1    0    0    0  501 -0.00000000000E+00 -0.00000000000E+00 -0.28339285772E+03  0.28339285772E+03  0.00000000000E+00 0. -1.
         23    2    1    2    0    0 -0.14565660295E+03 -0.25915280766E+03 -0.87330188478E+02  0.32297934435E+03  0.91176045975E+02 0.  0.
         13    1    3    3    0    0 -0.46416125194E+02 -0.16958934068E+03 -0.34163582333E+02  0.17911491146E+03  0.00000000000E+00 0.  1.
        -13    1    3    3    0    0 -0.99240477759E+02 -0.89563466980E+02 -0.53166606145E+02  0.14386443290E+03  0.00000000000E+00 0. -1.
         22    1    1    2    0    0  0.14565660295E+03  0.25915280766E+03  0.20415639912E+03  0.36063258172E+03  0.00000000000E+00 0.  1.
<mgrwt>
<rscale>  0 0.67355542E+03</rscale>
<asrwt>0</asrwt>
<pdfrwt beam="1">  1        2 0.61572164E-01 0.67355542E+03</pdfrwt>
<pdfrwt beam="2">  1       -2 0.43598901E-01 0.67355542E+03</pdfrwt>
<totfact> 0.39987746E+02</totfact>
</mgrwt>
</event>
<event>
 6    1  0.5196787E-004  0.2351933E+04  0.7818608E-02  0.8457722E-01
         -2   -1    0    0    0  501 -0.00000000000E+00  0.00000000000E+00  0.56197801650E+03  0.56197801650E+03  0.00000000000E+00 0. -1.
          2   -1    0    0  501    0  0.00000000000E+00 -0.00000000000E+00 -0.24607664767E+04  0.24607664767E+04  0.00000000000E+00 0.  1.
         23    2    1    2    0    0  0.85363565517E+03 -0.47584449272E+03 -0.17874563214E+04  0.20391202467E+04  0.88822670212E+02 0.  0.
         11    1    3    3    0    0  0.53280281279E+03 -0.24719292608E+03 -0.10730420303E+04  0.12232752670E+04  0.00000000000E+00 0.  1.
        -11    1    3    3    0    0  0.32083284238E+03 -0.22865156664E+03 -0.71441429106E+03  0.81584497973E+03  0.00000000000E+00 0. -1.
         22    1    1    2    0    0 -0.85363565517E+03  0.47584449272E+03 -0.11133213877E+03  0.98362424642E+03  0.00000000000E+00 0. -1.
<mgrwt>
<rscale>  0 0.23519325E+04</rscale>
<asrwt>0</asrwt>
<pdfrwt beam="1">  1        2 0.37857947E+00 0.23519325E+04</pdfrwt>
<pdfrwt beam="2">  1       -2 0.86458154E-01 0.23519325E+04</pdfrwt>
<totfact> 0.38374848E+00</totfact>
</mgrwt>
</event>
<event>
 6    1  0.5196787E-004  0.1083316E+04  0.7818608E-02  0.9221608E-01
         -2   -1    0    0    0  501 -0.00000000000E+00  0.00000000000E+00  0.16951391373E+03  0.16951391373E+03  0.00000000000E+00 0. -1.
          2   -1    0    0  501    0  0.00000000000E+00 -0.00000000000E+00 -0.17307919263E+04  0.17307919263E+04  0.00000000000E+00 0.  1.
         23    2    1    2    0    0 -0.35505152148E+03  0.30710107265E+03 -0.12465618773E+04  0.13351342754E+04  0.91073418655E+02 0.  0.
         11    1    3    3    0    0 -0.17500232885E+03  0.20190458388E+03 -0.63207288292E+03  0.68622693435E+03  0.00000000000E+00 0. -1.
        -11    1    3    3    0    0 -0.18004919262E+03  0.10519648876E+03 -0.61448899437E+03  0.64890734101E+03  0.00000000000E+00 0.  1.
         22    1    1    2    0    0  0.35505152148E+03 -0.30710107265E+03 -0.31471613528E+03  0.56517156468E+03  0.00000000000E+00 0. -1.
<mgrwt>
<rscale>  0 0.10833159E+04</rscale>
<asrwt>0</asrwt>
<pdfrwt beam="1">  1        2 0.26627569E+00 0.10833159E+04</pdfrwt>
<pdfrwt beam="2">  1       -2 0.26079063E-01 0.10833159E+04</pdfrwt>
<totfact> 0.12448071E+02</totfact>
</mgrwt>
</event>
<event>
 6    1  0.5196787E-004  0.2660704E+04  0.7818608E-02  0.8347869E-01
         -1   -1    0    0    0  501 -0.00000000000E+00  0.00000000000E+00  0.11309330333E+04  0.11309330333E+04  0.00000000000E+00 0. -1.
          1   -1    0    0  501    0  0.00000000000E+00 -0.00000000000E+00 -0.15649346861E+04  0.15649346861E+04  0.00000000000E+00 0.  1.
         23    2    1    2    0    0  0.38560255462E+03 -0.12656777631E+03  0.10648567480E+04  0.11430363576E+04  0.88901568547E+02 0.  0.
         13    1    3    3    0    0  0.10036852034E+03 -0.54419211133E+01  0.19055155008E+03  0.21543757244E+03  0.00000000000E+00 0.  1.
        -13    1    3    3    0    0  0.28523403428E+03 -0.12112585520E+03  0.87430519797E+03  0.92759878520E+03  0.00000000000E+00 0. -1.
         22    1    1    2    0    0 -0.38560255462E+03  0.12656777631E+03 -0.14988584008E+04  0.15528313617E+04  0.00000000000E+00 0.  1.
<mgrwt>
<rscale>  0 0.26607039E+04</rscale>
<asrwt>0</asrwt>
<pdfrwt beam="1">  1        1 0.24075918E+00 0.26607039E+04</pdfrwt>
<pdfrwt beam="2">  1       -1 0.17398970E+00 0.26607039E+04</pdfrwt>
<totfact> 0.11890472E+00</totfact>
</mgrwt>
</event>
<event>
 6    1  0.5196787E-004  0.3853240E+04  0.7818608E-02  0.8034825E-01
         -2   -1    0    0    0  501 -0.00000000000E+00  0.00000000000E+00  0.15323451469E+04  0.15323451469E+04  0.00000000000E+00 0. -1.
          2   -1    0    0  501    0  0.00000000000E+00 -0.00000000000E+00 -0.24223423218E+04  0.24223423218E+04  0.00000000000E+00 0.  1.
         23    2    1    2    0    0 -0.18037965971E+03  0.14153430865E+04 -0.17723537528E+04  0.22771040863E+04  0.90732136458E+02 0.  0.
         11    1    3    3    0    0 -0.15128141132E+03  0.10234266616E+04 -0.13387758359E+04  0.16919246248E+04  0.00000000000E+00 0. -1.
        -11    1    3    3    0    0 -0.29098248385E+02  0.39191642497E+03 -0.43357791693E+03  0.58517946159E+03  0.00000000000E+00 0.  1.
         22    1    1    2    0    0  0.18037965971E+03 -0.14153430865E+04  0.88235657787E+03  0.16775833824E+04  0.00000000000E+00 0. -1.
<mgrwt>
<rscale>  0 0.38532399E+04</rscale>
<asrwt>0</asrwt>
<pdfrwt beam="1">  1        2 0.37266805E+00 0.38532399E+04</pdfrwt>
<pdfrwt beam="2">  1       -2 0.23574541E+00 0.38532399E+04</pdfrwt>
<totfact> 0.24257340E-01</totfact>
</mgrwt>
</event>
<event>
 6    1  0.5196787E-004  0.1758206E+04  0.7818608E-02  0.8728846E-01
         -2   -1    0    0    0  501 -0.00000000000E+00  0.00000000000E+00  0.34711137446E+03  0.34711137446E+03  0.00000000000E+00 0. -1.
          2   -1    0    0  501    0  0.00000000000E+00 -0.00000000000E+00 -0.22264391501E+04  0.22264391501E+04  0.00000000000E+00 0.  1.
         23    2    1    2    0    0 -0.41902699206E+03 -0.70118318895E+03 -0.14080613841E+04  0.16305057238E+04  0.93115891292E+02 0.  0.
         13    1    3    3    0    0 -0.15063744496E+03 -0.18040611540E+03 -0.36352276528E+03  0.43288197835E+03  0.00000000000E+00 0.  1.
        -13    1    3    3    0    0 -0.26838954710E+03 -0.52077707355E+03 -0.10445386189E+04  0.11976237454E+04  0.00000000000E+00 0. -1.
         22    1    1    2    0    0  0.41902699206E+03  0.70118318895E+03 -0.47126639150E+03  0.94304480079E+03  0.00000000000E+00 0. -1.
<mgrwt>
<rscale>  0 0.17582063E+04</rscale>
<asrwt>0</asrwt>
<pdfrwt beam="1">  1        2 0.34252910E+00 0.17582063E+04</pdfrwt>
<pdfrwt beam="2">  1       -2 0.53401750E-01 0.17582063E+04</pdfrwt>
<totfact> 0.15628215E+01</totfact>
</mgrwt>
</event>
<event>
 6    1  0.5196787E-004  0.2535988E+04  0.7818608E-02  0.8390276E-01
          2   -1    0    0  501    0  0.00000000000E+00  0.00000000000E+00  0.19688533410E+04  0.19688533410E+04  0.00000000000E+00 0.  1.
         -2   -1    0    0    0  501 -0.00000000000E+00 -0.00000000000E+00 -0.81662205792E+03  0.81662205792E+03  0.00000000000E+00 0. -1.
         23    2    1    2    0    0 -0.11400137960E+04 -0.51445545612E+03  0.35870363652E+03  0.13042657591E+04  0.90249654390E+02 0.  0.
         13    1    3    3    0    0 -0.64519883125E+03 -0.33893336659E+03  0.19884761806E+03  0.75544538786E+03  0.00000000000E+00 0. -1.
        -13    1    3    3    0    0 -0.49481496472E+03 -0.17552208953E+03  0.15985601846E+03  0.54882037122E+03  0.00000000000E+00 0.  1.
         22    1    1    2    0    0  0.11400137960E+04  0.51445545612E+03  0.79352764656E+03  0.14812096398E+04  0.00000000000E+00 0.  1.
<mgrwt>
<rscale>  0 0.25359882E+04</rscale>
<asrwt>0</asrwt>
<pdfrwt beam="1">  1        2 0.30290051E+00 0.25359882E+04</pdfrwt>
<pdfrwt beam="2">  1       -2 0.12563416E+00 0.25359882E+04</pdfrwt>
<totfact> 0.29272775E+00</totfact>
</mgrwt>
</event>
<event>
 6    1  0.5196787E-004  0.3602258E+04  0.7818608E-02  0.8089975E-01
          2   -1    0    0  501    0  0.00000000000E+00  0.00000000000E+00  0.14689488983E+04  0.14689488983E+04  0.00000000000E+00 0.  1.
         -2   -1    0    0    0  501 -0.00000000000E+00 -0.00000000000E+00 -0.22084263672E+04  0.22084263672E+04  0.00000000000E+00 0. -1.
         23    2    1    2    0    0 -0.14380143509E+02 -0.83706804345E+03 -0.19966424336E+04  0.21669602741E+04  0.90808171723E+02 0.  0.
         13    1    3    3    0    0 -0.52081183924E+02 -0.44939640799E+03 -0.10494914653E+04  0.11428481601E+04  0.00000000000E+00 0. -1.
        -13    1    3    3    0    0  0.37701040414E+02 -0.38767163546E+03 -0.94715096825E+03  0.10241121140E+04  0.00000000000E+00 0.  1.
         22    1    1    2    0    0  0.14380143509E+02  0.83706804345E+03  0.12571649647E+04  0.15104149914E+04  0.00000000000E+00 0.  1.
<mgrwt>
<rscale>  0 0.36022579E+04</rscale>
<asrwt>0</asrwt>
<pdfrwt beam="1">  1        2 0.22599214E+00 0.36022579E+04</pdfrwt>
<pdfrwt beam="2">  1       -2 0.33975790E+00 0.36022579E+04</pdfrwt>
<totfact> 0.19429232E-01</totfact>
</mgrwt>
</event>
<event>
 6    1  0.5196787E-004  0.3236989E+04  0.7818608E-02  0.8179116E-01
          2   -1    0    0  501    0  0.00000000000E+00  0.00000000000E+00  0.13184053213E+04  0.13184053213E+04  0.00000000000E+00 0.  1.
         -2   -1    0    0    0  501 -0.00000000000E+00 -0.00000000000E+00 -0.19868885959E+04  0.19868885959E+04  0.00000000000E+00 0. -1.
         23    2    1    2    0    0  0.29356543568E+03 -0.37718641963E+03  0.12431719845E+04  0.13347924355E+04  0.88000014908E+02 0.  0.
         11    1    3    3    0    0  0.14693226118E+03 -0.19987560444E+03  0.76352072335E+03  0.80280959238E+03  0.00000000000E+00 0.  1.
        -11    1    3    3    0    0  0.14663317450E+03 -0.17731081519E+03  0.47965126112E+03  0.53198284309E+03  0.00000000000E+00 0. -1.
         22    1    1    2    0    0 -0.29356543568E+03  0.37718641963E+03 -0.19116552591E+04  0.19705014818E+04  0.00000000000E+00 0. -1.
<mgrwt>
<rscale>  0 0.32369890E+04</rscale>
<asrwt>0</asrwt>
<pdfrwt beam="1">  1        2 0.20283159E+00 0.32369890E+04</pdfrwt>
<pdfrwt beam="2">  1       -2 0.30567517E+00 0.32369890E+04</pdfrwt>
<totfact> 0.39714673E-01</totfact>
</mgrwt>
</event>
<event>
 6    1  0.5196787E-004  0.8217192E+03  0.7818608E-02  0.9529101E-01
          2   -1    0    0  501    0  0.00000000000E+00  0.00000000000E+00  0.96586679765E+02  0.96586679765E+02  0.00000000000E+00 0.  1.
         -2   -1    0    0    0  501 -0.00000000000E+00 -0.00000000000E+00 -0.17477110008E+04  0.17477110008E+04  0.00000000000E+00 0. -1.
         23    2    1    2    0    0 -0.54455892482E+02  0.18658056861E+03 -0.16370276319E+04  0.16494221576E+04  0.54371256699E+02 0.  0.
         11    1    3    3    0    0 -0.54493192413E+02  0.91859492535E+02 -0.82267365874E+03  0.82957797896E+03  0.00000000000E+00 0. -1.
        -11    1    3    3    0    0  0.37299930855E-01  0.94721076074E+02 -0.81435397312E+03  0.81984417860E+03  0.00000000000E+00 0.  1.
         22    1    1    2    0    0  0.54455892482E+02 -0.18658056861E+03 -0.14096689139E+02  0.19487552297E+03  0.00000000000E+00 0.  1.
<mgrwt>
<rscale>  0 0.82171918E+03</rscale>
<asrwt>0</asrwt>
<pdfrwt beam="1">  1        2 0.14859489E-01 0.82171918E+03</pdfrwt>
<pdfrwt beam="2">  1       -2 0.26887861E+00 0.82171918E+03</pdfrwt>
<totfact> 0.20488756E+01</totfact>
</mgrwt>
</event>
<event>
 6    1  0.5196787E-004  0.2075856E+04  0.7818608E-02  0.8571954E-01
          2   -1    0    0  501    0  0.00000000000E+00  0.00000000000E+00  0.32830220575E+04  0.32830220575E+04  0.00000000000E+00 0.  1.
         -2   -1    0    0    0  501 -0.00000000000E+00 -0.00000000000E+00 -0.32814108502E+03  0.32814108502E+03  0.00000000000E+00 0. -1.
         23    2    1    2    0    0  0.83078582272E+03  0.61703851664E+03  0.15604769779E+04  0.18747000377E+04  0.92033790308E+02 0.  0.
         13    1    3    3    0    0  0.36296299762E+03  0.30216579603E+03  0.64368477005E+03  0.79835855924E+03  0.00000000000E+00 0. -1.
        -13    1    3    3    0    0  0.46782282510E+03  0.31487272061E+03  0.91679220780E+03  0.10763414784E+04  0.00000000000E+00 0.  1.
         22    1    1    2    0    0 -0.83078582272E+03 -0.61703851664E+03  0.13944039946E+04  0.17364631048E+04  0.00000000000E+00 0.  1.
<mgrwt>
<rscale>  0 0.20758559E+04</rscale>
<asrwt>0</asrwt>
<pdfrwt beam="1">  1        2 0.50508029E+00 0.20758559E+04</pdfrwt>
<pdfrwt beam="2">  1       -2 0.50483246E-01 0.20758559E+04</pdfrwt>
<totfact> 0.39302458E+00</totfact>
</mgrwt>
</event>
<event>
 6    1  0.5196787E-004  0.2156750E+04  0.7818608E-02  0.8536649E-01
          1   -1    0    0  501    0  0.00000000000E+00  0.00000000000E+00  0.13564952414E+04  0.13564952414E+04  0.00000000000E+00 0.  1.
         -1   -1    0    0    0  501 -0.00000000000E+00 -0.00000000000E+00 -0.85727715152E+03  0.85727715152E+03  0.00000000000E+00 0. -1.
         23    2    1    2    0    0  0.16522934206E+03 -0.22693025197E+03  0.13165289408E+04  0.13495993189E+04  0.96808031592E+02 0.  0.
         11    1    3    3    0    0  0.15869360231E+03 -0.19949772023E+03  0.10061034020E+04  0.10378954935E+04  0.00000000000E+00 0.  1.
        -11    1    3    3    0    0  0.65357397547E+01 -0.27432531744E+02  0.31042553875E+03  0.31170382545E+03  0.00000000000E+00 0. -1.
         22    1    1    2    0    0 -0.16522934206E+03  0.22693025197E+03 -0.81731085093E+03  0.86417307397E+03  0.00000000000E+00 0. -1.
<mgrwt>
<rscale>  0 0.21567498E+04</rscale>
<asrwt>0</asrwt>
<pdfrwt beam="1">  1        1 0.20869158E+00 0.21567498E+04</pdfrwt>
<pdfrwt beam="2">  1       -1 0.13188879E+00 0.21567498E+04</pdfrwt>
<totfact> 0.36896347E+00</totfact>
</mgrwt>
</event>
<event>
 6    1  0.5196787E-004  0.1835008E+04  0.7818608E-02  0.8687901E-01
         -2   -1    0    0    0  501 -0.00000000000E+00  0.00000000000E+00  0.75231524037E+03  0.75231524037E+03  0.00000000000E+00 0. -1.
          2   -1    0    0  501    0  0.00000000000E+00 -0.00000000000E+00 -0.11189639702E+04  0.11189639702E+04  0.00000000000E+00 0.  1.
         23    2    1    2    0    0 -0.11047929287E+03 -0.75921414708E+03 -0.69247174617E+03  0.10377491072E+04  0.93777901879E+02 0.  0.
         13    1    3    3    0    0 -0.28995766289E+02 -0.48399138764E+03 -0.46061927405E+03  0.66877390305E+03  0.00000000000E+00 0. -1.
        -13    1    3    3    0    0 -0.81483526585E+02 -0.27522275944E+03 -0.23185247212E+03  0.36897520411E+03  0.00000000000E+00 0.  1.
         22    1    1    2    0    0  0.11047929287E+03  0.75921414708E+03  0.32582301635E+03  0.83353010340E+03  0.00000000000E+00 0. -1.
<mgrwt>
<rscale>  0 0.18350081E+04</rscale>
<asrwt>0</asrwt>
<pdfrwt beam="1">  1        2 0.17214830E+00 0.18350081E+04</pdfrwt>
<pdfrwt beam="2">  1       -2 0.11574081E+00 0.18350081E+04</pdfrwt>
<totfact> 0.11591160E+01</totfact>
</mgrwt>
</event>
<event>
 6    1  0.5196787E-004  0.2580568E+04  0.7818608E-02  0.8374832E-01
          2   -1    0    0  501    0  0.00000000000E+00  0.00000000000E+00  0.32946545201E+04  0.32946545201E+04  0.00000000000E+00 0.  1.
         -2   -1    0    0    0  501 -0.00000000000E+00 -0.00000000000E+00 -0.50531341900E+03  0.50531341900E+03  0.00000000000E+00 0. -1.
         23    2    1    2    0    0  0.12487661574E+04  0.29938685345E+03  0.12364782843E+04  0.17849164927E+04  0.89436762102E+02 0.  0.
         13    1    3    3    0    0  0.86176757003E+03  0.17896591951E+03  0.80202869740E+03  0.11907653743E+04  0.00000000000E+00 0.  1.
        -13    1    3    3    0    0  0.38699858737E+03  0.12042093393E+03  0.43444958686E+03  0.59415111839E+03  0.00000000000E+00 0. -1.
         22    1    1    2    0    0 -0.12487661574E+04 -0.29938685345E+03  0.15528628169E+04  0.20150514465E+04  0.00000000000E+00 0.  1.
<mgrwt>
<rscale>  0 0.25805683E+04</rscale>
<asrwt>0</asrwt>
<pdfrwt beam="1">  1        2 0.50686991E+00 0.25805683E+04</pdfrwt>
<pdfrwt beam="2">  1       -2 0.77740528E-01 0.25805683E+04</pdfrwt>
<totfact> 0.14672499E+00</totfact>
</mgrwt>
</event>
<event>
 6    1  0.5196787E-004  0.1520019E+04  0.7818608E-02  0.8871249E-01
          2   -1    0    0  501    0  0.00000000000E+00  0.00000000000E+00  0.14098084198E+04  0.14098084198E+04  0.00000000000E+00 0.  1.
         -2   -1    0    0    0  501 -0.00000000000E+00 -0.00000000000E+00 -0.40971118957E+03  0.40971118957E+03  0.00000000000E+00 0. -1.
         23    2    1    2    0    0  0.54952819534E+03 -0.23205448207E+02  0.11249506450E+04  0.12555088777E+04  0.90933261449E+02 0.  0.
         11    1    3    3    0    0  0.39526713072E+03 -0.43498775119E+02  0.87446394223E+03  0.96063283013E+03  0.00000000000E+00 0.  1.
        -11    1    3    3    0    0  0.15426106462E+03  0.20293326911E+02  0.25048670277E+03  0.29487604759E+03  0.00000000000E+00 0. -1.
         22    1    1    2    0    0 -0.54952819534E+03  0.23205448207E+02 -0.12485341473E+03  0.56401073170E+03  0.00000000000E+00 0. -1.
<mgrwt>
<rscale>  0 0.15200188E+04</rscale>
<asrwt>0</asrwt>
<pdfrwt beam="1">  1        2 0.21689360E+00 0.15200188E+04</pdfrwt>
<pdfrwt beam="2">  1       -2 0.63032492E-01 0.15200188E+04</pdfrwt>
<totfact> 0.32134463E+01</totfact>
</mgrwt>
</event>
<event>
 6    1  0.5196787E-004  0.1916983E+04  0.7818608E-02  0.8646449E-01
         -2   -1    0    0    0  501 -0.00000000000E+00  0.00000000000E+00  0.50662160746E+03  0.50662160746E+03  0.00000000000E+00 0. -1.
          2   -1    0    0  501    0  0.00000000000E+00 -0.00000000000E+00 -0.18133963425E+04  0.18133963425E+04  0.00000000000E+00 0.  1.
         23    2    1    2    0    0  0.66762746674E+02  0.49970689966E+03  0.32907892048E+03  0.60824067701E+03  0.86599857705E+02 0.  0.
         11    1    3    3    0    0  0.79075788686E+02  0.26623118850E+03  0.17988569765E+03  0.33089407717E+03  0.00000000000E+00 0. -1.
        -11    1    3    3    0    0 -0.12313042012E+02  0.23347571116E+03  0.14919322283E+03  0.27734659984E+03  0.00000000000E+00 0.  1.
         22    1    1    2    0    0 -0.66762746674E+02 -0.49970689966E+03 -0.16358536555E+04  0.17117772729E+04  0.00000000000E+00 0.  1.
<mgrwt>
<rscale>  0 0.19169828E+04</rscale>
<asrwt>0</asrwt>
<pdfrwt beam="1">  1        2 0.27898405E+00 0.19169828E+04</pdfrwt>
<pdfrwt beam="2">  1       -2 0.77941787E-01 0.19169828E+04</pdfrwt>
<totfact> 0.11626046E+01</totfact>
</mgrwt>
</event>
<event>
 6    1  0.5196787E-004  0.3230909E+04  0.7818608E-02  0.8180701E-01
         -1   -1    0    0    0  501 -0.00000000000E+00  0.00000000000E+00  0.20320057480E+04  0.20320057480E+04  0.00000000000E+00 0.  1.
          1   -1    0    0  501    0  0.00000000000E+00 -0.00000000000E+00 -0.12842944892E+04  0.12842944892E+04  0.00000000000E+00 0. -1.
         23    2    1    2    0    0  0.58671165522E+03  0.40847440019E+03 -0.11114993704E+04  0.13243800417E+04  0.86427671699E+02 0.  0.
         13    1    3    3    0    0  0.39233526777E+03  0.29889379482E+03 -0.82566670373E+03  0.96176398798E+03  0.00000000000E+00 0. -1.
        -13    1    3    3    0    0  0.19437638745E+03  0.10958060537E+03 -0.28583266663E+03  0.36261605368E+03  0.00000000000E+00 0.  1.
         22    1    1    2    0    0 -0.58671165522E+03 -0.40847440019E+03  0.18592106291E+04  0.19919201956E+04  0.00000000000E+00 0.  1.
<mgrwt>
<rscale>  0 0.32309093E+04</rscale>
<asrwt>0</asrwt>
<pdfrwt beam="1">  1        1 0.19758377E+00 0.32309093E+04</pdfrwt>
<pdfrwt beam="2">  1       -1 0.31261627E+00 0.32309093E+04</pdfrwt>
<totfact> 0.21176844E-01</totfact>
</mgrwt>
</event>
<event>
 6    1  0.5196787E-004  0.2316687E+04  0.7818608E-02  0.8471371E-01
          2   -1    0    0  501    0  0.00000000000E+00  0.00000000000E+00  0.72317749096E+03  0.72317749096E+03  0.00000000000E+00 0.  1.
         -2   -1    0    0    0  501 -0.00000000000E+00 -0.00000000000E+00 -0.18553663831E+04  0.18553663831E+04  0.00000000000E+00 0. -1.
         23    2    1    2    0    0 -0.88845058338E+03  0.67888215563E+03 -0.89586315915E+03  0.14357073712E+04  0.91975188843E+02 0.  0.
         11    1    3    3    0    0 -0.42401978719E+03  0.36736461809E+03 -0.48762375442E+03  0.74332124175E+03  0.00000000000E+00 0.  1.
        -11    1    3    3    0    0 -0.46443079619E+03  0.31151753754E+03 -0.40823940473E+03  0.69238612942E+03  0.00000000000E+00 0. -1.
         22    1    1    2    0    0  0.88845058338E+03 -0.67888215563E+03 -0.23632573303E+03  0.11428365029E+04  0.00000000000E+00 0.  1.
<mgrwt>
<rscale>  0 0.23166866E+04</rscale>
<asrwt>0</asrwt>
<pdfrwt beam="1">  1        2 0.11125808E+00 0.23166866E+04</pdfrwt>
<pdfrwt beam="2">  1       -2 0.28544098E+00 0.23166866E+04</pdfrwt>
<totfact> 0.13885768E+00</totfact>
</mgrwt>
</event>
<event>
 6    1  0.5196787E-004  0.6237409E+03  0.7818608E-02  0.9857340E-01
         -2   -1    0    0    0  501 -0.00000000000E+00  0.00000000000E+00  0.15622427703E+03  0.15622427703E+03  0.00000000000E+00 0. -1.
          2   -1    0    0  501    0  0.00000000000E+00 -0.00000000000E+00 -0.62258682376E+03  0.62258682376E+03  0.00000000000E+00 0.  1.
         23    2    1    2    0    0 -0.77233752390E+02  0.19714873294E+03  0.36901498686E+02  0.23281899937E+03  0.89500225997E+02 0.  0.
         11    1    3    3    0    0 -0.76741075478E+02  0.10538118145E+03 -0.80923747810E+01  0.13061344724E+03  0.00000000000E+00 0. -1.
        -11    1    3    3    0    0 -0.49267691154E+00  0.91767551491E+02  0.44993873467E+02  0.10220555213E+03  0.00000000000E+00 0.  1.
         22    1    1    2    0    0  0.77233752390E+02 -0.19714873294E+03 -0.50326404542E+03  0.54599210142E+03  0.00000000000E+00 0.  1.
<mgrwt>
<rscale>  0 0.62374090E+03</rscale>
<asrwt>0</asrwt>
<pdfrwt beam="1">  1        2 0.95782591E-01 0.62374090E+03</pdfrwt>
<pdfrwt beam="2">  1       -2 0.24034504E-01 0.62374090E+03</pdfrwt>
<totfact> 0.73358054E+02</totfact>
</mgrwt>
</event>
<event>
 6    1  0.5196787E-004  0.5603670E+03  0.7818608E-02  0.9991225E-01
         -2   -1    0    0    0  501 -0.00000000000E+00  0.00000000000E+00  0.13242892127E+03  0.13242892127E+03  0.00000000000E+00 0. -1.
          2   -1    0    0  501    0  0.00000000000E+00 -0.00000000000E+00 -0.59279190181E+03  0.59279190181E+03  0.00000000000E+00 0.  1.
         23    2    1    2    0    0  0.15815813776E+03  0.55715403351E+02 -0.51467124066E+03  0.54896081677E+03  0.91396332936E+02 0.  0.
         11    1    3    3    0    0  0.45983450062E+02  0.62770873324E+02 -0.18675067405E+03  0.20231281342E+03  0.00000000000E+00 0. -1.
        -11    1    3    3    0    0  0.11217468769E+03 -0.70554699732E+01 -0.32792056661E+03  0.34664800334E+03  0.00000000000E+00 0.  1.
         22    1    1    2    0    0 -0.15815813776E+03 -0.55715403351E+02  0.54308260111E+02  0.17626000631E+03  0.00000000000E+00 0. -1.
<mgrwt>
<rscale>  0 0.56036699E+03</rscale>
<asrwt>0</asrwt>
<pdfrwt beam="1">  1        2 0.91198757E-01 0.56036699E+03</pdfrwt>
<pdfrwt beam="2">  1       -2 0.20373680E-01 0.56036699E+03</pdfrwt>
<totfact> 0.10428541E+03</totfact>
</mgrwt>
</event>
<event>
 6    1  0.5196787E-004  0.1773119E+04  0.7818608E-02  0.8720727E-01
         -2   -1    0    0    0  501 -0.00000000000E+00  0.00000000000E+00  0.39900827993E+03  0.39900827993E+03  0.00000000000E+00 0. -1.
          2   -1    0    0  501    0  0.00000000000E+00 -0.00000000000E+00 -0.19698532509E+04  0.19698532509E+04  0.00000000000E+00 0.  1.
         23    2    1    2    0    0  0.54280836840E+03 -0.70208812851E+02  0.14038641657E+03  0.57223049918E+03  0.90383604876E+02 0.  0.
         11    1    3    3    0    0  0.37582516481E+03 -0.11908603892E+02  0.73452838671E+02  0.38312098463E+03  0.00000000000E+00 0. -1.
        -11    1    3    3    0    0  0.16698320359E+03 -0.58300208959E+02  0.66933577897E+02  0.18910951455E+03  0.00000000000E+00 0.  1.
         22    1    1    2    0    0 -0.54280836840E+03  0.70208812851E+02 -0.17112313875E+04  0.17966310316E+04  0.00000000000E+00 0.  1.
<mgrwt>
<rscale>  0 0.17731190E+04</rscale>
<asrwt>0</asrwt>
<pdfrwt beam="1">  1        2 0.30305434E+00 0.17731190E+04</pdfrwt>
<pdfrwt beam="2">  1       -2 0.61385890E-01 0.17731190E+04</pdfrwt>
<totfact> 0.16210631E+01</totfact>
</mgrwt>
</event>
<event>
 6    1  0.5196787E-004  0.3978750E+04  0.7818608E-02  0.8008847E-01
          2   -1    0    0  501    0  0.00000000000E+00  0.00000000000E+00  0.27168070534E+04  0.27168070534E+04  0.00000000000E+00 0.  1.
         -2   -1    0    0    0  501 -0.00000000000E+00 -0.00000000000E+00 -0.14567148012E+04  0.14567148012E+04  0.00000000000E+00 0. -1.
         23    2    1    2    0    0  0.16108095319E+04 -0.54186122637E+03 -0.45208535163E+03  0.17610805427E+04  0.93287598636E+02 0.  0.
         11    1    3    3    0    0  0.11162875858E+04 -0.32976339877E+03 -0.30832212253E+03  0.12041197634E+04  0.00000000000E+00 0. -1.
        -11    1    3    3    0    0  0.49452194612E+03 -0.21209782760E+03 -0.14376322911E+03  0.55696077933E+03  0.00000000000E+00 0.  1.
         22    1    1    2    0    0 -0.16108095319E+04  0.54186122637E+03  0.17121776038E+04  0.24124413120E+04  0.00000000000E+00 0.  1.
<mgrwt>
<rscale>  0 0.39787501E+04</rscale>
<asrwt>0</asrwt>
<pdfrwt beam="1">  1        2 0.41797032E+00 0.39787501E+04</pdfrwt>
<pdfrwt beam="2">  1       -2 0.22410997E+00 0.39787501E+04</pdfrwt>
<totfact> 0.19086617E-01</totfact>
</mgrwt>
</event>
<event>
 6    1  0.5196787E-004  0.2006881E+04  0.7818608E-02  0.8603410E-01
          2   -1    0    0  501    0  0.00000000000E+00  0.00000000000E+00  0.19383601027E+04  0.19383601027E+04  0.00000000000E+00 0.  1.
         -2   -1    0    0    0  501 -0.00000000000E+00 -0.00000000000E+00 -0.51945603882E+03  0.51945603882E+03  0.00000000000E+00 0. -1.
         23    2    1    2    0    0 -0.70119520288E+02 -0.54217690741E+03  0.17384650123E+04  0.18245770510E+04  0.89153070565E+02 0.  0.
         11    1    3    3    0    0  0.83201666926E+01 -0.28119256706E+03  0.89866352720E+03  0.94166587496E+03  0.00000000000E+00 0.  1.
        -11    1    3    3    0    0 -0.78439686980E+02 -0.26098434036E+03  0.83980148509E+03  0.88291117603E+03  0.00000000000E+00 0. -1.
         22    1    1    2    0    0  0.70119520288E+02  0.54217690741E+03 -0.31956094840E+03  0.63323909055E+03  0.00000000000E+00 0. -1.
<mgrwt>
<rscale>  0 0.20068810E+04</rscale>
<asrwt>0</asrwt>
<pdfrwt beam="1">  1        2 0.29820924E+00 0.20068810E+04</pdfrwt>
<pdfrwt beam="2">  1       -2 0.79916315E-01 0.20068810E+04</pdfrwt>
<totfact> 0.93008465E+00</totfact>
</mgrwt>
</event>
<event>
 6    1  0.5196787E-004  0.2076573E+04  0.7818608E-02  0.8571634E-01
          2   -1    0    0  501    0  0.00000000000E+00  0.00000000000E+00  0.65671640610E+03  0.65671640610E+03  0.00000000000E+00 0.  1.
         -2   -1    0    0    0  501 -0.00000000000E+00 -0.00000000000E+00 -0.16415592199E+04  0.16415592199E+04  0.00000000000E+00 0. -1.
         23    2    1    2    0    0 -0.93288584666E+03  0.42737554285E+03 -0.65361215271E+03  0.12200179535E+04  0.91154281990E+02 0.  0.
         13    1    3    3    0    0 -0.38706599803E+03  0.22703483144E+03 -0.28471382623E+03  0.53143848596E+03  0.00000000000E+00 0. -1.
        -13    1    3    3    0    0 -0.54581984863E+03  0.20034071141E+03 -0.36889832648E+03  0.68857946752E+03  0.00000000000E+00 0.  1.
         22    1    1    2    0    0  0.93288584666E+03 -0.42737554285E+03 -0.33123066110E+03  0.10782576725E+04  0.00000000000E+00 0.  1.
<mgrwt>
<rscale>  0 0.20765730E+04</rscale>
<asrwt>0</asrwt>
<pdfrwt beam="1">  1        2 0.10103329E+00 0.20765730E+04</pdfrwt>
<pdfrwt beam="2">  1       -2 0.25254757E+00 0.20765730E+04</pdfrwt>
<totfact> 0.25401965E+00</totfact>
</mgrwt>
</event>
<event>
 6    1  0.5196787E-004  0.3266805E+04  0.7818608E-02  0.8171393E-01
         -2   -1    0    0    0  501 -0.00000000000E+00  0.00000000000E+00  0.19147038067E+04  0.19147038067E+04  0.00000000000E+00 0. -1.
          2   -1    0    0  501    0  0.00000000000E+00 -0.00000000000E+00 -0.13934293207E+04  0.13934293207E+04  0.00000000000E+00 0.  1.
         23    2    1    2    0    0  0.84679784966E+03 -0.25897495312E+03 -0.11278717932E+04  0.14362842887E+04  0.81750543815E+02 0.  0.
         13    1    3    3    0    0  0.19968243383E+03 -0.80059506626E+02 -0.32395225339E+03  0.38888000907E+03  0.00000000000E+00 0.  1.
        -13    1    3    3    0    0  0.64711541583E+03 -0.17891544649E+03 -0.80391953983E+03  0.10474042796E+04  0.00000000000E+00 0. -1.
         22    1    1    2    0    0 -0.84679784966E+03  0.25897495312E+03  0.16491462793E+04  0.18718488387E+04  0.00000000000E+00 0. -1.
<mgrwt>
<rscale>  0 0.32668054E+04</rscale>
<asrwt>0</asrwt>
<pdfrwt beam="1">  1        2 0.21437374E+00 0.32668054E+04</pdfrwt>
<pdfrwt beam="2">  1       -2 0.29456982E+00 0.32668054E+04</pdfrwt>
<totfact> 0.41938208E-01</totfact>
</mgrwt>
</event>
<event>
 6    1  0.5196787E-004  0.1269279E+04  0.7818608E-02  0.9054289E-01
          2   -1    0    0  501    0  0.00000000000E+00  0.00000000000E+00  0.12960080577E+03  0.12960080577E+03  0.00000000000E+00 0.  1.
         -2   -1    0    0    0  501 -0.00000000000E+00 -0.00000000000E+00 -0.31077508480E+04  0.31077508480E+04  0.00000000000E+00 0. -1.
         23    2    1    2    0    0 -0.27368086531E+03  0.44306951559E+03 -0.24072224696E+04  0.24645838329E+04  0.90783478166E+02 0.  0.
         11    1    3    3    0    0 -0.16459245909E+03  0.18057340077E+03 -0.10972715720E+04  0.11241451567E+04  0.00000000000E+00 0. -1.
        -11    1    3    3    0    0 -0.10908840622E+03  0.26249611482E+03 -0.13099508976E+04  0.13404386763E+04  0.00000000000E+00 0.  1.
         22    1    1    2    0    0  0.27368086531E+03 -0.44306951559E+03 -0.57092757263E+03  0.77276782080E+03  0.00000000000E+00 0.  1.
<mgrwt>
<rscale>  0 0.12692786E+04</rscale>
<asrwt>0</asrwt>
<pdfrwt beam="1">  1        2 0.19938588E-01 0.12692786E+04</pdfrwt>
<pdfrwt beam="2">  1       -2 0.47811546E+00 0.12692786E+04</pdfrwt>
<totfact> 0.64597095E-01</totfact>
</mgrwt>
</event>
<event>
 6    1  0.5196787E-004  0.3358026E+04  0.7818608E-02  0.8148286E-01
          2   -1    0    0  501    0  0.00000000000E+00  0.00000000000E+00  0.14176118138E+04  0.14176118138E+04  0.00000000000E+00 0.  1.
         -2   -1    0    0    0  501 -0.00000000000E+00 -0.00000000000E+00 -0.19886152454E+04  0.19886152454E+04  0.00000000000E+00 0. -1.
         23    2    1    2    0    0 -0.15802132361E+04 -0.56326062420E+03 -0.26157589073E+03  0.17003308709E+04  0.91469784884E+02 0.  0.
         13    1    3    3    0    0 -0.30786590214E+03 -0.11668459413E+03 -0.15366541243E+02  0.32959496173E+03  0.00000000000E+00 0.  1.
        -13    1    3    3    0    0 -0.12723473339E+04 -0.44657603008E+03 -0.24620934949E+03  0.13707359091E+04  0.00000000000E+00 0. -1.
         22    1    1    2    0    0  0.15802132361E+04  0.56326062420E+03 -0.30942754090E+03  0.17058961883E+04  0.00000000000E+00 0. -1.
<mgrwt>
<rscale>  0 0.33580259E+04</rscale>
<asrwt>0</asrwt>
<pdfrwt beam="1">  1        2 0.21809413E+00 0.33580259E+04</pdfrwt>
<pdfrwt beam="2">  1       -2 0.30594081E+00 0.33580259E+04</pdfrwt>
<totfact> 0.34345366E-01</totfact>
</mgrwt>
</event>
<event>
 6    1  0.5196787E-004  0.2436952E+04  0.7818608E-02  0.8425797E-01
         -2   -1    0    0    0  501 -0.00000000000E+00  0.00000000000E+00  0.46589698364E+03  0.46589698364E+03  0.00000000000E+00 0.  1.
          2   -1    0    0  501    0  0.00000000000E+00 -0.00000000000E+00 -0.31867211225E+04  0.31867211225E+04  0.00000000000E+00 0. -1.
         23    2    1    2    0    0 -0.10017332997E+04 -0.56565290275E+03 -0.19559052600E+04  0.22711212001E+04  0.94833060324E+02 0.  0.
         11    1    3    3    0    0 -0.57623169785E+03 -0.37871103951E+03 -0.11635001824E+04  0.13524783531E+04  0.00000000000E+00 0. -1.
        -11    1    3    3    0    0 -0.42550160187E+03 -0.18694186324E+03 -0.79240507755E+03  0.91864284701E+03  0.00000000000E+00 0.  1.
         22    1    1    2    0    0  0.10017332997E+04  0.56565290275E+03 -0.76491887887E+03  0.13814969060E+04  0.00000000000E+00 0. -1.
<mgrwt>
<rscale>  0 0.24369520E+04</rscale>
<asrwt>0</asrwt>
<pdfrwt beam="1">  1        2 0.49026480E+00 0.24369520E+04</pdfrwt>
<pdfrwt beam="2">  1       -2 0.71676457E-01 0.24369520E+04</pdfrwt>
<totfact> 0.20947291E+00</totfact>
</mgrwt>
</event>
<event>
 6    1  0.5196787E-004  0.2366987E+04  0.7818608E-02  0.8451967E-01
         -2   -1    0    0    0  501 -0.00000000000E+00  0.00000000000E+00  0.65842045023E+03  0.65842045023E+03  0.00000000000E+00 0. -1.
          2   -1    0    0  501    0  0.00000000000E+00 -0.00000000000E+00 -0.21272988022E+04  0.21272988022E+04  0.00000000000E+00 0.  1.
         23    2    1    2    0    0  0.24246778633E+03  0.11306917196E+04 -0.10217334820E+04  0.15458834057E+04  0.92530013604E+02 0.  0.
         13    1    3    3    0    0  0.39303220723E+02  0.12616841798E+03 -0.82830091063E+02  0.15596165183E+03  0.00000000000E+00 0. -1.
        -13    1    3    3    0    0  0.20316456561E+03  0.10045233016E+04 -0.93890339095E+03  0.13899217538E+04  0.00000000000E+00 0.  1.
         22    1    1    2    0    0 -0.24246778633E+03 -0.11306917196E+04 -0.44714486996E+03  0.12398358468E+04  0.00000000000E+00 0. -1.
<mgrwt>
<rscale>  0 0.23669871E+04</rscale>
<asrwt>0</asrwt>
<pdfrwt beam="1">  1        2 0.32727674E+00 0.23669871E+04</pdfrwt>
<pdfrwt beam="2">  1       -2 0.10129545E+00 0.23669871E+04</pdfrwt>
<totfact> 0.40970629E+00</totfact>
</mgrwt>
</event>
<event>
 6    1  0.5196787E-004  0.1438581E+04  0.7818608E-02  0.8926355E-01
         -2   -1    0    0    0  501 -0.00000000000E+00  0.00000000000E+00  0.18918157243E+03  0.18918157243E+03  0.00000000000E+00 0. -1.
          2   -1    0    0  501    0  0.00000000000E+00 -0.00000000000E+00 -0.27348281058E+04  0.27348281058E+04  0.00000000000E+00 0.  1.
         23    2    1    2    0    0  0.25120815615E+03  0.53182821961E+03 -0.21091773975E+04  0.21915807742E+04  0.91924984991E+02 0.  0.
         11    1    3    3    0    0  0.13852360141E+03  0.24968839836E+03 -0.11771724602E+04  0.12113084188E+04  0.00000000000E+00 0. -1.
        -11    1    3    3    0    0  0.11268455474E+03  0.28213982125E+03 -0.93200493735E+03  0.98027235545E+03  0.00000000000E+00 0.  1.
         22    1    1    2    0    0 -0.25120815615E+03 -0.53182821961E+03 -0.43646913588E+03  0.73242890403E+03  0.00000000000E+00 0. -1.
<mgrwt>
<rscale>  0 0.14385814E+04</rscale>
<asrwt>0</asrwt>
<pdfrwt beam="1">  1        2 0.42074275E+00 0.14385814E+04</pdfrwt>
<pdfrwt beam="2">  1       -2 0.29104859E-01 0.14385814E+04</pdfrwt>
<totfact> 0.26800925E+01</totfact>
</mgrwt>
</event>
<event>
 6    1  0.5196787E-004  0.2608084E+04  0.7818608E-02  0.8365460E-01
          2   -1    0    0  501    0  0.00000000000E+00  0.00000000000E+00  0.15032542902E+04  0.15032542902E+04  0.00000000000E+00 0.  1.
         -2   -1    0    0    0  501 -0.00000000000E+00 -0.00000000000E+00 -0.11312297289E+04  0.11312297289E+04  0.00000000000E+00 0. -1.
         23    2    1    2    0    0  0.10272233705E+04  0.80034648978E+03  0.15767228294E+03  0.13147532679E+04  0.89293056707E+02 0.  0.
         11    1    3    3    0    0  0.23822837298E+03  0.23217985483E+03  0.53083595886E+02  0.33686512261E+03  0.00000000000E+00 0. -1.
        -11    1    3    3    0    0  0.78899499752E+03  0.56816663495E+03  0.10458868705E+03  0.97788814526E+03  0.00000000000E+00 0.  1.
         22    1    1    2    0    0 -0.10272233705E+04 -0.80034648978E+03  0.21435227833E+03  0.13197307513E+04  0.00000000000E+00 0.  1.
<mgrwt>
<rscale>  0 0.26080843E+04</rscale>
<asrwt>0</asrwt>
<pdfrwt beam="1">  1        2 0.23126989E+00 0.26080843E+04</pdfrwt>
<pdfrwt beam="2">  1       -2 0.17403534E+00 0.26080843E+04</pdfrwt>
<totfact> 0.22302816E+00</totfact>
</mgrwt>
</event>
<event>
 6    1  0.5196787E-004  0.2826887E+04  0.7818608E-02  0.8294969E-01
          2   -1    0    0  501    0  0.00000000000E+00  0.00000000000E+00  0.75566311329E+03  0.75566311329E+03  0.00000000000E+00 0.  1.
         -2   -1    0    0    0  501 -0.00000000000E+00 -0.00000000000E+00 -0.26438003599E+04  0.26438003599E+04  0.00000000000E+00 0. -1.
         23    2    1    2    0    0  0.62397260485E+02  0.55795910126E+03  0.61297376697E+03  0.83611252588E+03  0.90197229160E+02 0.  0.
         11    1    3    3    0    0  0.20306634240E+02  0.40795122133E+03  0.39522577158E+03  0.56836605185E+03  0.00000000000E+00 0.  1.
        -11    1    3    3    0    0  0.42090626245E+02  0.15000787994E+03  0.21774799539E+03  0.26774647403E+03  0.00000000000E+00 0. -1.
         22    1    1    2    0    0 -0.62397260485E+02 -0.55795910126E+03 -0.25011110136E+04  0.25633509473E+04  0.00000000000E+00 0. -1.
<mgrwt>
<rscale>  0 0.28268869E+04</rscale>
<asrwt>0</asrwt>
<pdfrwt beam="1">  1        2 0.11625586E+00 0.28268869E+04</pdfrwt>
<pdfrwt beam="2">  1       -2 0.40673851E+00 0.28268869E+04</pdfrwt>
<totfact> 0.21604874E-01</totfact>
</mgrwt>
</event>
<event>
 6    1  0.5196787E-004  0.1949222E+04  0.7818608E-02  0.8630736E-01
          2   -1    0    0  501    0  0.00000000000E+00  0.00000000000E+00  0.60970211947E+03  0.60970211947E+03  0.00000000000E+00 0.  1.
         -2   -1    0    0    0  501 -0.00000000000E+00 -0.00000000000E+00 -0.15579184581E+04  0.15579184581E+04  0.00000000000E+00 0. -1.
         23    2    1    2    0    0  0.28453723164E+03  0.90785062337E+03 -0.25245350640E+03  0.98896027483E+03  0.95684177089E+02 0.  0.
         11    1    3    3    0    0  0.26050423431E+03  0.69910102337E+03 -0.19535505128E+03  0.77121222308E+03  0.00000000000E+00 0. -1.
        -11    1    3    3    0    0  0.24032997332E+02  0.20874960000E+03 -0.57098455125E+02  0.21774805175E+03  0.00000000000E+00 0.  1.
         22    1    1    2    0    0 -0.28453723164E+03 -0.90785062337E+03 -0.69576283223E+03  0.11786603027E+04  0.00000000000E+00 0. -1.
<mgrwt>
<rscale>  0 0.19492216E+04</rscale>
<asrwt>0</asrwt>
<pdfrwt beam="1">  1        2 0.93800326E-01 0.19492216E+04</pdfrwt>
<pdfrwt beam="2">  1       -2 0.23967976E+00 0.19492216E+04</pdfrwt>
<totfact> 0.33753150E+00</totfact>
</mgrwt>
</event>
<event>
 6    1  0.5196787E-004  0.7863471E+03  0.7818608E-02  0.9579992E-01
         -4   -1    0    0    0  501 -0.00000000000E+00  0.00000000000E+00  0.20301909350E+03  0.20301909350E+03  0.00000000000E+00 0. -1.
          4   -1    0    0  501    0  0.00000000000E+00 -0.00000000000E+00 -0.76143291814E+03  0.76143291814E+03  0.00000000000E+00 0.  1.
         23    2    1    2    0    0  0.38233755630E+02  0.14395484377E+03 -0.72255202551E+03  0.74280777846E+03  0.86586078883E+02 0.  0.
         13    1    3    3    0    0 -0.16607752118E+02  0.72989011777E+02 -0.44125493369E+03  0.44755907965E+03  0.00000000000E+00 0.  1.
        -13    1    3    3    0    0  0.54841507749E+02  0.70965831995E+02 -0.28129709182E+03  0.29524869881E+03  0.00000000000E+00 0. -1.
         22    1    1    2    0    0 -0.38233755630E+02 -0.14395484377E+03  0.16413820087E+03  0.22164423318E+03  0.00000000000E+00 0. -1.
<mgrwt>
<rscale>  0 0.78634705E+03</rscale>
<asrwt>0</asrwt>
<pdfrwt beam="1">  1        4 0.11714352E+00 0.78634705E+03</pdfrwt>
<pdfrwt beam="2">  1       -4 0.31233707E-01 0.78634705E+03</pdfrwt>
<totfact> 0.11130164E+01</totfact>
</mgrwt>
</event>
<event>
 6    1  0.5196787E-004  0.1878456E+04  0.7818608E-02  0.8665655E-01
         -2   -1    0    0    0  501 -0.00000000000E+00  0.00000000000E+00  0.14580447392E+04  0.14580447392E+04  0.00000000000E+00 0. -1.
          2   -1    0    0  501    0  0.00000000000E+00 -0.00000000000E+00 -0.60502188322E+03  0.60502188322E+03  0.00000000000E+00 0.  1.
         23    2    1    2    0    0  0.24010889314E+03 -0.11864915334E+02 -0.56682187758E+03  0.62301380249E+03  0.95216072246E+02 0.  0.
         11    1    3    3    0    0  0.17592451699E+03  0.41250257744E+01 -0.29714024167E+03  0.34533863776E+03  0.00000000000E+00 0.  1.
        -11    1    3    3    0    0  0.64184376149E+02 -0.15989941108E+02 -0.26968163591E+03  0.27767516473E+03  0.00000000000E+00 0. -1.
         22    1    1    2    0    0 -0.24010889314E+03  0.11864915334E+02  0.14198447335E+04  0.14400528199E+04  0.00000000000E+00 0. -1.
<mgrwt>
<rscale>  0 0.18784557E+04</rscale>
<asrwt>0</asrwt>
<pdfrwt beam="1">  1        2 0.93080290E-01 0.18784557E+04</pdfrwt>
<pdfrwt beam="2">  1       -2 0.22431457E+00 0.18784557E+04</pdfrwt>
<totfact> 0.42730168E+00</totfact>
</mgrwt>
</event>
<event>
 6    1  0.5196787E-004  0.3337872E+04  0.7818608E-02  0.8153325E-01
         -2   -1    0    0    0  501 -0.00000000000E+00  0.00000000000E+00  0.12409581063E+04  0.12409581063E+04  0.00000000000E+00 0.  1.
          2   -1    0    0  501    0  0.00000000000E+00 -0.00000000000E+00 -0.22445136502E+04  0.22445136502E+04  0.00000000000E+00 0. -1.
         23    2    1    2    0    0 -0.11940497981E+04 -0.11342485940E+04 -0.22907742678E+03  0.16655566081E+04  0.96579263511E+02 0.  0.
         11    1    3    3    0    0 -0.46055750770E+03 -0.48872810823E+03 -0.63530068246E+02  0.67454017763E+03  0.00000000000E+00 0.  1.
        -11    1    3    3    0    0 -0.73349229036E+03 -0.64552048580E+03 -0.16554735853E+03  0.99101643050E+03  0.00000000000E+00 0. -1.
         22    1    1    2    0    0  0.11940497981E+04  0.11342485940E+04 -0.77447811718E+03  0.18199151484E+04  0.00000000000E+00 0. -1.
<mgrwt>
<rscale>  0 0.33378720E+04</rscale>
<asrwt>0</asrwt>
<pdfrwt beam="1">  1        2 0.34530979E+00 0.33378720E+04</pdfrwt>
<pdfrwt beam="2">  1       -2 0.19091663E+00 0.33378720E+04</pdfrwt>
<totfact> 0.62016597E-01</totfact>
</mgrwt>
</event>
<event>
 6    1  0.5196787E-004  0.1299110E+04  0.7818608E-02  0.9030271E-01
         -2   -1    0    0    0  501 -0.00000000000E+00  0.00000000000E+00  0.18870849780E+03  0.18870849780E+03  0.00000000000E+00 0. -1.
          2   -1    0    0  501    0  0.00000000000E+00 -0.00000000000E+00 -0.22358395055E+04  0.22358395055E+04  0.00000000000E+00 0.  1.
         23    2    1    2    0    0  0.30283898797E+03  0.52563638876E+03 -0.14429987216E+04  0.15684049750E+04  0.98202795958E+02 0.  0.
         13    1    3    3    0    0  0.22441253582E+03  0.31161073270E+03 -0.97340458579E+03  0.10464123100E+04  0.00000000000E+00 0.  1.
        -13    1    3    3    0    0  0.78426452149E+02  0.21402565606E+03 -0.46959413582E+03  0.52199266493E+03  0.00000000000E+00 0. -1.
         22    1    1    2    0    0 -0.30283898797E+03 -0.52563638876E+03 -0.60413228607E+03  0.85614302829E+03  0.00000000000E+00 0. -1.
<mgrwt>
<rscale>  0 0.12991103E+04</rscale>
<asrwt>0</asrwt>
<pdfrwt beam="1">  1        2 0.34397528E+00 0.12991103E+04</pdfrwt>
<pdfrwt beam="2">  1       -2 0.29032079E-01 0.12991103E+04</pdfrwt>
<totfact> 0.52794193E+01</totfact>
</mgrwt>
</event>
<event>
 6    1  0.5196787E-004  0.4904068E+04  0.7818608E-02  0.7843478E-01
         -2   -1    0    0    0  501 -0.00000000000E+00  0.00000000000E+00  0.13936112079E+04  0.13936112079E+04  0.00000000000E+00 0. -1.
          2   -1    0    0  501    0  0.00000000000E+00 -0.00000000000E+00 -0.43143103233E+04  0.43143103233E+04  0.00000000000E+00 0.  1.
         23    2    1    2    0    0  0.11427890964E+04 -0.38675639485E+03  0.10226337333E+04  0.15841585186E+04  0.90725034184E+02 0.  0.
         13    1    3    3    0    0  0.82632703182E+03 -0.32184652517E+03  0.74515451291E+03  0.11582990967E+04  0.00000000000E+00 0. -1.
        -13    1    3    3    0    0  0.31646206458E+03 -0.64909869684E+02  0.27747922038E+03  0.42585942193E+03  0.00000000000E+00 0.  1.
         22    1    1    2    0    0 -0.11427890964E+04  0.38675639485E+03 -0.39433328487E+04  0.41237630126E+04  0.00000000000E+00 0.  1.
<mgrwt>
<rscale>  0 0.49040682E+04</rscale>
<asrwt>0</asrwt>
<pdfrwt beam="1">  1        2 0.66374004E+00 0.49040682E+04</pdfrwt>
<pdfrwt beam="2">  1       -2 0.21440173E+00 0.49040682E+04</pdfrwt>
<totfact> 0.14384332E-02</totfact>
</mgrwt>
</event>
<event>
 6    1  0.5196787E-004  0.1069251E+04  0.7818608E-02  0.9235691E-01
          2   -1    0    0  501    0  0.00000000000E+00  0.00000000000E+00  0.32889108165E+04  0.32889108165E+04  0.00000000000E+00 0.  1.
         -2   -1    0    0    0  501 -0.00000000000E+00 -0.00000000000E+00 -0.86905461556E+02  0.86905461556E+02  0.00000000000E+00 0. -1.
         23    2    1    2    0    0 -0.24102892622E+03 -0.40033443083E+03  0.24072660885E+04  0.24538764203E+04  0.90646925889E+02 0.  0.
         11    1    3    3    0    0 -0.14548486833E+03 -0.17801635392E+03  0.13344035020E+04  0.13540636526E+04  0.00000000000E+00 0. -1.
        -11    1    3    3    0    0 -0.95544057884E+02 -0.22231807692E+03  0.10728625865E+04  0.10998127676E+04  0.00000000000E+00 0.  1.
         22    1    1    2    0    0  0.24102892622E+03  0.40033443083E+03  0.79473926635E+03  0.92193985773E+03  0.00000000000E+00 0. -1.
<mgrwt>
<rscale>  0 0.10692508E+04</rscale>
<asrwt>0</asrwt>
<pdfrwt beam="1">  1        2 0.50598618E+00 0.10692508E+04</pdfrwt>
<pdfrwt beam="2">  1       -2 0.13370074E-01 0.10692508E+04</pdfrwt>
<totfact> 0.49381806E+01</totfact>
</mgrwt>
</event>
<event>
 6    1  0.5196787E-004  0.2359406E+04  0.7818608E-02  0.8454860E-01
         -2   -1    0    0    0  501 -0.00000000000E+00  0.00000000000E+00  0.71322380703E+03  0.71322380703E+03  0.00000000000E+00 0. -1.
          2   -1    0    0  501    0  0.00000000000E+00 -0.00000000000E+00 -0.19512799039E+04  0.19512799039E+04  0.00000000000E+00 0.  1.
         23    2    1    2    0    0 -0.85451048413E+02  0.98866465298E+02 -0.19420157953E+04  0.19485178755E+04  0.90664780810E+02 0.  0.
         11    1    3    3    0    0 -0.64877029421E+02  0.11238890751E+03 -0.17697769158E+04  0.17745282830E+04  0.00000000000E+00 0.  1.
        -11    1    3    3    0    0 -0.20574018991E+02 -0.13522442212E+02 -0.17223887950E+03  0.17398959254E+03  0.00000000000E+00 0. -1.
         22    1    1    2    0    0  0.85451048413E+02 -0.98866465298E+02  0.70395969837E+03  0.71598583545E+03  0.00000000000E+00 0. -1.
<mgrwt>
<rscale>  0 0.23594061E+04</rscale>
<asrwt>0</asrwt>
<pdfrwt beam="1">  1        2 0.30019691E+00 0.23594061E+04</pdfrwt>
<pdfrwt beam="2">  1       -2 0.10972674E+00 0.23594061E+04</pdfrwt>
<totfact> 0.42408751E+00</totfact>
</mgrwt>
</event>
<event>
 6    1  0.5196787E-004  0.3615283E+04  0.7818608E-02  0.8087000E-01
          2   -1    0    0  501    0  0.00000000000E+00  0.00000000000E+00  0.30309446067E+04  0.30309446067E+04  0.00000000000E+00 0. -1.
         -2   -1    0    0    0  501 -0.00000000000E+00 -0.00000000000E+00 -0.10780688553E+04  0.10780688553E+04  0.00000000000E+00 0.  1.
         23    2    1    2    0    0  0.96776290286E+03  0.67467499890E+02  0.27089789647E+04  0.28790504670E+04  0.96164759581E+02 0.  0.
         11    1    3    3    0    0  0.70348921029E+03  0.56731148909E+02  0.20892885164E+04  0.22052759457E+04  0.00000000000E+00 0. -1.
        -11    1    3    3    0    0  0.26427369258E+03  0.10736350981E+02  0.61969044833E+03  0.67377452131E+03  0.00000000000E+00 0.  1.
         22    1    1    2    0    0 -0.96776290286E+03 -0.67467499890E+02 -0.75610321331E+03  0.12299629949E+04  0.00000000000E+00 0.  1.
<mgrwt>
<rscale>  0 0.36152826E+04</rscale>
<asrwt>0</asrwt>
<pdfrwt beam="1">  1        2 0.46629917E+00 0.36152826E+04</pdfrwt>
<pdfrwt beam="2">  1       -2 0.16585675E+00 0.36152826E+04</pdfrwt>
<totfact> 0.30906960E-01</totfact>
</mgrwt>
</event>
<event>
 6    1  0.5196787E-004  0.3292752E+04  0.7818608E-02  0.8164742E-01
          2   -1    0    0  501    0  0.00000000000E+00  0.00000000000E+00  0.22201394328E+04  0.22201394328E+04  0.00000000000E+00 0.  1.
         -2   -1    0    0    0  501 -0.00000000000E+00 -0.00000000000E+00 -0.12208932734E+04  0.12208932734E+04  0.00000000000E+00 0. -1.
         23    2    1    2    0    0  0.96653966666E+01  0.15833082559E+04  0.96668037197E+03  0.18573600812E+04  0.91417047417E+02 0.  0.
         13    1    3    3    0    0  0.38972039352E+02  0.35444710440E+03  0.20571784652E+03  0.41166904431E+03  0.00000000000E+00 0. -1.
        -13    1    3    3    0    0 -0.29306642685E+02  0.12288611515E+04  0.76096252546E+03  0.14456910368E+04  0.00000000000E+00 0.  1.
         22    1    1    2    0    0 -0.96653966666E+01 -0.15833082559E+04  0.32565787427E+02  0.15836726251E+04  0.00000000000E+00 0. -1.
<mgrwt>
<rscale>  0 0.32927516E+04</rscale>
<asrwt>0</asrwt>
<pdfrwt beam="1">  1        2 0.34155991E+00 0.32927516E+04</pdfrwt>
<pdfrwt beam="2">  1       -2 0.18782973E+00 0.32927516E+04</pdfrwt>
<totfact> 0.67395286E-01</totfact>
</mgrwt>
</event>
<event>
 6    1  0.5196787E-004  0.2999256E+04  0.7818608E-02  0.8243943E-01
         -1   -1    0    0    0  501 -0.00000000000E+00  0.00000000000E+00  0.14707402199E+04  0.14707402199E+04  0.00000000000E+00 0.  1.
          1   -1    0    0  501    0  0.00000000000E+00 -0.00000000000E+00 -0.15290827918E+04  0.15290827918E+04  0.00000000000E+00 0. -1.
         23    2    1    2    0    0  0.14647158818E+04  0.51409726678E+02  0.28206229517E+03  0.14951931409E+04  0.89486400127E+02 0.  0.
         13    1    3    3    0    0  0.48535818652E+03  0.59037548058E+02  0.89881022982E+02  0.49712835324E+03  0.00000000000E+00 0. -1.
        -13    1    3    3    0    0  0.97935769531E+03 -0.76278213803E+01  0.19218127218E+03  0.99806478768E+03  0.00000000000E+00 0.  1.
         22    1    1    2    0    0 -0.14647158818E+04 -0.51409726678E+02 -0.34040486711E+03  0.15046298708E+04  0.00000000000E+00 0.  1.
<mgrwt>
<rscale>  0 0.29992556E+04</rscale>
<asrwt>0</asrwt>
<pdfrwt beam="1">  1        1 0.23524351E+00 0.29992556E+04</pdfrwt>
<pdfrwt beam="2">  1       -1 0.22626772E+00 0.29992556E+04</pdfrwt>
<totfact> 0.53121917E-01</totfact>
</mgrwt>
</event>
<event>
 6    1  0.5196787E-004  0.2150219E+04  0.7818608E-02  0.8539439E-01
          2   -1    0    0  501    0  0.00000000000E+00  0.00000000000E+00  0.24801873158E+04  0.24801873158E+04  0.00000000000E+00 0.  1.
         -2   -1    0    0    0  501 -0.00000000000E+00 -0.00000000000E+00 -0.46603747250E+03  0.46603747250E+03  0.00000000000E+00 0. -1.
         23    2    1    2    0    0  0.45373216015E+03  0.17803114593E+03  0.23189718934E+04  0.23713470237E+04  0.89933875825E+02 0.  0.
         11    1    3    3    0    0  0.23705983853E+03  0.13217046411E+03  0.11516057640E+04  0.11831577386E+04  0.00000000000E+00 0. -1.
        -11    1    3    3    0    0  0.21667232162E+03  0.45860681825E+02  0.11673661294E+04  0.11881892851E+04  0.00000000000E+00 0.  1.
         22    1    1    2    0    0 -0.45373216015E+03 -0.17803114593E+03 -0.30482205011E+03  0.57487776467E+03  0.00000000000E+00 0. -1.
<mgrwt>
<rscale>  0 0.21502188E+04</rscale>
<asrwt>0</asrwt>
<pdfrwt beam="1">  1        2 0.38156727E+00 0.21502188E+04</pdfrwt>
<pdfrwt beam="2">  1       -2 0.71698074E-01 0.21502188E+04</pdfrwt>
<totfact> 0.57869491E+00</totfact>
</mgrwt>
</event>
<event>
 6    1  0.5196787E-004  0.3175937E+04  0.7818608E-02  0.8195201E-01
         -2   -1    0    0    0  501 -0.00000000000E+00  0.00000000000E+00  0.21959808705E+04  0.21959808705E+04  0.00000000000E+00 0. -1.
          2   -1    0    0  501    0  0.00000000000E+00 -0.00000000000E+00 -0.11482992399E+04  0.11482992399E+04  0.00000000000E+00 0.  1.
         23    2    1    2    0    0  0.67394215491E+03  0.12398861724E+04 -0.23950312693E+03  0.14342119576E+04  0.89924649860E+02 0.  0.
         11    1    3    3    0    0  0.51112310474E+03  0.94911061982E+03 -0.22122534967E+03  0.11004537483E+04  0.00000000000E+00 0. -1.
        -11    1    3    3    0    0  0.16281905017E+03  0.29077555260E+03 -0.18277777258E+02  0.33375820923E+03  0.00000000000E+00 0.  1.
         22    1    1    2    0    0 -0.67394215491E+03 -0.12398861724E+04  0.12871847575E+04  0.19100681529E+04  0.00000000000E+00 0.  1.
<mgrwt>
<rscale>  0 0.31759365E+04</rscale>
<asrwt>0</asrwt>
<pdfrwt beam="1">  1        2 0.17666142E+00 0.31759365E+04</pdfrwt>
<pdfrwt beam="2">  1       -2 0.33784321E+00 0.31759365E+04</pdfrwt>
<totfact> 0.31839091E-01</totfact>
</mgrwt>
</event>
<event>
 6    1  0.5196787E-004  0.1240486E+04  0.7818608E-02  0.9078139E-01
          2   -1    0    0  501    0  0.00000000000E+00  0.00000000000E+00  0.12004095020E+04  0.12004095020E+04  0.00000000000E+00 0.  1.
         -2   -1    0    0    0  501 -0.00000000000E+00 -0.00000000000E+00 -0.32047509808E+03  0.32047509808E+03  0.00000000000E+00 0. -1.
         23    2    1    2    0    0  0.41714273346E+03  0.12040492075E+03  0.97966666624E+03  0.10754051627E+04  0.90796927066E+02 0.  0.
         11    1    3    3    0    0  0.73790546480E+02  0.19149795205E+02  0.27013413414E+03  0.28068525047E+03  0.00000000000E+00 0.  1.
        -11    1    3    3    0    0  0.34335218698E+03  0.10125512555E+03  0.70953253210E+03  0.79471991221E+03  0.00000000000E+00 0. -1.
         22    1    1    2    0    0 -0.41714273346E+03 -0.12040492075E+03 -0.99732262287E+02  0.44547943742E+03  0.00000000000E+00 0. -1.
<mgrwt>
<rscale>  0 0.12404860E+04</rscale>
<asrwt>0</asrwt>
<pdfrwt beam="1">  1        2 0.18467838E+00 0.12404860E+04</pdfrwt>
<pdfrwt beam="2">  1       -2 0.49303862E-01 0.12404860E+04</pdfrwt>
<totfact> 0.72524336E+01</totfact>
</mgrwt>
</event>
<event>
 6    1  0.5196787E-004  0.2311740E+04  0.7818608E-02  0.8473307E-01
         -1   -1    0    0    0  501 -0.00000000000E+00  0.00000000000E+00  0.95515866743E+03  0.95515866743E+03  0.00000000000E+00 0. -1.
          1   -1    0    0  501    0  0.00000000000E+00 -0.00000000000E+00 -0.13987577220E+04  0.13987577220E+04  0.00000000000E+00 0.  1.
         23    2    1    2    0    0 -0.56802747644E+03 -0.20754786079E+03  0.77886611861E+03  0.99004233801E+03  0.88431170028E+02 0.  0.
         11    1    3    3    0    0 -0.37323095868E+03 -0.96845932678E+02  0.52599745346E+03  0.65219153953E+03  0.00000000000E+00 0.  1.
        -11    1    3    3    0    0 -0.19479651776E+03 -0.11070192811E+03  0.25286866515E+03  0.33785079848E+03  0.00000000000E+00 0. -1.
         22    1    1    2    0    0  0.56802747644E+03  0.20754786079E+03 -0.12224651732E+04  0.13638740514E+04  0.00000000000E+00 0.  1.
<mgrwt>
<rscale>  0 0.23117401E+04</rscale>
<asrwt>0</asrwt>
<pdfrwt beam="1">  1        1 0.21519349E+00 0.23117401E+04</pdfrwt>
<pdfrwt beam="2">  1       -1 0.14694749E+00 0.23117401E+04</pdfrwt>
<totfact> 0.25632715E+00</totfact>
</mgrwt>
</event>
<event>
 6    1  0.5196787E-004  0.1687085E+04  0.7818608E-02  0.8768765E-01
         -2   -1    0    0    0  501 -0.00000000000E+00  0.00000000000E+00  0.35309068901E+03  0.35309068901E+03  0.00000000000E+00 0. -1.
          2   -1    0    0  501    0  0.00000000000E+00 -0.00000000000E+00 -0.20152440249E+04  0.20152440249E+04  0.00000000000E+00 0.  1.
         23    2    1    2    0    0 -0.23697933305E+03  0.24068463219E+03 -0.19148311376E+04  0.19465120404E+04  0.90788442010E+02 0.  0.
         11    1    3    3    0    0 -0.33755097272E+02  0.23241514463E+02 -0.44289998358E+03  0.44479205258E+03  0.00000000000E+00 0.  1.
        -11    1    3    3    0    0 -0.20322423578E+03  0.21744311772E+03 -0.14719311541E+04  0.15017199878E+04  0.00000000000E+00 0. -1.
         22    1    1    2    0    0  0.23697933305E+03 -0.24068463219E+03  0.25267780171E+03  0.42182267357E+03  0.00000000000E+00 0. -1.
<mgrwt>
<rscale>  0 0.16870849E+04</rscale>
<asrwt>0</asrwt>
<pdfrwt beam="1">  1        2 0.31003753E+00 0.16870849E+04</pdfrwt>
<pdfrwt beam="2">  1       -2 0.54321646E-01 0.16870849E+04</pdfrwt>
<totfact> 0.19912372E+01</totfact>
</mgrwt>
</event>
<event>
 6    1  0.8040121E-004  0.3675087E+04  0.7818608E-02  0.8073505E-01
          2   -1    0    0  501    0  0.00000000000E+00  0.00000000000E+00  0.20972144682E+04  0.20972144682E+04  0.00000000000E+00 0.  1.
         -2   -1    0    0    0  501 -0.00000000000E+00 -0.00000000000E+00 -0.16100245987E+04  0.16100245987E+04  0.00000000000E+00 0. -1.
         23    2    1    2    0    0 -0.10777591489E+02  0.16810977727E+04  0.98944214887E+03  0.19526840720E+04  0.88167120154E+02 0.  0.
         13    1    3    3    0    0 -0.49084021621E+02  0.89546205633E+03  0.51840065409E+03  0.10358575065E+04  0.00000000000E+00 0.  1.
        -13    1    3    3    0    0  0.38306430132E+02  0.78563571640E+03  0.47104149477E+03  0.91682656554E+03  0.00000000000E+00 0. -1.
         22    1    1    2    0    0  0.10777591489E+02 -0.16810977727E+04 -0.50225227936E+03  0.17545549949E+04  0.00000000000E+00 0. -1.
<mgrwt>
<rscale>  0 0.36750874E+04</rscale>
<asrwt>0</asrwt>
<pdfrwt beam="1">  1        2 0.32264838E+00 0.36750874E+04</pdfrwt>
<pdfrwt beam="2">  1       -2 0.24769609E+00 0.36750874E+04</pdfrwt>
<totfact> 0.31718685E-01</totfact>
</mgrwt>
</event>
<event>
 6    1  0.5196787E-004  0.1583861E+04  0.7818608E-02  0.8830525E-01
         -2   -1    0    0    0  501 -0.00000000000E+00  0.00000000000E+00  0.21079643805E+03  0.21079643805E+03  0.00000000000E+00 0. -1.
          2   -1    0    0  501    0  0.00000000000E+00 -0.00000000000E+00 -0.29751632543E+04  0.29751632543E+04  0.00000000000E+00 0.  1.
         23    2    1    2    0    0  0.70361896714E+03 -0.30140421077E+02 -0.66557884776E+03  0.97216226877E+03  0.78205999425E+02 0.  0.
         13    1    3    3    0    0  0.38437008130E+02 -0.72785943993E+00 -0.15029260407E+02  0.41277258166E+02  0.00000000000E+00 0. -1.
        -13    1    3    3    0    0  0.66518195901E+03 -0.29412561637E+02 -0.65054958735E+03  0.93088501061E+03  0.00000000000E+00 0.  1.
         22    1    1    2    0    0 -0.70361896714E+03  0.30140421077E+02 -0.20987879685E+04  0.22137974236E+04  0.00000000000E+00 0.  1.
<mgrwt>
<rscale>  0 0.15838609E+04</rscale>
<asrwt>0</asrwt>
<pdfrwt beam="1">  1        2 0.45771743E+00 0.15838609E+04</pdfrwt>
<pdfrwt beam="2">  1       -2 0.32430221E-01 0.15838609E+04</pdfrwt>
<totfact> 0.15438221E+01</totfact>
</mgrwt>
</event>
<event>
 6    1  0.5196787E-004  0.4166254E+04  0.7818608E-02  0.7971823E-01
          2   -1    0    0  501    0  0.00000000000E+00  0.00000000000E+00  0.16146220922E+04  0.16146220922E+04  0.00000000000E+00 0. -1.
         -2   -1    0    0    0  501 -0.00000000000E+00 -0.00000000000E+00 -0.26875747813E+04  0.26875747813E+04  0.00000000000E+00 0.  1.
         23    2    1    2    0    0  0.51575220086E+03 -0.65689729542E+01 -0.26198018549E+04  0.26716185020E+04  0.90222932187E+02 0.  0.
         13    1    3    3    0    0  0.14006722291E+03 -0.34353172219E+02 -0.85259576036E+03  0.86470717469E+03  0.00000000000E+00 0.  1.
        -13    1    3    3    0    0  0.37568497795E+03  0.27784199265E+02 -0.17672060945E+04  0.18069113273E+04  0.00000000000E+00 0. -1.
         22    1    1    2    0    0 -0.51575220086E+03  0.65689729542E+01  0.15468491658E+04  0.16305783715E+04  0.00000000000E+00 0. -1.
<mgrwt>
<rscale>  0 0.41662538E+04</rscale>
<asrwt>0</asrwt>
<pdfrwt beam="1">  1        2 0.24840340E+00 0.41662538E+04</pdfrwt>
<pdfrwt beam="2">  1       -2 0.41347304E+00 0.41662538E+04</pdfrwt>
<totfact> 0.51564237E-02</totfact>
</mgrwt>
</event>
<event>
 6    1  0.5196787E-004  0.4837898E+04  0.7818608E-02  0.7854011E-01
         -2   -1    0    0    0  501 -0.00000000000E+00  0.00000000000E+00  0.24214107421E+04  0.24214107421E+04  0.00000000000E+00 0. -1.
          2   -1    0    0  501    0  0.00000000000E+00 -0.00000000000E+00 -0.24164897069E+04  0.24164897069E+04  0.00000000000E+00 0.  1.
         23    2    1    2    0    0 -0.13754200551E+03  0.19973308157E+04  0.13585667167E+04  0.24211661190E+04  0.89964778677E+02 0.  0.
         11    1    3    3    0    0 -0.71639262526E+01  0.72726885934E+03  0.50048246549E+03  0.88286692874E+03  0.00000000000E+00 0. -1.
        -11    1    3    3    0    0 -0.13037807926E+03  0.12700619564E+04  0.85808425118E+03  0.15382991902E+04  0.00000000000E+00 0.  1.
         22    1    1    2    0    0  0.13754200551E+03 -0.19973308157E+04 -0.13536456815E+04  0.24167343300E+04  0.00000000000E+00 0.  1.
<mgrwt>
<rscale>  0 0.48378979E+04</rscale>
<asrwt>0</asrwt>
<pdfrwt beam="1">  1        2 0.37176764E+00 0.48378979E+04</pdfrwt>
<pdfrwt beam="2">  1       -2 0.37252473E+00 0.48378979E+04</pdfrwt>
<totfact> 0.32091179E-02</totfact>
</mgrwt>
</event>
<event>
 6    1  0.5196787E-004  0.2208219E+04  0.7818608E-02  0.8515015E-01
         -2   -1    0    0    0  501 -0.00000000000E+00  0.00000000000E+00  0.46946299478E+03  0.46946299478E+03  0.00000000000E+00 0. -1.
          2   -1    0    0  501    0  0.00000000000E+00 -0.00000000000E+00 -0.25967067726E+04  0.25967067726E+04  0.00000000000E+00 0.  1.
         23    2    1    2    0    0  0.88541306846E+03 -0.72650839261E+02 -0.19713724815E+04  0.21642106179E+04  0.90904849161E+02 0.  0.
         11    1    3    3    0    0  0.78970345928E+02 -0.32205684791E+02 -0.20495576519E+03  0.22199186326E+03  0.00000000000E+00 0.  1.
        -11    1    3    3    0    0  0.80644272253E+03 -0.40445154471E+02 -0.17664167163E+04  0.19422187547E+04  0.00000000000E+00 0. -1.
         22    1    1    2    0    0 -0.88541306846E+03  0.72650839261E+02 -0.15587129629E+03  0.90195914944E+03  0.00000000000E+00 0.  1.
<mgrwt>
<rscale>  0 0.22082190E+04</rscale>
<asrwt>0</asrwt>
<pdfrwt beam="1">  1        2 0.39949336E+00 0.22082190E+04</pdfrwt>
<pdfrwt beam="2">  1       -2 0.72225074E-01 0.22082190E+04</pdfrwt>
<totfact> 0.48471112E+00</totfact>
</mgrwt>
</event>
<event>
 6    1  0.5196787E-004  0.1474964E+04  0.7818608E-02  0.8901274E-01
         -2   -1    0    0    0  501 -0.00000000000E+00  0.00000000000E+00  0.68210607258E+03  0.68210607258E+03  0.00000000000E+00 0. -1.
          2   -1    0    0  501    0  0.00000000000E+00 -0.00000000000E+00 -0.79735373406E+03  0.79735373406E+03  0.00000000000E+00 0.  1.
         23    2    1    2    0    0 -0.46940064311E+03 -0.24075885289E+03 -0.57068520066E+03  0.78251996627E+03  0.91400822487E+02 0.  0.
         11    1    3    3    0    0 -0.23277274236E+03 -0.17054764076E+03 -0.31032270903E+03  0.42375680655E+03  0.00000000000E+00 0. -1.
        -11    1    3    3    0    0 -0.23662790075E+03 -0.70211212131E+02 -0.26036249163E+03  0.35876315972E+03  0.00000000000E+00 0.  1.
         22    1    1    2    0    0  0.46940064311E+03  0.24075885289E+03  0.45543753918E+03  0.69693984037E+03  0.00000000000E+00 0. -1.
<mgrwt>
<rscale>  0 0.14749642E+04</rscale>
<asrwt>0</asrwt>
<pdfrwt beam="1">  1        2 0.12266981E+00 0.14749642E+04</pdfrwt>
<pdfrwt beam="2">  1       -2 0.10493940E+00 0.14749642E+04</pdfrwt>
<totfact> 0.24656962E+01</totfact>
</mgrwt>
</event>
<event>
 6    1  0.5196787E-004  0.2074808E+04  0.7818608E-02  0.8572422E-01
         -2   -1    0    0    0  501 -0.00000000000E+00  0.00000000000E+00  0.64278207355E+03  0.64278207355E+03  0.00000000000E+00 0. -1.
          2   -1    0    0  501    0  0.00000000000E+00 -0.00000000000E+00 -0.16742957551E+04  0.16742957551E+04  0.00000000000E+00 0.  1.
         23    2    1    2    0    0 -0.22263927922E+03 -0.75258887696E+03 -0.12708691598E+04  0.14965601193E+04  0.92873585490E+02 0.  0.
         13    1    3    3    0    0 -0.21882458622E+03 -0.62215739757E+03 -0.10759695884E+04  0.12620121164E+04  0.00000000000E+00 0. -1.
        -13    1    3    3    0    0 -0.38146930014E+01 -0.13043147939E+03 -0.19489957141E+03  0.23454800283E+03  0.00000000000E+00 0.  1.
         22    1    1    2    0    0  0.22263927922E+03  0.75258887696E+03  0.23935547827E+03  0.82051770935E+03  0.00000000000E+00 0. -1.
<mgrwt>
<rscale>  0 0.20748082E+04</rscale>
<asrwt>0</asrwt>
<pdfrwt beam="1">  1        2 0.25758397E+00 0.20748082E+04</pdfrwt>
<pdfrwt beam="2">  1       -2 0.98889548E-01 0.20748082E+04</pdfrwt>
<totfact> 0.79385172E+00</totfact>
</mgrwt>
</event>
<event>
 6    1  0.5196787E-004  0.2407244E+04  0.7818608E-02  0.8436796E-01
          2   -1    0    0  501    0  0.00000000000E+00  0.00000000000E+00  0.36057824714E+04  0.36057824714E+04  0.00000000000E+00 0.  1.
         -2   -1    0    0    0  501 -0.00000000000E+00 -0.00000000000E+00 -0.40177303354E+03  0.40177303354E+03  0.00000000000E+00 0. -1.
         23    2    1    2    0    0 -0.21118867267E+03  0.75869786561E+03  0.92508188735E+02  0.79793510214E+03  0.88991884507E+02 0.  0.
         11    1    3    3    0    0 -0.15266978967E+03  0.44213051542E+03  0.88114926447E+02  0.47597447159E+03  0.00000000000E+00 0.  1.
        -11    1    3    3    0    0 -0.58518883001E+02  0.31656735019E+03  0.43932622872E+01  0.32196063056E+03  0.00000000000E+00 0. -1.
         22    1    1    2    0    0  0.21118867267E+03 -0.75869786561E+03  0.31115012491E+04  0.32096204028E+04  0.00000000000E+00 0.  1.
<mgrwt>
<rscale>  0 0.24072442E+04</rscale>
<asrwt>0</asrwt>
<pdfrwt beam="1">  1        2 0.55473575E+00 0.24072442E+04</pdfrwt>
<pdfrwt beam="2">  1       -2 0.61811238E-01 0.24072442E+04</pdfrwt>
<totfact> 0.14977440E+00</totfact>
</mgrwt>
</event>
<event>
 6    1  0.5196787E-004  0.1441196E+04  0.7818608E-02  0.8924527E-01
          2   -1    0    0  501    0  0.00000000000E+00  0.00000000000E+00  0.19297693796E+04  0.19297693796E+04  0.00000000000E+00 0.  1.
         -2   -1    0    0    0  501 -0.00000000000E+00 -0.00000000000E+00 -0.26907967250E+03  0.26907967250E+03  0.00000000000E+00 0. -1.
         23    2    1    2    0    0  0.68806471602E+03  0.19543695910E+03  0.89218725262E+03  0.11489801646E+04  0.11193152595E+03 0.  0.
         11    1    3    3    0    0  0.61817871512E+03  0.20574581790E+03  0.77876321895E+03  0.10153563003E+04  0.00000000000E+00 0. -1.
        -11    1    3    3    0    0  0.69886000899E+02 -0.10308858805E+02  0.11342403368E+03  0.13362386429E+03  0.00000000000E+00 0.  1.
         22    1    1    2    0    0 -0.68806471602E+03 -0.19543695910E+03  0.76850245450E+03  0.10498688875E+04  0.00000000000E+00 0. -1.
<mgrwt>
<rscale>  0 0.14411963E+04</rscale>
<asrwt>0</asrwt>
<pdfrwt beam="1">  1        2 0.29688759E+00 0.14411963E+04</pdfrwt>
<pdfrwt beam="2">  1       -2 0.41396874E-01 0.14411963E+04</pdfrwt>
<totfact> 0.39225744E+01</totfact>
</mgrwt>
</event>
<event>
 6    1  0.5196787E-004  0.3654745E+04  0.7818608E-02  0.8078066E-01
         -2   -1    0    0    0  501 -0.00000000000E+00  0.00000000000E+00  0.12311727592E+04  0.12311727592E+04  0.00000000000E+00 0. -1.
          2   -1    0    0  501    0  0.00000000000E+00 -0.00000000000E+00 -0.27122834270E+04  0.27122834270E+04  0.00000000000E+00 0.  1.
         23    2    1    2    0    0 -0.72891714695E+03 -0.53054861258E+03 -0.24546386920E+04  0.26165956617E+04  0.92302282006E+02 0.  0.
         13    1    3    3    0    0 -0.51544471989E+03 -0.32314275069E+03 -0.16779429115E+04  0.17848240559E+04  0.00000000000E+00 0.  1.
        -13    1    3    3    0    0 -0.21347242706E+03 -0.20740586189E+03 -0.77669578057E+03  0.83177160580E+03  0.00000000000E+00 0. -1.
         22    1    1    2    0    0  0.72891714695E+03  0.53054861258E+03  0.97352802424E+03  0.13268605245E+04  0.00000000000E+00 0. -1.
<mgrwt>
<rscale>  0 0.36547446E+04</rscale>
<asrwt>0</asrwt>
<pdfrwt beam="1">  1        2 0.41727437E+00 0.36547446E+04</pdfrwt>
<pdfrwt beam="2">  1       -2 0.18941119E+00 0.36547446E+04</pdfrwt>
<totfact> 0.33130277E-01</totfact>
</mgrwt>
</event>
<event>
 6    1  0.5196787E-004  0.2501392E+04  0.7818608E-02  0.8402490E-01
          2   -1    0    0  501    0  0.00000000000E+00  0.00000000000E+00  0.93606950763E+03  0.93606950763E+03  0.00000000000E+00 0. -1.
         -2   -1    0    0    0  501 -0.00000000000E+00 -0.00000000000E+00 -0.16710736454E+04  0.16710736454E+04  0.00000000000E+00 0.  1.
         23    2    1    2    0    0  0.94898892529E+03  0.80508408462E+03 -0.47824799765E+03  0.13364488235E+04  0.92919033918E+02 0.  0.
         11    1    3    3    0    0  0.49825612743E+03  0.43518284440E+03 -0.20552015822E+03  0.69273502295E+03  0.00000000000E+00 0. -1.
        -11    1    3    3    0    0  0.45073279787E+03  0.36990124022E+03 -0.27272783943E+03  0.64371380052E+03  0.00000000000E+00 0.  1.
         22    1    1    2    0    0 -0.94898892529E+03 -0.80508408462E+03 -0.25675614010E+03  0.12706943295E+04  0.00000000000E+00 0. -1.
<mgrwt>
<rscale>  0 0.25013925E+04</rscale>
<asrwt>0</asrwt>
<pdfrwt beam="1">  1        2 0.14401069E+00 0.25013925E+04</pdfrwt>
<pdfrwt beam="2">  1       -2 0.25708825E+00 0.25013925E+04</pdfrwt>
<totfact> 0.14375257E+00</totfact>
</mgrwt>
</event>
<event>
 6    1  0.5196787E-004  0.3660701E+04  0.7818608E-02  0.8076727E-01
         -2   -1    0    0    0  501 -0.00000000000E+00  0.00000000000E+00  0.25495236527E+04  0.25495236527E+04  0.00000000000E+00 0. -1.
          2   -1    0    0  501    0  0.00000000000E+00 -0.00000000000E+00 -0.13140425937E+04  0.13140425937E+04  0.00000000000E+00 0.  1.
         23    2    1    2    0    0  0.52968869157E+03  0.86612636818E+03 -0.98781239858E+03  0.14194347455E+04  0.90976185511E+02 0.  0.
         11    1    3    3    0    0  0.10021319153E+03  0.13242611243E+03 -0.12245628330E+03  0.20633686129E+03  0.00000000000E+00 0. -1.
        -11    1    3    3    0    0  0.42947550004E+03  0.73370025574E+03 -0.86535611528E+03  0.12130978842E+04  0.00000000000E+00 0.  1.
         22    1    1    2    0    0 -0.52968869157E+03 -0.86612636818E+03  0.22232934575E+04  0.24441315010E+04  0.00000000000E+00 0. -1.
<mgrwt>
<rscale>  0 0.36607008E+04</rscale>
<asrwt>0</asrwt>
<pdfrwt beam="1">  1        2 0.20216040E+00 0.36607008E+04</pdfrwt>
<pdfrwt beam="2">  1       -2 0.39223441E+00 0.36607008E+04</pdfrwt>
<totfact> 0.10966155E-01</totfact>
</mgrwt>
</event>
<event>
 6    1  0.5196787E-004  0.2067719E+04  0.7818608E-02  0.8575598E-01
          2   -1    0    0  501    0  0.00000000000E+00  0.00000000000E+00  0.20384539960E+04  0.20384539960E+04  0.00000000000E+00 0.  1.
         -2   -1    0    0    0  501 -0.00000000000E+00 -0.00000000000E+00 -0.52435092812E+03  0.52435092812E+03  0.00000000000E+00 0. -1.
         23    2    1    2    0    0  0.37329755392E+02  0.79179076093E+03  0.15772882528E+04  0.17676203623E+04  0.91199742188E+02 0.  0.
         11    1    3    3    0    0  0.38588674992E+01  0.57379550647E+03  0.12108336754E+04  0.13399158047E+04  0.00000000000E+00 0.  1.
        -11    1    3    3    0    0  0.33470887893E+02  0.21799525447E+03  0.36645457740E+03  0.42770455761E+03  0.00000000000E+00 0. -1.
         22    1    1    2    0    0 -0.37329755392E+02 -0.79179076093E+03 -0.63185184972E+02  0.79518456181E+03  0.00000000000E+00 0. -1.
<mgrwt>
<rscale>  0 0.20677188E+04</rscale>
<asrwt>0</asrwt>
<pdfrwt beam="1">  1        2 0.31360830E+00 0.20677188E+04</pdfrwt>
<pdfrwt beam="2">  1       -2 0.80669375E-01 0.20677188E+04</pdfrwt>
<totfact> 0.79708372E+00</totfact>
</mgrwt>
</event>
<event>
 6    1  0.5196787E-004  0.1887322E+04  0.7818608E-02  0.8661193E-01
          2   -1    0    0  501    0  0.00000000000E+00  0.00000000000E+00  0.11762474228E+04  0.11762474228E+04  0.00000000000E+00 0.  1.
         -2   -1    0    0    0  501 -0.00000000000E+00 -0.00000000000E+00 -0.75706520750E+03  0.75706520750E+03  0.00000000000E+00 0. -1.
         23    2    1    2    0    0 -0.33955686851E+03  0.85003243746E+03  0.43592706228E+03  0.10178158245E+04  0.89792189093E+02 0.  0.
         13    1    3    3    0    0 -0.12743826753E+03  0.37564497405E+03  0.14552317679E+03  0.42252414552E+03  0.00000000000E+00 0. -1.
        -13    1    3    3    0    0 -0.21211860098E+03  0.47438746341E+03  0.29040388549E+03  0.59529167895E+03  0.00000000000E+00 0.  1.
         22    1    1    2    0    0  0.33955686851E+03 -0.85003243746E+03 -0.16744846941E+02  0.91549680588E+03  0.00000000000E+00 0. -1.
<mgrwt>
<rscale>  0 0.18873219E+04</rscale>
<asrwt>0</asrwt>
<pdfrwt beam="1">  1        2 0.18096114E+00 0.18873219E+04</pdfrwt>
<pdfrwt beam="2">  1       -2 0.11647157E+00 0.18873219E+04</pdfrwt>
<totfact> 0.10490440E+01</totfact>
</mgrwt>
</event>
<event>
 6    1  0.5196787E-004  0.3001658E+04  0.7818608E-02  0.8243258E-01
          2   -1    0    0  501    0  0.00000000000E+00  0.00000000000E+00  0.11723680284E+04  0.11723680284E+04  0.00000000000E+00 0.  1.
         -2   -1    0    0    0  501 -0.00000000000E+00 -0.00000000000E+00 -0.19213145691E+04  0.19213145691E+04  0.00000000000E+00 0. -1.
         23    2    1    2    0    0  0.93633809172E+03 -0.58390967304E+02 -0.15801040924E+04  0.18403026062E+04  0.99228082523E+02 0.  0.
         13    1    3    3    0    0  0.79424950830E+03 -0.83198073975E+02 -0.13149529232E+04  0.15384587714E+04  0.00000000000E+00 0.  1.
        -13    1    3    3    0    0  0.14208858341E+03  0.24807106671E+02 -0.26515116915E+03  0.30184383475E+03  0.00000000000E+00 0. -1.
         22    1    1    2    0    0 -0.93633809172E+03  0.58390967304E+02  0.83115755169E+03  0.12533799914E+04  0.00000000000E+00 0.  1.
<mgrwt>
<rscale>  0 0.30016581E+04</rscale>
<asrwt>0</asrwt>
<pdfrwt beam="1">  1        2 0.18036431E+00 0.30016581E+04</pdfrwt>
<pdfrwt beam="2">  1       -2 0.29558686E+00 0.30016581E+04</pdfrwt>
<totfact> 0.56965085E-01</totfact>
</mgrwt>
</event>
<event>
 6    1  0.5196787E-004  0.6382428E+03  0.7818608E-02  0.9829094E-01
         -2   -1    0    0    0  501 -0.00000000000E+00  0.00000000000E+00  0.86675818752E+02  0.86675818752E+02  0.00000000000E+00 0. -1.
          2   -1    0    0  501    0  0.00000000000E+00 -0.00000000000E+00 -0.11749353117E+04  0.11749353117E+04  0.00000000000E+00 0.  1.
         23    2    1    2    0    0 -0.61454058839E+02 -0.26480146831E+03 -0.86027651974E+03  0.90682576572E+03  0.91437738317E+02 0.  0.
         11    1    3    3    0    0 -0.64611428458E+02 -0.26281525084E+03 -0.76475773358E+03  0.81123417324E+03  0.00000000000E+00 0. -1.
        -11    1    3    3    0    0  0.31573696189E+01 -0.19862174618E+01 -0.95518786161E+02  0.95591592478E+02  0.00000000000E+00 0.  1.
         22    1    1    2    0    0  0.61454058839E+02  0.26480146831E+03 -0.22798297324E+03  0.35478536476E+03  0.00000000000E+00 0. -1.
<mgrwt>
<rscale>  0 0.63824284E+03</rscale>
<asrwt>0</asrwt>
<pdfrwt beam="1">  1        2 0.18075928E+00 0.63824284E+03</pdfrwt>
<pdfrwt beam="2">  1       -2 0.13334741E-01 0.63824284E+03</pdfrwt>
<totfact> 0.84634495E+02</totfact>
</mgrwt>
</event>
<event>
 6    1  0.5196787E-004  0.3789596E+04  0.7818608E-02  0.8048391E-01
          2   -1    0    0  501    0  0.00000000000E+00  0.00000000000E+00  0.18882921103E+04  0.18882921103E+04  0.00000000000E+00 0.  1.
         -2   -1    0    0    0  501 -0.00000000000E+00 -0.00000000000E+00 -0.19013265603E+04  0.19013265603E+04  0.00000000000E+00 0. -1.
         23    2    1    2    0    0 -0.18393770901E+04  0.22685846441E+03  0.38275513833E+03  0.18945138606E+04  0.88929352190E+02 0.  0.
         11    1    3    3    0    0 -0.71872948203E+03  0.46763155109E+02  0.13607921970E+03  0.73299141540E+03  0.00000000000E+00 0.  1.
        -11    1    3    3    0    0 -0.11206476081E+04  0.18009530930E+03  0.24667591863E+03  0.11615224452E+04  0.00000000000E+00 0. -1.
         22    1    1    2    0    0  0.18393770901E+04 -0.22685846441E+03 -0.39578958835E+03  0.18951048099E+04  0.00000000000E+00 0. -1.
<mgrwt>
<rscale>  0 0.37895963E+04</rscale>
<asrwt>0</asrwt>
<pdfrwt beam="1">  1        2 0.29050648E+00 0.37895963E+04</pdfrwt>
<pdfrwt beam="2">  1       -2 0.29251178E+00 0.37895963E+04</pdfrwt>
<totfact> 0.21847203E-01</totfact>
</mgrwt>
</event>
<event>
 6    1  0.5196787E-004  0.1808872E+04  0.7818608E-02  0.8701596E-01
          2   -1    0    0  501    0  0.00000000000E+00  0.00000000000E+00  0.53363646677E+04  0.53363646677E+04  0.00000000000E+00 0.  1.
         -2   -1    0    0    0  501 -0.00000000000E+00 -0.00000000000E+00 -0.15328863342E+03  0.15328863342E+03  0.00000000000E+00 0. -1.
         23    2    1    2    0    0  0.20380632771E+03  0.47311292054E+03  0.48457495254E+04  0.48738919607E+04  0.90341167120E+02 0.  0.
         11    1    3    3    0    0  0.67060367474E+02  0.18470671830E+03  0.22574302007E+04  0.22659666316E+04  0.00000000000E+00 0. -1.
        -11    1    3    3    0    0  0.13674596024E+03  0.28840620225E+03  0.25883193247E+04  0.26079253290E+04  0.00000000000E+00 0.  1.
         22    1    1    2    0    0 -0.20380632771E+03 -0.47311292054E+03  0.33732650887E+03  0.61576134044E+03  0.00000000000E+00 0. -1.
<mgrwt>
<rscale>  0 0.18088715E+04</rscale>
<asrwt>0</asrwt>
<pdfrwt beam="1">  1        2 0.82097903E+00 0.18088715E+04</pdfrwt>
<pdfrwt beam="2">  1       -2 0.23582871E-01 0.18088715E+04</pdfrwt>
<totfact> 0.17955792E-01</totfact>
</mgrwt>
</event>
<event>
 6    1  0.5196787E-004  0.4057769E+04  0.7818608E-02  0.7992993E-01
          2   -1    0    0  501    0  0.00000000000E+00  0.00000000000E+00  0.43454063177E+04  0.43454063177E+04  0.00000000000E+00 0.  1.
         -2   -1    0    0    0  501 -0.00000000000E+00 -0.00000000000E+00 -0.94729268816E+03  0.94729268816E+03  0.00000000000E+00 0. -1.
         23    2    1    2    0    0  0.16800554518E+04 -0.86364408830E+03  0.26617222933E+04  0.32652031039E+04  0.91204771204E+02 0.  0.
         13    1    3    3    0    0  0.15812735389E+04 -0.83597764868E+03  0.25183248816E+04  0.30888905521E+04  0.00000000000E+00 0. -1.
        -13    1    3    3    0    0  0.98781912954E+02 -0.27666439617E+02  0.14339741177E+03  0.17631255176E+03  0.00000000000E+00 0.  1.
         22    1    1    2    0    0 -0.16800554518E+04  0.86364408830E+03  0.73639133617E+03  0.20274959020E+04  0.00000000000E+00 0. -1.
<mgrwt>
<rscale>  0 0.40577687E+04</rscale>
<asrwt>0</asrwt>
<pdfrwt beam="1">  1        2 0.66852404E+00 0.40577687E+04</pdfrwt>
<pdfrwt beam="2">  1       -2 0.14573734E+00 0.40577687E+04</pdfrwt>
<totfact> 0.43525524E-02</totfact>
</mgrwt>
</event>
<event>
 6    1  0.5196787E-004  0.8988811E+03  0.7818608E-02  0.9426981E-01
         -2   -1    0    0    0  501 -0.00000000000E+00  0.00000000000E+00  0.27732766013E+03  0.27732766013E+03  0.00000000000E+00 0. -1.
          2   -1    0    0  501    0  0.00000000000E+00 -0.00000000000E+00 -0.72836884854E+03  0.72836884854E+03  0.00000000000E+00 0.  1.
         23    2    1    2    0    0 -0.40639881126E+03  0.66465152972E+02 -0.41440556089E+02  0.42487787230E+03  0.96053507626E+02 0.  0.
         13    1    3    3    0    0 -0.69252963590E+02 -0.24414907692E+02 -0.12660230336E+02  0.74514039722E+02  0.00000000000E+00 0. -1.
        -13    1    3    3    0    0 -0.33714584767E+03  0.90880060664E+02 -0.28780325752E+02  0.35036383258E+03  0.00000000000E+00 0.  1.
         22    1    1    2    0    0  0.40639881126E+03 -0.66465152972E+02 -0.40960063232E+03  0.58081863637E+03  0.00000000000E+00 0.  1.
<mgrwt>
<rscale>  0 0.89888115E+03</rscale>
<asrwt>0</asrwt>
<pdfrwt beam="1">  1        2 0.11205674E+00 0.89888115E+03</pdfrwt>
<pdfrwt beam="2">  1       -2 0.42665795E-01 0.89888115E+03</pdfrwt>
<totfact> 0.20335529E+02</totfact>
</mgrwt>
</event>
<event>
 6    1  0.5196787E-004  0.1336860E+04  0.7818608E-02  0.9000835E-01
         -2   -1    0    0    0  501 -0.00000000000E+00  0.00000000000E+00  0.16328429472E+03  0.16328429472E+03  0.00000000000E+00 0. -1.
          2   -1    0    0  501    0  0.00000000000E+00 -0.00000000000E+00 -0.27363239348E+04  0.27363239348E+04  0.00000000000E+00 0.  1.
         23    2    1    2    0    0  0.51446442524E+03 -0.26508099939E+02 -0.22058321569E+04  0.22669806456E+04  0.90163290958E+02 0.  0.
         13    1    3    3    0    0  0.15096233526E+03 -0.11506888596E+02 -0.83944873502E+03  0.85299250517E+03  0.00000000000E+00 0.  1.
        -13    1    3    3    0    0  0.36350208998E+03 -0.15001211343E+02 -0.13663834219E+04  0.14139881404E+04  0.00000000000E+00 0. -1.
         22    1    1    2    0    0 -0.51446442524E+03  0.26508099939E+02 -0.36720748319E+03  0.63262758390E+03  0.00000000000E+00 0. -1.
<mgrwt>
<rscale>  0 0.13368601E+04</rscale>
<asrwt>0</asrwt>
<pdfrwt beam="1">  1        2 0.42097287E+00 0.13368601E+04</pdfrwt>
<pdfrwt beam="2">  1       -2 0.25120663E-01 0.13368601E+04</pdfrwt>
<totfact> 0.35365034E+01</totfact>
</mgrwt>
</event>
<event>
 6    1  0.5196787E-004  0.2899424E+04  0.7818608E-02  0.8273049E-01
         -2   -1    0    0    0  501 -0.00000000000E+00  0.00000000000E+00  0.57329618954E+03  0.57329618954E+03  0.00000000000E+00 0. -1.
          2   -1    0    0  501    0  0.00000000000E+00 -0.00000000000E+00 -0.36659317307E+04  0.36659317307E+04  0.00000000000E+00 0.  1.
         23    2    1    2    0    0  0.11259488746E+04  0.63919377002E+03 -0.24967584641E+04  0.28139563549E+04  0.90653160658E+02 0.  0.
         11    1    3    3    0    0  0.27856632139E+03  0.11424343349E+03 -0.58353300892E+03  0.65662891347E+03  0.00000000000E+00 0.  1.
        -11    1    3    3    0    0  0.84738255323E+03  0.52495033653E+03 -0.19132254552E+04  0.21573274415E+04  0.00000000000E+00 0. -1.
         22    1    1    2    0    0 -0.11259488746E+04 -0.63919377002E+03 -0.59587707708E+03  0.14252715653E+04  0.00000000000E+00 0. -1.
<mgrwt>
<rscale>  0 0.28994239E+04</rscale>
<asrwt>0</asrwt>
<pdfrwt beam="1">  1        2 0.56398951E+00 0.28994239E+04</pdfrwt>
<pdfrwt beam="2">  1       -2 0.88199411E-01 0.28994239E+04</pdfrwt>
<totfact> 0.59070739E-01</totfact>
</mgrwt>
</event>
<event>
 6    1  0.5196787E-004  0.1192665E+04  0.7818608E-02  0.9119301E-01
         -2   -1    0    0    0  501 -0.00000000000E+00  0.00000000000E+00  0.58388291077E+03  0.58388291077E+03  0.00000000000E+00 0. -1.
          2   -1    0    0  501    0  0.00000000000E+00 -0.00000000000E+00 -0.60904751577E+03  0.60904751577E+03  0.00000000000E+00 0.  1.
         23    2    1    2    0    0  0.12146975743E+03  0.39262504976E+03 -0.44058349963E+03  0.60856565204E+03  0.85609584911E+02 0.  0.
         11    1    3    3    0    0  0.96777682740E+02  0.17024965808E+03 -0.21573987516E+03  0.29136670999E+03  0.00000000000E+00 0. -1.
        -11    1    3    3    0    0  0.24692074688E+02  0.22237539167E+03 -0.22484362447E+03  0.31719894205E+03  0.00000000000E+00 0.  1.
         22    1    1    2    0    0 -0.12146975743E+03 -0.39262504976E+03  0.41541889463E+03  0.58436477450E+03  0.00000000000E+00 0. -1.
<mgrwt>
<rscale>  0 0.11926650E+04</rscale>
<asrwt>0</asrwt>
<pdfrwt beam="1">  1        2 0.93699617E-01 0.11926650E+04</pdfrwt>
<pdfrwt beam="2">  1       -2 0.89828140E-01 0.11926650E+04</pdfrwt>
<totfact> 0.51058535E+01</totfact>
</mgrwt>
</event>
<event>
 6    1  0.5196787E-004  0.1956823E+04  0.7818608E-02  0.8627078E-01
         -2   -1    0    0    0  501 -0.00000000000E+00  0.00000000000E+00  0.41681621906E+03  0.41681621906E+03  0.00000000000E+00 0. -1.
          2   -1    0    0  501    0  0.00000000000E+00 -0.00000000000E+00 -0.22966684202E+04  0.22966684202E+04  0.00000000000E+00 0.  1.
         23    2    1    2    0    0 -0.44952524255E+03  0.75947909056E+03 -0.15206306829E+04  0.17606354740E+04  0.92941733194E+02 0.  0.
         13    1    3    3    0    0 -0.30672657681E+03  0.45811937594E+03 -0.10119541049E+04  0.11523912816E+04  0.00000000000E+00 0. -1.
        -13    1    3    3    0    0 -0.14279866574E+03  0.30135971461E+03 -0.50867657802E+03  0.60824419237E+03  0.00000000000E+00 0.  1.
         22    1    1    2    0    0  0.44952524255E+03 -0.75947909056E+03 -0.35922151828E+03  0.95284916533E+03  0.00000000000E+00 0. -1.
<mgrwt>
<rscale>  0 0.19568226E+04</rscale>
<asrwt>0</asrwt>
<pdfrwt beam="1">  1        2 0.35333360E+00 0.19568226E+04</pdfrwt>
<pdfrwt beam="2">  1       -2 0.64125573E-01 0.19568226E+04</pdfrwt>
<totfact> 0.95435765E+00</totfact>
</mgrwt>
</event>
<event>
 6    1  0.5196787E-004  0.6736167E+04  0.7818608E-02  0.7605274E-01
         -2   -1    0    0    0  501 -0.00000000000E+00  0.00000000000E+00  0.25190741910E+04  0.25190741910E+04  0.00000000000E+00 0. -1.
          2   -1    0    0  501    0  0.00000000000E+00 -0.00000000000E+00 -0.45032363793E+04  0.45032363793E+04  0.00000000000E+00 0.  1.
         23    2    1    2    0    0  0.21783179288E+04  0.22794844070E+04  0.23968814044E+03  0.31639911893E+04  0.11077761828E+03 0.  0.
         11    1    3    3    0    0  0.10516019600E+04  0.11690652135E+04  0.14820292028E+03  0.15794126318E+04  0.00000000000E+00 0. -1.
        -11    1    3    3    0    0  0.11267159688E+04  0.11104191934E+04  0.91485220165E+02  0.15845785575E+04  0.00000000000E+00 0.  1.
         22    1    1    2    0    0 -0.21783179288E+04 -0.22794844070E+04 -0.22238503288E+04  0.38583193810E+04  0.00000000000E+00 0.  1.
<mgrwt>
<rscale>  0 0.67361670E+04</rscale>
<asrwt>0</asrwt>
<pdfrwt beam="1">  1        2 0.69280560E+00 0.67361670E+04</pdfrwt>
<pdfrwt beam="2">  1       -2 0.38754988E+00 0.67361670E+04</pdfrwt>
<totfact> 0.68715884E-04</totfact>
</mgrwt>
</event>
<event>
 6    1  0.5196787E-004  0.1739480E+04  0.7818608E-02  0.8739162E-01
         -2   -1    0    0    0  501 -0.00000000000E+00  0.00000000000E+00  0.46249450854E+03  0.46249450854E+03  0.00000000000E+00 0. -1.
          2   -1    0    0  501    0  0.00000000000E+00 -0.00000000000E+00 -0.16355821952E+04  0.16355821952E+04  0.00000000000E+00 0.  1.
         23    2    1    2    0    0 -0.36060428353E+03  0.48455640317E+03  0.16193757534E+03  0.63277031689E+03  0.96665084042E+02 0.  0.
         13    1    3    3    0    0 -0.32726169776E+03  0.42472459216E+03  0.11135700772E+03  0.54762357617E+03  0.00000000000E+00 0.  1.
        -13    1    3    3    0    0 -0.33342585766E+02  0.59831811017E+02  0.50580567616E+02  0.85146740722E+02  0.00000000000E+00 0. -1.
         22    1    1    2    0    0  0.36060428353E+03 -0.48455640317E+03 -0.13350252620E+04  0.14653063868E+04  0.00000000000E+00 0.  1.
<mgrwt>
<rscale>  0 0.17394801E+04</rscale>
<asrwt>0</asrwt>
<pdfrwt beam="1">  1        2 0.25162803E+00 0.17394801E+04</pdfrwt>
<pdfrwt beam="2">  1       -2 0.71153000E-01 0.17394801E+04</pdfrwt>
<totfact> 0.18122377E+01</totfact>
</mgrwt>
</event>
<event>
 6    1  0.5196787E-004  0.1665758E+04  0.7818608E-02  0.8781139E-01
         -2   -1    0    0    0  501 -0.00000000000E+00  0.00000000000E+00  0.20546928822E+03  0.20546928822E+03  0.00000000000E+00 0. -1.
          2   -1    0    0  501    0  0.00000000000E+00 -0.00000000000E+00 -0.33761105619E+04  0.33761105619E+04  0.00000000000E+00 0.  1.
         23    2    1    2    0    0  0.12581004188E+02  0.24035283103E+03 -0.32988784662E+04  0.33088665527E+04  0.89838542590E+02 0.  0.
         11    1    3    3    0    0  0.17714185679E+02  0.15485936949E+03 -0.15308306411E+04  0.15387454853E+04  0.00000000000E+00 0. -1.
        -11    1    3    3    0    0 -0.51331814913E+01  0.85493461544E+02 -0.17680478251E+04  0.17701210674E+04  0.00000000000E+00 0.  1.
         22    1    1    2    0    0 -0.12581004188E+02 -0.24035283103E+03  0.12823719251E+03  0.27271329743E+03  0.00000000000E+00 0. -1.
<mgrwt>
<rscale>  0 0.16657575E+04</rscale>
<asrwt>0</asrwt>
<pdfrwt beam="1">  1        2 0.51940160E+00 0.16657575E+04</pdfrwt>
<pdfrwt beam="2">  1       -2 0.31610661E-01 0.16657575E+04</pdfrwt>
<totfact> 0.88590402E+00</totfact>
</mgrwt>
</event>
<event>
 6    1  0.5196787E-004  0.1671100E+04  0.7818608E-02  0.8778021E-01
         -2   -1    0    0    0  501 -0.00000000000E+00  0.00000000000E+00  0.61023936395E+03  0.61023936395E+03  0.00000000000E+00 0. -1.
          2   -1    0    0  501    0  0.00000000000E+00 -0.00000000000E+00 -0.11440495604E+04  0.11440495604E+04  0.00000000000E+00 0.  1.
         23    2    1    2    0    0 -0.71419564471E+02 -0.47968441561E+03  0.44227421760E+03  0.66436292863E+03  0.10282861770E+03 0.  0.
         13    1    3    3    0    0  0.30465969679E+01 -0.16994728438E+03  0.20969678516E+03  0.26993351575E+03  0.00000000000E+00 0. -1.
        -13    1    3    3    0    0 -0.74466161439E+02 -0.30973713123E+03  0.23257743245E+03  0.39442941288E+03  0.00000000000E+00 0.  1.
         22    1    1    2    0    0  0.71419564471E+02  0.47968441561E+03 -0.97608441405E+03  0.10899259957E+04  0.00000000000E+00 0.  1.
<mgrwt>
<rscale>  0 0.16711003E+04</rscale>
<asrwt>0</asrwt>
<pdfrwt beam="1">  1        2 0.17600762E+00 0.16711003E+04</pdfrwt>
<pdfrwt beam="2">  1       -2 0.93882980E-01 0.16711003E+04</pdfrwt>
<totfact> 0.18709958E+01</totfact>
</mgrwt>
</event>
<event>
 6    1  0.5196787E-004  0.5883423E+03  0.7818608E-02  0.9929892E-01
          2   -1    0    0  501    0  0.00000000000E+00  0.00000000000E+00  0.56348111858E+03  0.56348111858E+03  0.00000000000E+00 0.  1.
         -2   -1    0    0    0  501 -0.00000000000E+00 -0.00000000000E+00 -0.15357508275E+03  0.15357508275E+03  0.00000000000E+00 0. -1.
         23    2    1    2    0    0 -0.75307974251E+01 -0.50874815563E+02  0.55408582605E+03  0.56397853583E+03  0.91737268761E+02 0.  0.
         11    1    3    3    0    0  0.35781062800E+02 -0.44346963093E+01  0.29633261855E+03  0.29851795893E+03  0.00000000000E+00 0. -1.
        -11    1    3    3    0    0 -0.43311860225E+02 -0.46440119253E+02  0.25775320750E+03  0.26546057691E+03  0.00000000000E+00 0.  1.
         22    1    1    2    0    0  0.75307974251E+01  0.50874815563E+02 -0.14417979022E+03  0.15307766550E+03  0.00000000000E+00 0. -1.
<mgrwt>
<rscale>  0 0.58834228E+03</rscale>
<asrwt>0</asrwt>
<pdfrwt beam="1">  1        2 0.86689402E-01 0.58834228E+03</pdfrwt>
<pdfrwt beam="2">  1       -2 0.23626936E-01 0.58834228E+03</pdfrwt>
<totfact> 0.85265346E+02</totfact>
</mgrwt>
</event>
<event>
 6    1  0.5196787E-004  0.1180384E+04  0.7818608E-02  0.9130201E-01
          2   -1    0    0  501    0  0.00000000000E+00  0.00000000000E+00  0.16202905418E+04  0.16202905418E+04  0.00000000000E+00 0.  1.
         -2   -1    0    0    0  501 -0.00000000000E+00 -0.00000000000E+00 -0.21497802871E+03  0.21497802871E+03  0.00000000000E+00 0. -1.
         23    2    1    2    0    0 -0.23418946898E+03 -0.28117658516E+03 -0.50229111281E+01  0.37823357155E+03  0.95553260478E+02 0.  0.
         13    1    3    3    0    0 -0.37742814236E+02 -0.11393834574E+03  0.38541881040E+01  0.12008880640E+03  0.00000000000E+00 0.  1.
        -13    1    3    3    0    0 -0.19644665474E+03 -0.16723823942E+03 -0.88770992321E+01  0.25814476515E+03  0.00000000000E+00 0. -1.
         22    1    1    2    0    0  0.23418946898E+03  0.28117658516E+03  0.14103354242E+04  0.14570349989E+04  0.00000000000E+00 0.  1.
<mgrwt>
<rscale>  0 0.11803845E+04</rscale>
<asrwt>0</asrwt>
<pdfrwt beam="1">  1        2 0.24927546E+00 0.11803845E+04</pdfrwt>
<pdfrwt beam="2">  1       -2 0.33073544E-01 0.11803845E+04</pdfrwt>
<totfact> 0.91566179E+01</totfact>
</mgrwt>
</event>
<event>
 6    1  0.5196787E-004  0.2181237E+04  0.7818608E-02  0.8526279E-01
          2   -1    0    0  501    0  0.00000000000E+00  0.00000000000E+00  0.92793838948E+03  0.92793838948E+03  0.00000000000E+00 0.  1.
         -2   -1    0    0    0  501 -0.00000000000E+00 -0.00000000000E+00 -0.12818185527E+04  0.12818185527E+04  0.00000000000E+00 0. -1.
         23    2    1    2    0    0 -0.91558834122E+03 -0.18514546799E+03  0.38950267638E+03  0.10159399959E+04  0.88548775005E+02 0.  0.
         11    1    3    3    0    0 -0.64280687304E+03 -0.12438248992E+03  0.31583010853E+03  0.72692526251E+03  0.00000000000E+00 0. -1.
        -11    1    3    3    0    0 -0.27278146817E+03 -0.60762978069E+02  0.73672567851E+02  0.28901473343E+03  0.00000000000E+00 0.  1.
         22    1    1    2    0    0  0.91558834122E+03  0.18514546799E+03 -0.74338283958E+03  0.11938169462E+04  0.00000000000E+00 0. -1.
<mgrwt>
<rscale>  0 0.21812369E+04</rscale>
<asrwt>0</asrwt>
<pdfrwt beam="1">  1        2 0.14275975E+00 0.21812369E+04</pdfrwt>
<pdfrwt beam="2">  1       -2 0.19720285E+00 0.21812369E+04</pdfrwt>
<totfact> 0.35660874E+00</totfact>
</mgrwt>
</event>
<event>
 6    1  0.5196787E-004  0.2974928E+04  0.7818608E-02  0.8250927E-01
         -1   -1    0    0    0  501 -0.00000000000E+00  0.00000000000E+00  0.12073555293E+04  0.12073555293E+04  0.00000000000E+00 0. -1.
          1   -1    0    0  501    0  0.00000000000E+00 -0.00000000000E+00 -0.18325576334E+04  0.18325576334E+04  0.00000000000E+00 0.  1.
         23    2    1    2    0    0  0.40048154892E+03 -0.11179256387E+04 -0.12259527672E+04  0.17091071799E+04  0.89128897560E+02 0.  0.
         13    1    3    3    0    0  0.30470426671E+03 -0.89418410094E+03 -0.10202920600E+04  0.13904696272E+04  0.00000000000E+00 0.  1.
        -13    1    3    3    0    0  0.95777282210E+02 -0.22374153775E+03 -0.20566070718E+03  0.31863755269E+03  0.00000000000E+00 0. -1.
         22    1    1    2    0    0 -0.40048154892E+03  0.11179256387E+04  0.60075066305E+03  0.13308059828E+04  0.00000000000E+00 0. -1.
<mgrwt>
<rscale>  0 0.29749276E+04</rscale>
<asrwt>0</asrwt>
<pdfrwt beam="1">  1        1 0.28193194E+00 0.29749276E+04</pdfrwt>
<pdfrwt beam="2">  1       -1 0.18574701E+00 0.29749276E+04</pdfrwt>
<totfact> 0.62524855E-01</totfact>
</mgrwt>
</event>
<event>
 6    1  0.5196787E-004  0.1088913E+04  0.7818608E-02  0.9216066E-01
          2   -1    0    0  501    0  0.00000000000E+00  0.00000000000E+00  0.11421294570E+04  0.11421294570E+04  0.00000000000E+00 0.  1.
         -2   -1    0    0    0  501 -0.00000000000E+00 -0.00000000000E+00 -0.25954388737E+03  0.25954388737E+03  0.00000000000E+00 0. -1.
         23    2    1    2    0    0  0.21811448177E+03 -0.49297544895E+03  0.49440240646E+03  0.73738057113E+03  0.93261174870E+02 0.  0.
         11    1    3    3    0    0  0.53400560007E+02 -0.17293445361E+03  0.21933766722E+03  0.28437116119E+03  0.00000000000E+00 0. -1.
        -11    1    3    3    0    0  0.16471392176E+03 -0.32004099534E+03  0.27506473924E+03  0.45300940994E+03  0.00000000000E+00 0.  1.
         22    1    1    2    0    0 -0.21811448177E+03  0.49297544895E+03  0.38818316320E+03  0.66429277327E+03  0.00000000000E+00 0. -1.
<mgrwt>
<rscale>  0 0.10889127E+04</rscale>
<asrwt>0</asrwt>
<pdfrwt beam="1">  1        2 0.17571222E+00 0.10889127E+04</pdfrwt>
<pdfrwt beam="2">  1       -2 0.39929829E-01 0.10889127E+04</pdfrwt>
<totfact> 0.12093485E+02</totfact>
</mgrwt>
</event>
<event>
 6    1  0.5196787E-004  0.4663866E+04  0.7818608E-02  0.7882560E-01
          2   -1    0    0  501    0  0.00000000000E+00  0.00000000000E+00  0.44720357972E+04  0.44720357972E+04  0.00000000000E+00 0.  1.
         -2   -1    0    0    0  501 -0.00000000000E+00 -0.00000000000E+00 -0.12159810457E+04  0.12159810457E+04  0.00000000000E+00 0. -1.
         23    2    1    2    0    0  0.84807026474E+03 -0.63475045917E+03  0.41610504571E+04  0.42947657720E+04  0.92416506732E+02 0.  0.
         11    1    3    3    0    0  0.38344599503E+03 -0.29090261506E+03  0.17065752201E+04  0.17731480887E+04  0.00000000000E+00 0. -1.
        -11    1    3    3    0    0  0.46462426971E+03 -0.34384784411E+03  0.24544752370E+04  0.25216176834E+04  0.00000000000E+00 0.  1.
         22    1    1    2    0    0 -0.84807026474E+03  0.63475045917E+03 -0.90499570559E+03  0.13932510709E+04  0.00000000000E+00 0. -1.
<mgrwt>
<rscale>  0 0.46638657E+04</rscale>
<asrwt>0</asrwt>
<pdfrwt beam="1">  1        2 0.68800550E+00 0.46638657E+04</pdfrwt>
<pdfrwt beam="2">  1       -2 0.18707401E+00 0.46638657E+04</pdfrwt>
<totfact> 0.15755362E-02</totfact>
</mgrwt>
</event>
<event>
 6    1  0.5196787E-004  0.2181470E+04  0.7818608E-02  0.8526180E-01
          2   -1    0    0  501    0  0.00000000000E+00  0.00000000000E+00  0.11436677428E+04  0.11436677428E+04  0.00000000000E+00 0.  1.
         -2   -1    0    0    0  501 -0.00000000000E+00 -0.00000000000E+00 -0.10402525321E+04  0.10402525321E+04  0.00000000000E+00 0. -1.
         23    2    1    2    0    0  0.51268468719E+03 -0.76643836573E+03 -0.52753145559E+03  0.10666168011E+04  0.95439021434E+02 0.  0.
         11    1    3    3    0    0  0.34059456679E+03 -0.46945322856E+03 -0.28424899890E+03  0.64590129750E+03  0.00000000000E+00 0.  1.
        -11    1    3    3    0    0  0.17209012040E+03 -0.29698513717E+03 -0.24328245669E+03  0.42071550361E+03  0.00000000000E+00 0. -1.
         22    1    1    2    0    0 -0.51268468719E+03  0.76643836573E+03  0.63094666622E+03  0.11173034738E+04  0.00000000000E+00 0.  1.
<mgrwt>
<rscale>  0 0.21814704E+04</rscale>
<asrwt>0</asrwt>
<pdfrwt beam="1">  1        2 0.17594888E+00 0.21814704E+04</pdfrwt>
<pdfrwt beam="2">  1       -2 0.16003885E+00 0.21814704E+04</pdfrwt>
<totfact> 0.47201425E+00</totfact>
</mgrwt>
</event>
<event>
 6    1  0.5196787E-004  0.1177902E+04  0.7818608E-02  0.9132422E-01
          2   -1    0    0  501    0  0.00000000000E+00  0.00000000000E+00  0.16467476377E+04  0.16467476377E+04  0.00000000000E+00 0.  1.
         -2   -1    0    0    0  501 -0.00000000000E+00 -0.00000000000E+00 -0.21063522045E+03  0.21063522045E+03  0.00000000000E+00 0. -1.
         23    2    1    2    0    0 -0.44274297675E+03  0.21215517513E+03  0.21940385080E+03  0.54535736394E+03  0.90804420917E+02 0.  0.
         13    1    3    3    0    0 -0.36165831723E+03  0.20893653063E+03  0.17498859579E+03  0.45284900454E+03  0.00000000000E+00 0. -1.
        -13    1    3    3    0    0 -0.81084659519E+02  0.32186445075E+01  0.44415255005E+02  0.92508359400E+02  0.00000000000E+00 0.  1.
         22    1    1    2    0    0  0.44274297675E+03 -0.21215517513E+03  0.12167085664E+04  0.13120254942E+04  0.00000000000E+00 0.  1.
<mgrwt>
<rscale>  0 0.11779016E+04</rscale>
<asrwt>0</asrwt>
<pdfrwt beam="1">  1        2 0.25334578E+00 0.11779016E+04</pdfrwt>
<pdfrwt beam="2">  1       -2 0.32405420E-01 0.11779016E+04</pdfrwt>
<totfact> 0.92012567E+01</totfact>
</mgrwt>
</event>
<event>
 6    1  0.5282440E-004  0.3817373E+04  0.7818608E-02  0.8042437E-01
         -2   -1    0    0    0  501 -0.00000000000E+00  0.00000000000E+00  0.20268020329E+04  0.20268020329E+04  0.00000000000E+00 0. -1.
          2   -1    0    0  501    0  0.00000000000E+00 -0.00000000000E+00 -0.17974539338E+04  0.17974539338E+04  0.00000000000E+00 0.  1.
         23    2    1    2    0    0 -0.61073687378E+03 -0.12259546378E+04 -0.12154496167E+04  0.18334258026E+04  0.90377541383E+02 0.  0.
         11    1    3    3    0    0 -0.28243312384E+03 -0.48993647082E+03 -0.53916667827E+03  0.78134942365E+03  0.00000000000E+00 0.  1.
        -11    1    3    3    0    0 -0.32830374994E+03 -0.73601816694E+03 -0.67628293844E+03  0.10520763789E+04  0.00000000000E+00 0. -1.
         22    1    1    2    0    0  0.61073687378E+03  0.12259546378E+04  0.14447977158E+04  0.19908301642E+04  0.00000000000E+00 0. -1.
<mgrwt>
<rscale>  0 0.38173725E+04</rscale>
<asrwt>0</asrwt>
<pdfrwt beam="1">  1        2 0.27653138E+00 0.38173725E+04</pdfrwt>
<pdfrwt beam="2">  1       -2 0.31181570E+00 0.38173725E+04</pdfrwt>
<totfact> 0.18640180E-01</totfact>
</mgrwt>
</event>
<event>
 6    1  0.5196787E-004  0.2084209E+04  0.7818608E-02  0.8568232E-01
          2   -1    0    0  501    0  0.00000000000E+00  0.00000000000E+00  0.17418013485E+04  0.17418013485E+04  0.00000000000E+00 0.  1.
         -2   -1    0    0    0  501 -0.00000000000E+00 -0.00000000000E+00 -0.62348171821E+03  0.62348171821E+03  0.00000000000E+00 0. -1.
         23    2    1    2    0    0 -0.13977510683E+03 -0.94861607741E+03  0.10150368528E+04  0.14008781337E+04  0.11291673907E+03 0.  0.
         11    1    3    3    0    0 -0.72082296415E+02 -0.78196280324E+03  0.81139485128E+03  0.11291692910E+04  0.00000000000E+00 0. -1.
        -11    1    3    3    0    0 -0.67692810412E+02 -0.16665327417E+03  0.20364200156E+03  0.27170884265E+03  0.00000000000E+00 0.  1.
         22    1    1    2    0    0  0.13977510683E+03  0.94861607741E+03  0.10328277749E+03  0.96440493308E+03  0.00000000000E+00 0. -1.
<mgrwt>
<rscale>  0 0.20842085E+04</rscale>
<asrwt>0</asrwt>
<pdfrwt beam="1">  1        2 0.26796944E+00 0.20842085E+04</pdfrwt>
<pdfrwt beam="2">  1       -2 0.95920265E-01 0.20842085E+04</pdfrwt>
<totfact> 0.78158393E+00</totfact>
</mgrwt>
</event>
<event>
 6    1  0.6144062E-004  0.4627596E+04  0.7818608E-02  0.7888672E-01
          2   -1    0    0  501    0  0.00000000000E+00  0.00000000000E+00  0.30543388617E+04  0.30543388617E+04  0.00000000000E+00 0.  1.
         -2   -1    0    0    0  501 -0.00000000000E+00 -0.00000000000E+00 -0.17528049443E+04  0.17528049443E+04  0.00000000000E+00 0. -1.
         23    2    1    2    0    0  0.65085587837E+03  0.52649610878E+03  0.28907865960E+04  0.30108878099E+04  0.89368523766E+02 0.  0.
         11    1    3    3    0    0  0.23933921601E+03  0.23193403733E+03  0.12640893299E+04  0.13072866908E+04  0.00000000000E+00 0.  1.
        -11    1    3    3    0    0  0.41151666236E+03  0.29456207145E+03  0.16266972661E+04  0.17036011191E+04  0.00000000000E+00 0. -1.
         22    1    1    2    0    0 -0.65085587837E+03 -0.52649610878E+03 -0.15892526787E+04  0.17962559961E+04  0.00000000000E+00 0. -1.
<mgrwt>
<rscale>  0 0.46275956E+04</rscale>
<asrwt>0</asrwt>
<pdfrwt beam="1">  1        2 0.46989829E+00 0.46275956E+04</pdfrwt>
<pdfrwt beam="2">  1       -2 0.26966230E+00 0.46275956E+04</pdfrwt>
<totfact> 0.58726448E-02</totfact>
</mgrwt>
</event>
<event>
 6    1  0.5196787E-004  0.3306057E+04  0.7818608E-02  0.8161356E-01
          2   -1    0    0  501    0  0.00000000000E+00  0.00000000000E+00  0.15724786797E+04  0.15724786797E+04  0.00000000000E+00 0.  1.
         -2   -1    0    0    0  501 -0.00000000000E+00 -0.00000000000E+00 -0.17377042175E+04  0.17377042175E+04  0.00000000000E+00 0. -1.
         23    2    1    2    0    0  0.36681898625E+03 -0.65188964972E+03  0.13919140183E+04  0.15826992124E+04  0.89419676470E+02 0.  0.
         11    1    3    3    0    0  0.21702313610E+03 -0.44245630044E+03  0.84513944867E+03  0.97832883383E+03  0.00000000000E+00 0.  1.
        -11    1    3    3    0    0  0.14979585015E+03 -0.20943334928E+03  0.54677456965E+03  0.60437037860E+03  0.00000000000E+00 0. -1.
         22    1    1    2    0    0 -0.36681898625E+03  0.65188964972E+03 -0.15571395561E+04  0.17274836848E+04  0.00000000000E+00 0. -1.
<mgrwt>
<rscale>  0 0.33060568E+04</rscale>
<asrwt>0</asrwt>
<pdfrwt beam="1">  1        2 0.24191980E+00 0.33060568E+04</pdfrwt>
<pdfrwt beam="2">  1       -2 0.26733911E+00 0.33060568E+04</pdfrwt>
<totfact> 0.48535786E-01</totfact>
</mgrwt>
</event>
<event>
 6    1  0.5196787E-004  0.1412876E+04  0.7818608E-02  0.8944551E-01
          2   -1    0    0  501    0  0.00000000000E+00  0.00000000000E+00  0.20135141705E+04  0.20135141705E+04  0.00000000000E+00 0.  1.
         -2   -1    0    0    0  501 -0.00000000000E+00 -0.00000000000E+00 -0.24785255842E+03  0.24785255842E+03  0.00000000000E+00 0. -1.
         23    2    1    2    0    0 -0.58966471002E+03  0.32708977618E+03  0.12071779935E+04  0.13858119653E+04  0.92216609862E+02 0.  0.
         13    1    3    3    0    0 -0.24423122416E+03  0.14102815808E+03  0.59874654432E+03  0.66184232001E+03  0.00000000000E+00 0.  1.
        -13    1    3    3    0    0 -0.34543348586E+03  0.18606161810E+03  0.60843144920E+03  0.72396964526E+03  0.00000000000E+00 0. -1.
         22    1    1    2    0    0  0.58966471002E+03 -0.32708977618E+03  0.55848361853E+03  0.87555476362E+03  0.00000000000E+00 0. -1.
<mgrwt>
<rscale>  0 0.14128760E+04</rscale>
<asrwt>0</asrwt>
<pdfrwt beam="1">  1        2 0.30977140E+00 0.14128760E+04</pdfrwt>
<pdfrwt beam="2">  1       -2 0.38131164E-01 0.14128760E+04</pdfrwt>
<totfact> 0.41487506E+01</totfact>
</mgrwt>
</event>
<event>
 6    1  0.5196787E-004  0.1106184E+04  0.7818608E-02  0.9199185E-01
         -2   -1    0    0    0  501 -0.00000000000E+00  0.00000000000E+00  0.75487481543E+02  0.75487481543E+02  0.00000000000E+00 0. -1.
          2   -1    0    0  501    0  0.00000000000E+00 -0.00000000000E+00 -0.40524720745E+04  0.40524720745E+04  0.00000000000E+00 0.  1.
         23    2    1    2    0    0 -0.31414958517E+03 -0.39669555339E+03 -0.27960713695E+04  0.28431975682E+04  0.98488501080E+02 0.  0.
         11    1    3    3    0    0 -0.15383443066E+03 -0.14891462593E+03 -0.96233760120E+03  0.98586726112E+03  0.00000000000E+00 0.  1.
        -11    1    3    3    0    0 -0.16031515450E+03 -0.24778092746E+03 -0.18337337683E+04  0.18573303071E+04  0.00000000000E+00 0. -1.
         22    1    1    2    0    0  0.31414958517E+03  0.39669555339E+03 -0.11809132235E+04  0.12847619878E+04  0.00000000000E+00 0. -1.
<mgrwt>
<rscale>  0 0.11061843E+04</rscale>
<asrwt>0</asrwt>
<pdfrwt beam="1">  1        2 0.62345728E+00 0.11061843E+04</pdfrwt>
<pdfrwt beam="2">  1       -2 0.11613458E-01 0.11061843E+04</pdfrwt>
<totfact> 0.17405650E+01</totfact>
</mgrwt>
</event>
<event>
 6    1  0.5196787E-004  0.5388047E+04  0.7818608E-02  0.7771285E-01
          2   -1    0    0  501    0  0.00000000000E+00  0.00000000000E+00  0.27808190641E+04  0.27808190641E+04  0.00000000000E+00 0.  1.
         -2   -1    0    0    0  501 -0.00000000000E+00 -0.00000000000E+00 -0.26099366362E+04  0.26099366362E+04  0.00000000000E+00 0. -1.
         23    2    1    2    0    0  0.43698347638E+03 -0.18829935105E+04 -0.17908227295E+04  0.26366848508E+04  0.91879458346E+02 0.  0.
         13    1    3    3    0    0  0.12080503027E+03 -0.71719515307E+03 -0.67030673017E+03  0.98907727475E+03  0.00000000000E+00 0. -1.
        -13    1    3    3    0    0  0.31617844611E+03 -0.11657983574E+04 -0.11205159993E+04  0.16476075761E+04  0.00000000000E+00 0.  1.
         22    1    1    2    0    0 -0.43698347638E+03  0.18829935105E+04  0.19617051574E+04  0.27540708494E+04  0.00000000000E+00 0.  1.
<mgrwt>
<rscale>  0 0.53880466E+04</rscale>
<asrwt>0</asrwt>
<pdfrwt beam="1">  1        2 0.42781832E+00 0.53880466E+04</pdfrwt>
<pdfrwt beam="2">  1       -2 0.40152871E+00 0.53880466E+04</pdfrwt>
<totfact> 0.12173093E-02</totfact>
</mgrwt>
</event>
<event>
 6    1  0.5196787E-004  0.1004661E+04  0.7818608E-02  0.9303448E-01
         -2   -1    0    0    0  501 -0.00000000000E+00  0.00000000000E+00  0.11821966145E+04  0.11821966145E+04  0.00000000000E+00 0. -1.
          2   -1    0    0  501    0  0.00000000000E+00 -0.00000000000E+00 -0.21344654261E+03  0.21344654261E+03  0.00000000000E+00 0.  1.
         23    2    1    2    0    0 -0.17612012973E+03  0.42993745068E+03  0.23842473436E+03  0.53005687588E+03  0.90826351465E+02 0.  0.
         11    1    3    3    0    0 -0.15088943527E+03  0.41997559921E+03  0.22592930566E+03  0.50019114023E+03  0.00000000000E+00 0.  1.
        -11    1    3    3    0    0 -0.25230694462E+02  0.99618514737E+01  0.12495428702E+02  0.29865735656E+02  0.00000000000E+00 0. -1.
         22    1    1    2    0    0  0.17612012973E+03 -0.42993745068E+03  0.73032533751E+03  0.86558628120E+03  0.00000000000E+00 0. -1.
<mgrwt>
<rscale>  0 0.10046607E+04</rscale>
<asrwt>0</asrwt>
<pdfrwt beam="1">  1        2 0.32837930E-01 0.10046607E+04</pdfrwt>
<pdfrwt beam="2">  1       -2 0.18187640E+00 0.10046607E+04</pdfrwt>
<totfact> 0.28237480E+01</totfact>
</mgrwt>
</event>
<event>
 6    1  0.5196787E-004  0.3575566E+04  0.7818608E-02  0.8096112E-01
          2   -1    0    0  501    0  0.00000000000E+00  0.00000000000E+00  0.30242209424E+04  0.30242209424E+04  0.00000000000E+00 0.  1.
         -2   -1    0    0    0  501 -0.00000000000E+00 -0.00000000000E+00 -0.10568566975E+04  0.10568566975E+04  0.00000000000E+00 0. -1.
         23    2    1    2    0    0 -0.88306242129E+03  0.14777803982E+04  0.43899363297E+03  0.17790022996E+04  0.92193422156E+02 0.  0.
         13    1    3    3    0    0 -0.25500995871E+03  0.48390842640E+03  0.10717021336E+03  0.55738936015E+03  0.00000000000E+00 0.  1.
        -13    1    3    3    0    0 -0.62805246258E+03  0.99387197177E+03  0.33182341961E+03  0.12216129394E+04  0.00000000000E+00 0. -1.
         22    1    1    2    0    0  0.88306242129E+03 -0.14777803982E+04  0.15283706119E+04  0.23020753403E+04  0.00000000000E+00 0.  1.
<mgrwt>
<rscale>  0 0.35755661E+04</rscale>
<asrwt>0</asrwt>
<pdfrwt beam="1">  1        2 0.46526476E+00 0.35755661E+04</pdfrwt>
<pdfrwt beam="2">  1       -2 0.16259334E+00 0.35755661E+04</pdfrwt>
<totfact> 0.33071440E-01</totfact>
</mgrwt>
</event>
<event>
 6    1  0.5196787E-004  0.9128342E+03  0.7818608E-02  0.9409679E-01
         -2   -1    0    0    0  501 -0.00000000000E+00  0.00000000000E+00  0.16262157224E+03  0.16262157224E+03  0.00000000000E+00 0. -1.
          2   -1    0    0  501    0  0.00000000000E+00 -0.00000000000E+00 -0.12809898379E+04  0.12809898379E+04  0.00000000000E+00 0.  1.
         23    2    1    2    0    0  0.34231455663E+02 -0.31025911705E+03 -0.47766593742E+02  0.32843409142E+03  0.90303890627E+02 0.  0.
         13    1    3    3    0    0 -0.15000934525E+02 -0.22838258155E+03 -0.42208043461E+02  0.23273407685E+03  0.00000000000E+00 0.  1.
        -13    1    3    3    0    0  0.49232390188E+02 -0.81876535495E+02 -0.55585502813E+01  0.95700014574E+02  0.00000000000E+00 0. -1.
         22    1    1    2    0    0 -0.34231455663E+02  0.31025911705E+03 -0.10706016719E+04  0.11151773187E+04  0.00000000000E+00 0.  1.
<mgrwt>
<rscale>  0 0.91283423E+03</rscale>
<asrwt>0</asrwt>
<pdfrwt beam="1">  1        2 0.19707536E+00 0.91283423E+03</pdfrwt>
<pdfrwt beam="2">  1       -2 0.25018703E-01 0.91283423E+03</pdfrwt>
<totfact> 0.24317277E+02</totfact>
</mgrwt>
</event>
<event>
 6    1  0.5196787E-004  0.3021493E+04  0.7818608E-02  0.8237620E-01
         -2   -1    0    0    0  501 -0.00000000000E+00  0.00000000000E+00  0.13550144843E+04  0.13550144843E+04  0.00000000000E+00 0. -1.
          2   -1    0    0  501    0  0.00000000000E+00 -0.00000000000E+00 -0.16843766985E+04  0.16843766985E+04  0.00000000000E+00 0.  1.
         23    2    1    2    0    0  0.12489544845E+04 -0.69723429087E+03 -0.64954733804E+03  0.15736007905E+04  0.91020561453E+02 0.  0.
         11    1    3    3    0    0  0.11267356101E+04 -0.60783809698E+03 -0.55716603255E+03  0.13962214276E+04  0.00000000000E+00 0. -1.
        -11    1    3    3    0    0  0.12221887444E+03 -0.89396193889E+02 -0.92381305483E+02  0.17737936282E+03  0.00000000000E+00 0.  1.
         22    1    1    2    0    0 -0.12489544845E+04  0.69723429087E+03  0.32018512375E+03  0.14657903923E+04  0.00000000000E+00 0. -1.
<mgrwt>
<rscale>  0 0.30214929E+04</rscale>
<asrwt>0</asrwt>
<pdfrwt beam="1">  1        2 0.25913488E+00 0.30214929E+04</pdfrwt>
<pdfrwt beam="2">  1       -2 0.20846377E+00 0.30214929E+04</pdfrwt>
<totfact> 0.10016948E+00</totfact>
</mgrwt>
</event>
<event>
 6    1  0.5196787E-004  0.1592331E+04  0.7818608E-02  0.8825273E-01
         -2   -1    0    0    0  501 -0.00000000000E+00  0.00000000000E+00  0.54806975976E+03  0.54806975976E+03  0.00000000000E+00 0. -1.
          2   -1    0    0  501    0  0.00000000000E+00 -0.00000000000E+00 -0.11565666792E+04  0.11565666792E+04  0.00000000000E+00 0.  1.
         23    2    1    2    0    0  0.64296613983E+03 -0.47274829407E+02  0.19012958058E+03  0.67826192009E+03  0.90827354700E+02 0.  0.
         11    1    3    3    0    0  0.86583940738E+01 -0.11585141391E+02 -0.18429785161E+01  0.14580118614E+02  0.00000000000E+00 0. -1.
        -11    1    3    3    0    0  0.63430774576E+03 -0.35689688016E+02  0.19197255909E+03  0.66368180147E+03  0.00000000000E+00 0.  1.
         22    1    1    2    0    0 -0.64296613983E+03  0.47274829407E+02 -0.79862650003E+03  0.10263745189E+04  0.00000000000E+00 0.  1.
<mgrwt>
<rscale>  0 0.15923306E+04</rscale>
<asrwt>0</asrwt>
<pdfrwt beam="1">  1        2 0.17793333E+00 0.15923306E+04</pdfrwt>
<pdfrwt beam="2">  1       -2 0.84318426E-01 0.15923306E+04</pdfrwt>
<totfact> 0.23691525E+01</totfact>
</mgrwt>
</event>
<event>
 6    1  0.5196787E-004  0.4105785E+04  0.7818608E-02  0.7983540E-01
          2   -1    0    0  501    0  0.00000000000E+00  0.00000000000E+00  0.26287497802E+04  0.26287497802E+04  0.00000000000E+00 0.  1.
         -2   -1    0    0    0  501 -0.00000000000E+00 -0.00000000000E+00 -0.16031830958E+04  0.16031830958E+04  0.00000000000E+00 0. -1.
         23    2    1    2    0    0 -0.24336071920E+03  0.72669112255E+03 -0.14488344352E+04  0.16415727990E+04  0.91299543097E+02 0.  0.
         11    1    3    3    0    0 -0.75941146434E+02  0.29220980416E+03 -0.48764735831E+03  0.57354474405E+03  0.00000000000E+00 0. -1.
        -11    1    3    3    0    0 -0.16741957277E+03  0.43448131839E+03 -0.96118707692E+03  0.10680280550E+04  0.00000000000E+00 0.  1.
         22    1    1    2    0    0  0.24336071920E+03 -0.72669112255E+03  0.24744011196E+04  0.25903600769E+04  0.00000000000E+00 0.  1.
<mgrwt>
<rscale>  0 0.41057848E+04</rscale>
<asrwt>0</asrwt>
<pdfrwt beam="1">  1        2 0.40442305E+00 0.41057848E+04</pdfrwt>
<pdfrwt beam="2">  1       -2 0.24664355E+00 0.41057848E+04</pdfrwt>
<totfact> 0.15428189E-01</totfact>
</mgrwt>
</event>
<event>
 6    1  0.5196787E-004  0.1559104E+04  0.7818608E-02  0.8846073E-01
          2   -1    0    0  501    0  0.00000000000E+00  0.00000000000E+00  0.24072473459E+04  0.24072473459E+04  0.00000000000E+00 0.  1.
         -2   -1    0    0    0  501 -0.00000000000E+00 -0.00000000000E+00 -0.25244671752E+03  0.25244671752E+03  0.00000000000E+00 0. -1.
         23    2    1    2    0    0 -0.38747930617E+03 -0.64575010012E+03  0.75293701641E+03  0.10683565784E+04  0.85663431593E+02 0.  0.
         11    1    3    3    0    0 -0.37742549477E+03 -0.58418650523E+03  0.68730527070E+03  0.97781000820E+03  0.00000000000E+00 0.  1.
        -11    1    3    3    0    0 -0.10053811407E+02 -0.61563594887E+02  0.65631745714E+02  0.90546570253E+02  0.00000000000E+00 0. -1.
         22    1    1    2    0    0  0.38747930617E+03  0.64575010012E+03  0.14018636119E+04  0.15913374850E+04  0.00000000000E+00 0.  1.
<mgrwt>
<rscale>  0 0.15591045E+04</rscale>
<asrwt>0</asrwt>
<pdfrwt beam="1">  1        2 0.37034573E+00 0.15591045E+04</pdfrwt>
<pdfrwt beam="2">  1       -2 0.38837958E-01 0.15591045E+04</pdfrwt>
<totfact> 0.23774323E+01</totfact>
</mgrwt>
</event>
<event>
 6    1  0.5196787E-004  0.5157260E+04  0.7818608E-02  0.7804696E-01
         -2   -1    0    0    0  501 -0.00000000000E+00  0.00000000000E+00  0.25268003866E+04  0.25268003866E+04  0.00000000000E+00 0. -1.
          2   -1    0    0  501    0  0.00000000000E+00 -0.00000000000E+00 -0.26315224358E+04  0.26315224358E+04  0.00000000000E+00 0.  1.
         23    2    1    2    0    0 -0.70920208997E+03 -0.24742094997E+04 -0.19572396720E+03  0.25828691533E+04  0.90691449428E+02 0.  0.
         13    1    3    3    0    0 -0.29250976227E+03 -0.11647932771E+04 -0.69637460061E+02  0.12029774376E+04  0.00000000000E+00 0. -1.
        -13    1    3    3    0    0 -0.41669232770E+03 -0.13094162226E+04 -0.12608650714E+03  0.13798917157E+04  0.00000000000E+00 0.  1.
         22    1    1    2    0    0  0.70920208997E+03  0.24742094997E+04  0.91001918059E+02  0.25754536691E+04  0.00000000000E+00 0. -1.
<mgrwt>
<rscale>  0 0.51572597E+04</rscale>
<asrwt>0</asrwt>
<pdfrwt beam="1">  1        2 0.40484961E+00 0.51572597E+04</pdfrwt>
<pdfrwt beam="2">  1       -2 0.38873852E+00 0.51572597E+04</pdfrwt>
<totfact> 0.18436999E-02</totfact>
</mgrwt>
</event>
<event>
 6    1  0.6594229E-004  0.4856286E+04  0.7818608E-02  0.7851067E-01
         -2   -1    0    0    0  501 -0.00000000000E+00  0.00000000000E+00  0.24665146887E+04  0.24665146887E+04  0.00000000000E+00 0. -1.
          2   -1    0    0  501    0  0.00000000000E+00 -0.00000000000E+00 -0.23903679885E+04  0.23903679885E+04  0.00000000000E+00 0.  1.
         23    2    1    2    0    0  0.46079916813E+03 -0.18976781047E+04 -0.14036296423E+04  0.24067283787E+04  0.92990612598E+02 0.  0.
         11    1    3    3    0    0  0.38166554804E+03 -0.14360601795E+04 -0.10380933391E+04  0.18126155716E+04  0.00000000000E+00 0. -1.
        -11    1    3    3    0    0  0.79133620089E+02 -0.46161792522E+03 -0.36553630317E+03  0.59411280717E+03  0.00000000000E+00 0.  1.
         22    1    1    2    0    0 -0.46079916813E+03  0.18976781047E+04  0.14797763425E+04  0.24501542985E+04  0.00000000000E+00 0. -1.
<mgrwt>
<rscale>  0 0.48562857E+04</rscale>
<asrwt>0</asrwt>
<pdfrwt beam="1">  1        2 0.36774892E+00 0.48562857E+04</pdfrwt>
<pdfrwt beam="2">  1       -2 0.37946380E+00 0.48562857E+04</pdfrwt>
<totfact> 0.29930769E-02</totfact>
</mgrwt>
</event>
<event>
 6    1  0.5196787E-004  0.1087094E+04  0.7818608E-02  0.9217863E-01
          2   -1    0    0  501    0  0.00000000000E+00  0.00000000000E+00  0.76487984968E+03  0.76487984968E+03  0.00000000000E+00 0.  1.
         -2   -1    0    0    0  501 -0.00000000000E+00 -0.00000000000E+00 -0.38626106064E+03  0.38626106064E+03  0.00000000000E+00 0. -1.
         23    2    1    2    0    0 -0.33278301986E+03 -0.26149578977E+03  0.54508081498E+03  0.69635063726E+03  0.93094193031E+02 0.  0.
         11    1    3    3    0    0 -0.20916561336E+03 -0.10861337291E+03  0.27284793697E+03  0.36054558006E+03  0.00000000000E+00 0. -1.
        -11    1    3    3    0    0 -0.12361740650E+03 -0.15288241686E+03  0.27223287802E+03  0.33580505721E+03  0.00000000000E+00 0.  1.
         22    1    1    2    0    0  0.33278301986E+03  0.26149578977E+03 -0.16646202595E+03  0.45479027305E+03  0.00000000000E+00 0. -1.
<mgrwt>
<rscale>  0 0.10870939E+04</rscale>
<asrwt>0</asrwt>
<pdfrwt beam="1">  1        2 0.11767382E+00 0.10870939E+04</pdfrwt>
<pdfrwt beam="2">  1       -2 0.59424779E-01 0.10870939E+04</pdfrwt>
<totfact> 0.96033293E+01</totfact>
</mgrwt>
</event>
<event>
 6    1  0.5196787E-004  0.2095754E+04  0.7818608E-02  0.8563116E-01
          2   -1    0    0  501    0  0.00000000000E+00  0.00000000000E+00  0.14507101358E+04  0.14507101358E+04  0.00000000000E+00 0.  1.
         -2   -1    0    0    0  501 -0.00000000000E+00 -0.00000000000E+00 -0.75690248920E+03  0.75690248920E+03  0.00000000000E+00 0. -1.
         23    2    1    2    0    0  0.27463164338E+03 -0.98476793158E+03  0.11450845674E+03  0.10325475332E+04  0.88610400065E+02 0.  0.
         11    1    3    3    0    0  0.21176233887E+03 -0.62560834130E+03  0.51053753695E+02  0.66244665493E+03  0.00000000000E+00 0. -1.
        -11    1    3    3    0    0  0.62869304503E+02 -0.35915959028E+03  0.63454703046E+02  0.37010087824E+03  0.00000000000E+00 0.  1.
         22    1    1    2    0    0 -0.27463164338E+03  0.98476793158E+03  0.57929918983E+03  0.11750650918E+04  0.00000000000E+00 0.  1.
<mgrwt>
<rscale>  0 0.20957539E+04</rscale>
<asrwt>0</asrwt>
<pdfrwt beam="1">  1        2 0.22318617E+00 0.20957539E+04</pdfrwt>
<pdfrwt beam="2">  1       -2 0.11644654E+00 0.20957539E+04</pdfrwt>
<totfact> 0.71382337E+00</totfact>
</mgrwt>
</event>
<event>
 6    1  0.5196787E-004  0.2477303E+04  0.7818608E-02  0.8411116E-01
          2   -1    0    0  501    0  0.00000000000E+00  0.00000000000E+00  0.14963540284E+04  0.14963540284E+04  0.00000000000E+00 0.  1.
         -2   -1    0    0    0  501 -0.00000000000E+00 -0.00000000000E+00 -0.10253309205E+04  0.10253309205E+04  0.00000000000E+00 0. -1.
         23    2    1    2    0    0  0.10879260855E+04 -0.34820659343E+03 -0.24716876375E+03  0.11723775104E+04  0.92442576114E+02 0.  0.
         13    1    3    3    0    0  0.76238930446E+03 -0.21112653705E+03 -0.20042220358E+03  0.81607654414E+03  0.00000000000E+00 0. -1.
        -13    1    3    3    0    0  0.32553678104E+03 -0.13708005638E+03 -0.46746560172E+02  0.35630096625E+03  0.00000000000E+00 0.  1.
         22    1    1    2    0    0 -0.10879260855E+04  0.34820659343E+03  0.71819187166E+03  0.13493074386E+04  0.00000000000E+00 0.  1.
<mgrwt>
<rscale>  0 0.24773034E+04</rscale>
<asrwt>0</asrwt>
<pdfrwt beam="1">  1        2 0.23020831E+00 0.24773034E+04</pdfrwt>
<pdfrwt beam="2">  1       -2 0.15774322E+00 0.24773034E+04</pdfrwt>
<totfact> 0.29842004E+00</totfact>
</mgrwt>
</event>
<event>
 6    1  0.5196787E-004  0.2841099E+04  0.7818608E-02  0.8290621E-01
          1   -1    0    0  501    0  0.00000000000E+00  0.00000000000E+00  0.32005946292E+04  0.32005946292E+04  0.00000000000E+00 0.  1.
         -1   -1    0    0    0  501 -0.00000000000E+00 -0.00000000000E+00 -0.63049546009E+03  0.63049546009E+03  0.00000000000E+00 0. -1.
         23    2    1    2    0    0  0.70196493296E+03  0.70194629937E+03  0.26540579897E+04  0.28348308570E+04  0.82211926679E+02 0.  0.
         13    1    3    3    0    0  0.42545974493E+03  0.46560350437E+03  0.16035540903E+04  0.17231332910E+04  0.00000000000E+00 0. -1.
        -13    1    3    3    0    0  0.27650518803E+03  0.23634279500E+03  0.10505038994E+04  0.11116975661E+04  0.00000000000E+00 0.  1.
         22    1    1    2    0    0 -0.70196493296E+03 -0.70194629937E+03 -0.83958820615E+02  0.99625923226E+03  0.00000000000E+00 0. -1.
<mgrwt>
<rscale>  0 0.28410986E+04</rscale>
<asrwt>0</asrwt>
<pdfrwt beam="1">  1        1 0.49239916E+00 0.28410986E+04</pdfrwt>
<pdfrwt beam="2">  1       -1 0.96999303E-01 0.28410986E+04</pdfrwt>
<totfact> 0.37401490E-01</totfact>
</mgrwt>
</event>
<event>
 6    1  0.5196787E-004  0.7336810E+03  0.7818608E-02  0.9661306E-01
         -2   -1    0    0    0  501 -0.00000000000E+00  0.00000000000E+00  0.17957102820E+03  0.17957102820E+03  0.00000000000E+00 0. -1.
          2   -1    0    0  501    0  0.00000000000E+00 -0.00000000000E+00 -0.74940793593E+03  0.74940793593E+03  0.00000000000E+00 0.  1.
         23    2    1    2    0    0 -0.43594698742E+02  0.27239432862E+03 -0.58462740223E+03  0.65272197010E+03  0.90319448621E+02 0.  0.
         11    1    3    3    0    0 -0.20909120591E+02  0.17300223888E+02 -0.23439863142E+02  0.35859674491E+02  0.00000000000E+00 0. -1.
        -11    1    3    3    0    0 -0.22685578151E+02  0.25509410473E+03 -0.56118753909E+03  0.61686229561E+03  0.00000000000E+00 0.  1.
         22    1    1    2    0    0  0.43594698742E+02 -0.27239432862E+03  0.14790494506E+02  0.27625699403E+03  0.00000000000E+00 0. -1.
<mgrwt>
<rscale>  0 0.73368100E+03</rscale>
<asrwt>0</asrwt>
<pdfrwt beam="1">  1        2 0.11529353E+00 0.73368100E+03</pdfrwt>
<pdfrwt beam="2">  1       -2 0.27626312E-01 0.73368100E+03</pdfrwt>
<totfact> 0.45090208E+02</totfact>
</mgrwt>
</event>
<event>
 6    1  0.5196787E-004  0.3451821E+04  0.7818608E-02  0.8125304E-01
         -1   -1    0    0    0  501 -0.00000000000E+00  0.00000000000E+00  0.14623971672E+04  0.14623971672E+04  0.00000000000E+00 0. -1.
          1   -1    0    0  501    0  0.00000000000E+00 -0.00000000000E+00 -0.20369068298E+04  0.20369068298E+04  0.00000000000E+00 0.  1.
         23    2    1    2    0    0  0.17173372530E+03  0.64563621946E+03 -0.18994250606E+04  0.20154780596E+04  0.89429569422E+02 0.  0.
         13    1    3    3    0    0  0.15743939765E+03  0.44456394481E+03 -0.12834616488E+04  0.13673690317E+04  0.00000000000E+00 0. -1.
        -13    1    3    3    0    0  0.14294327645E+02  0.20107227465E+03 -0.61596341182E+03  0.64810902797E+03  0.00000000000E+00 0.  1.
         22    1    1    2    0    0 -0.17173372530E+03 -0.64563621946E+03  0.13249153980E+04  0.14838259373E+04  0.00000000000E+00 0. -1.
<mgrwt>
<rscale>  0 0.34518208E+04</rscale>
<asrwt>0</asrwt>
<pdfrwt beam="1">  1        1 0.31337028E+00 0.34518208E+04</pdfrwt>
<pdfrwt beam="2">  1       -1 0.22498418E+00 0.34518208E+04</pdfrwt>
<totfact> 0.23486725E-01</totfact>
</mgrwt>
</event>
<event>
 6    1  0.5196787E-004  0.3292076E+04  0.7818608E-02  0.8164915E-01
          2   -1    0    0  501    0  0.00000000000E+00  0.00000000000E+00  0.39220226348E+04  0.39220226348E+04  0.00000000000E+00 0.  1.
         -2   -1    0    0    0  501 -0.00000000000E+00 -0.00000000000E+00 -0.69082761067E+03  0.69082761067E+03  0.00000000000E+00 0. -1.
         23    2    1    2    0    0  0.13131898238E+04  0.61371362284E+03  0.27059498394E+04  0.30710998025E+04  0.91528899577E+02 0.  0.
         13    1    3    3    0    0  0.43842924590E+03  0.19164177993E+03  0.80736089991E+03  0.93849794788E+03  0.00000000000E+00 0. -1.
        -13    1    3    3    0    0  0.87476057792E+03  0.42207184292E+03  0.18985889395E+04  0.21326018547E+04  0.00000000000E+00 0.  1.
         22    1    1    2    0    0 -0.13131898238E+04 -0.61371362284E+03  0.52524518472E+03  0.15417504429E+04  0.00000000000E+00 0. -1.
<mgrwt>
<rscale>  0 0.32920763E+04</rscale>
<asrwt>0</asrwt>
<pdfrwt beam="1">  1        2 0.60338809E+00 0.32920763E+04</pdfrwt>
<pdfrwt beam="2">  1       -2 0.10628117E+00 0.32920763E+04</pdfrwt>
<totfact> 0.23521672E-01</totfact>
</mgrwt>
</event>
<event>
 6    1  0.5196787E-004  0.1499378E+04  0.7818608E-02  0.8884867E-01
         -2   -1    0    0    0  501 -0.00000000000E+00  0.00000000000E+00  0.35803920216E+03  0.35803920216E+03  0.00000000000E+00 0. -1.
          2   -1    0    0  501    0  0.00000000000E+00 -0.00000000000E+00 -0.15697540656E+04  0.15697540656E+04  0.00000000000E+00 0.  1.
         23    2    1    2    0    0 -0.69978083943E+02 -0.60408864387E+03 -0.11655954116E+04  0.13179186694E+04  0.92070264857E+02 0.  0.
         13    1    3    3    0    0  0.42248472023E+01 -0.19957825513E+03 -0.31164940402E+03  0.37010090554E+03  0.00000000000E+00 0. -1.
        -13    1    3    3    0    0 -0.74202931145E+02 -0.40451038875E+03 -0.85394600762E+03  0.94781776388E+03  0.00000000000E+00 0.  1.
         22    1    1    2    0    0  0.69978083943E+02  0.60408864387E+03 -0.46119451821E+02  0.60987459836E+03  0.00000000000E+00 0.  1.
<mgrwt>
<rscale>  0 0.14993779E+04</rscale>
<asrwt>0</asrwt>
<pdfrwt beam="1">  1        2 0.24150062E+00 0.14993779E+04</pdfrwt>
<pdfrwt beam="2">  1       -2 0.55082955E-01 0.14993779E+04</pdfrwt>
<totfact> 0.34719518E+01</totfact>
</mgrwt>
</event>
<event>
 6    1  0.5196787E-004  0.3057551E+04  0.7818608E-02  0.8227485E-01
          2   -1    0    0  501    0  0.00000000000E+00  0.00000000000E+00  0.11216854239E+04  0.11216854239E+04  0.00000000000E+00 0.  1.
         -2   -1    0    0    0  501 -0.00000000000E+00 -0.00000000000E+00 -0.20836091924E+04  0.20836091924E+04  0.00000000000E+00 0. -1.
         23    2    1    2    0    0  0.65948398832E+02  0.91813779210E+03  0.79640509500E+03  0.12205914674E+04  0.90863955688E+02 0.  0.
         11    1    3    3    0    0  0.85354690255E+02  0.61271141163E+03  0.51793711113E+03  0.80682064189E+03  0.00000000000E+00 0. -1.
        -11    1    3    3    0    0 -0.19406291423E+02  0.30542638047E+03  0.27846798387E+03  0.41377082555E+03  0.00000000000E+00 0.  1.
         22    1    1    2    0    0 -0.65948398832E+02 -0.91813779210E+03 -0.17583288635E+04  0.19847031488E+04  0.00000000000E+00 0. -1.
<mgrwt>
<rscale>  0 0.30575507E+04</rscale>
<asrwt>0</asrwt>
<pdfrwt beam="1">  1        2 0.17256699E+00 0.30575507E+04</pdfrwt>
<pdfrwt beam="2">  1       -2 0.32055526E+00 0.30575507E+04</pdfrwt>
<totfact> 0.42752701E-01</totfact>
</mgrwt>
</event>
<event>
 6    1  0.5196787E-004  0.2624898E+04  0.7818608E-02  0.8359793E-01
         -2   -1    0    0    0  501 -0.00000000000E+00  0.00000000000E+00  0.47087897889E+03  0.47087897889E+03  0.00000000000E+00 0.  1.
          2   -1    0    0  501    0  0.00000000000E+00 -0.00000000000E+00 -0.36580990762E+04  0.36580990762E+04  0.00000000000E+00 0. -1.
         23    2    1    2    0    0 -0.10716732750E+04 -0.39055874052E+03 -0.57893995804E+03  0.12822000477E+04  0.88576233985E+02 0.  0.
         11    1    3    3    0    0 -0.57019667811E+03 -0.20980564484E+03 -0.35775242024E+03  0.70507407733E+03  0.00000000000E+00 0.  1.
        -11    1    3    3    0    0 -0.50147659692E+03 -0.18075309568E+03 -0.22118753780E+03  0.57712597042E+03  0.00000000000E+00 0. -1.
         22    1    1    2    0    0  0.10716732750E+04  0.39055874052E+03 -0.26082801392E+04  0.28467780073E+04  0.00000000000E+00 0. -1.
<mgrwt>
<rscale>  0 0.26248977E+04</rscale>
<asrwt>0</asrwt>
<pdfrwt beam="1">  1        2 0.56278446E+00 0.26248977E+04</pdfrwt>
<pdfrwt beam="2">  1       -2 0.72442922E-01 0.26248977E+04</pdfrwt>
<totfact> 0.95457385E-01</totfact>
</mgrwt>
</event>
<event>
 6    1  0.5196787E-004  0.3465501E+04  0.7818608E-02  0.8122015E-01
         -2   -1    0    0    0  501 -0.00000000000E+00  0.00000000000E+00  0.13959870547E+04  0.13959870547E+04  0.00000000000E+00 0. -1.
          2   -1    0    0  501    0  0.00000000000E+00 -0.00000000000E+00 -0.21507535330E+04  0.21507535330E+04  0.00000000000E+00 0.  1.
         23    2    1    2    0    0  0.38513276466E+03 -0.11029367760E+04  0.93044850408E+03  0.14961927791E+04  0.89786608357E+02 0.  0.
         11    1    3    3    0    0  0.22351459930E+03 -0.57164709775E+03  0.43891084081E+03  0.75457399017E+03  0.00000000000E+00 0. -1.
        -11    1    3    3    0    0  0.16161816537E+03 -0.53128967829E+03  0.49153766327E+03  0.74161878890E+03  0.00000000000E+00 0.  1.
         22    1    1    2    0    0 -0.38513276466E+03  0.11029367760E+04 -0.16852149824E+04  0.20505478085E+04  0.00000000000E+00 0.  1.
<mgrwt>
<rscale>  0 0.34655009E+04</rscale>
<asrwt>0</asrwt>
<pdfrwt beam="1">  1        2 0.33088516E+00 0.34655009E+04</pdfrwt>
<pdfrwt beam="2">  1       -2 0.21476724E+00 0.34655009E+04</pdfrwt>
<totfact> 0.48398830E-01</totfact>
</mgrwt>
</event>
<event>
 6    1  0.5196787E-004  0.4025502E+04  0.7818608E-02  0.7999422E-01
          2   -1    0    0  501    0  0.00000000000E+00  0.00000000000E+00  0.35820024783E+04  0.35820024783E+04  0.00000000000E+00 0.  1.
         -2   -1    0    0    0  501 -0.00000000000E+00 -0.00000000000E+00 -0.11309781829E+04  0.11309781829E+04  0.00000000000E+00 0. -1.
         23    2    1    2    0    0 -0.12616979963E+04  0.87285935321E+03 -0.29803811638E+03  0.15647892076E+04  0.77286873732E+02 0.  0.
         13    1    3    3    0    0 -0.90024531623E+03  0.60181796318E+03 -0.24146783679E+03  0.11094742928E+04  0.00000000000E+00 0. -1.
        -13    1    3    3    0    0 -0.36145268010E+03  0.27104139003E+03 -0.56570279581E+02  0.45531491475E+03  0.00000000000E+00 0.  1.
         22    1    1    2    0    0  0.12616979963E+04 -0.87285935321E+03  0.27490624118E+04  0.31481914536E+04  0.00000000000E+00 0.  1.
<mgrwt>
<rscale>  0 0.40255020E+04</rscale>
<asrwt>0</asrwt>
<pdfrwt beam="1">  1        2 0.55107730E+00 0.40255020E+04</pdfrwt>
<pdfrwt beam="2">  1       -2 0.17399664E+00 0.40255020E+04</pdfrwt>
<totfact> 0.11158383E-01</totfact>
</mgrwt>
</event>
<event>
 6    1  0.5196787E-004  0.2126792E+04  0.7818608E-02  0.8549532E-01
         -2   -1    0    0    0  501 -0.00000000000E+00  0.00000000000E+00  0.32858592295E+03  0.32858592295E+03  0.00000000000E+00 0. -1.
          2   -1    0    0  501    0  0.00000000000E+00 -0.00000000000E+00 -0.34414454876E+04  0.34414454876E+04  0.00000000000E+00 0.  1.
         23    2    1    2    0    0  0.85600568547E+03  0.24070791849E+03 -0.53242588628E+03  0.10406864334E+04  0.94153559704E+02 0.  0.
         11    1    3    3    0    0  0.81572419769E+02  0.25224690918E+02 -0.20978580393E+02  0.87922952260E+02  0.00000000000E+00 0. -1.
        -11    1    3    3    0    0  0.77443326570E+03  0.21548322757E+03 -0.51144730589E+03  0.95276348119E+03  0.00000000000E+00 0.  1.
         22    1    1    2    0    0 -0.85600568547E+03 -0.24070791849E+03 -0.25804336784E+04  0.27293449771E+04  0.00000000000E+00 0.  1.
<mgrwt>
<rscale>  0 0.21267915E+04</rscale>
<asrwt>0</asrwt>
<pdfrwt beam="1">  1        2 0.52945313E+00 0.21267915E+04</pdfrwt>
<pdfrwt beam="2">  1       -2 0.50551682E-01 0.21267915E+04</pdfrwt>
<totfact> 0.30499356E+00</totfact>
</mgrwt>
</event>
<event>
 6    1  0.5196787E-004  0.2553559E+04  0.7818608E-02  0.8384150E-01
         -2   -1    0    0    0  501 -0.00000000000E+00  0.00000000000E+00  0.12552620256E+04  0.12552620256E+04  0.00000000000E+00 0. -1.
          2   -1    0    0  501    0  0.00000000000E+00 -0.00000000000E+00 -0.12986655335E+04  0.12986655335E+04  0.00000000000E+00 0.  1.
         23    2    1    2    0    0 -0.84657404330E+03 -0.60992337372E+03 -0.75485642940E+03  0.12910501335E+04  0.91148701123E+02 0.  0.
         13    1    3    3    0    0 -0.28164490847E+03 -0.16115175353E+03 -0.20364580499E+03  0.38309966853E+03  0.00000000000E+00 0. -1.
        -13    1    3    3    0    0 -0.56492913483E+03 -0.44877162019E+03 -0.55121062440E+03  0.90795046501E+03  0.00000000000E+00 0.  1.
         22    1    1    2    0    0  0.84657404330E+03  0.60992337372E+03  0.71145292142E+03  0.12628774256E+04  0.00000000000E+00 0. -1.
<mgrwt>
<rscale>  0 0.25535587E+04</rscale>
<asrwt>0</asrwt>
<pdfrwt beam="1">  1        2 0.19979470E+00 0.25535587E+04</pdfrwt>
<pdfrwt beam="2">  1       -2 0.19311724E+00 0.25535587E+04</pdfrwt>
<totfact> 0.21724910E+00</totfact>
</mgrwt>
</event>
<event>
 6    1  0.5196787E-004  0.2501125E+04  0.7818608E-02  0.8402585E-01
         -2   -1    0    0    0  501 -0.00000000000E+00  0.00000000000E+00  0.85686547000E+03  0.85686547000E+03  0.00000000000E+00 0. -1.
          2   -1    0    0  501    0  0.00000000000E+00 -0.00000000000E+00 -0.18251485022E+04  0.18251485022E+04  0.00000000000E+00 0.  1.
         23    2    1    2    0    0  0.59071420226E+03 -0.90483052412E+02  0.69119710948E+03  0.91820990369E+03  0.90694716275E+02 0.  0.
         13    1    3    3    0    0  0.63324251929E+02 -0.43865614213E+01  0.12171728892E+03  0.13727454689E+03  0.00000000000E+00 0. -1.
        -13    1    3    3    0    0  0.52738995033E+03 -0.86096490991E+02  0.56947982056E+03  0.78093535679E+03  0.00000000000E+00 0.  1.
         22    1    1    2    0    0 -0.59071420226E+03  0.90483052412E+02 -0.16594801417E+04  0.17638040686E+04  0.00000000000E+00 0.  1.
<mgrwt>
<rscale>  0 0.25011251E+04</rscale>
<asrwt>0</asrwt>
<pdfrwt beam="1">  1        2 0.28079208E+00 0.25011251E+04</pdfrwt>
<pdfrwt beam="2">  1       -2 0.13182546E+00 0.25011251E+04</pdfrwt>
<totfact> 0.31240377E+00</totfact>
</mgrwt>
</event>
<event>
 6    1  0.5196787E-004  0.1227657E+04  0.7818608E-02  0.9088987E-01
         -2   -1    0    0    0  501 -0.00000000000E+00  0.00000000000E+00  0.43878020458E+03  0.43878020458E+03  0.00000000000E+00 0. -1.
          2   -1    0    0  501    0  0.00000000000E+00 -0.00000000000E+00 -0.85871135599E+03  0.85871135599E+03  0.00000000000E+00 0.  1.
         23    2    1    2    0    0  0.54485704704E+03 -0.17422968077E+03  0.14108276657E+02  0.57942790847E+03  0.91172771555E+02 0.  0.
         13    1    3    3    0    0  0.52188270753E+03 -0.14420672568E+03  0.14089540192E+02  0.54162316724E+03  0.00000000000E+00 0. -1.
        -13    1    3    3    0    0  0.22974339510E+02 -0.30022955090E+02  0.18736464524E-01  0.37804741228E+02  0.00000000000E+00 0.  1.
         22    1    1    2    0    0 -0.54485704704E+03  0.17422968077E+03 -0.43403942806E+03  0.71806365210E+03  0.00000000000E+00 0.  1.
<mgrwt>
<rscale>  0 0.12276572E+04</rscale>
<asrwt>0</asrwt>
<pdfrwt beam="1">  1        2 0.13210944E+00 0.12276572E+04</pdfrwt>
<pdfrwt beam="2">  1       -2 0.67504648E-01 0.12276572E+04</pdfrwt>
<totfact> 0.62043028E+01</totfact>
</mgrwt>
</event>
<event>
 6    1  0.5196787E-004  0.1820839E+04  0.7818608E-02  0.8695295E-01
         -2   -1    0    0    0  501 -0.00000000000E+00  0.00000000000E+00  0.51974683844E+03  0.51974683844E+03  0.00000000000E+00 0. -1.
          2   -1    0    0  501    0  0.00000000000E+00 -0.00000000000E+00 -0.15947446842E+04  0.15947446842E+04  0.00000000000E+00 0.  1.
         23    2    1    2    0    0  0.99481826606E+02  0.22461962137E+03 -0.15540877113E+04  0.15760885997E+04  0.92282456175E+02 0.  0.
         11    1    3    3    0    0  0.67140947617E+02  0.98230095549E+02 -0.50020396628E+03  0.51416054536E+03  0.00000000000E+00 0. -1.
        -11    1    3    3    0    0  0.32340878989E+02  0.12638952582E+03 -0.10538837450E+04  0.10619280544E+04  0.00000000000E+00 0.  1.
         22    1    1    2    0    0 -0.99481826606E+02 -0.22461962137E+03  0.47908986553E+03  0.53840292290E+03  0.00000000000E+00 0. -1.
<mgrwt>
<rscale>  0 0.18208388E+04</rscale>
<asrwt>0</asrwt>
<pdfrwt beam="1">  1        2 0.24534533E+00 0.18208388E+04</pdfrwt>
<pdfrwt beam="2">  1       -2 0.79961053E-01 0.18208388E+04</pdfrwt>
<totfact> 0.14643088E+01</totfact>
</mgrwt>
</event>
<event>
 6    1  0.5196787E-004  0.1004735E+04  0.7818608E-02  0.9303367E-01
         -2   -1    0    0    0  501 -0.00000000000E+00  0.00000000000E+00  0.36047266859E+03  0.36047266859E+03  0.00000000000E+00 0. -1.
          2   -1    0    0  501    0  0.00000000000E+00 -0.00000000000E+00 -0.70011728919E+03  0.70011728919E+03  0.00000000000E+00 0.  1.
         23    2    1    2    0    0 -0.31399200728E+03 -0.15309685236E+03 -0.54621818310E+03  0.65475469124E+03  0.91212802390E+02 0.  0.
         11    1    3    3    0    0 -0.91069277631E+02 -0.35014986314E+02 -0.23284283949E+03  0.25245880950E+03  0.00000000000E+00 0.  1.
        -11    1    3    3    0    0 -0.22292272965E+03 -0.11808186605E+03 -0.31337534362E+03  0.40229588174E+03  0.00000000000E+00 0. -1.
         22    1    1    2    0    0  0.31399200728E+03  0.15309685236E+03  0.20657356250E+03  0.40583526653E+03  0.00000000000E+00 0. -1.
<mgrwt>
<rscale>  0 0.10047351E+04</rscale>
<asrwt>0</asrwt>
<pdfrwt beam="1">  1        2 0.10771035E+00 0.10047351E+04</pdfrwt>
<pdfrwt beam="2">  1       -2 0.55457333E-01 0.10047351E+04</pdfrwt>
<totfact> 0.12499191E+02</totfact>
</mgrwt>
</event>
<event>
 6    1  0.5196787E-004  0.5115816E+04  0.7818608E-02  0.7810886E-01
          2   -1    0    0  501    0  0.00000000000E+00  0.00000000000E+00  0.35812974174E+04  0.35812974174E+04  0.00000000000E+00 0. -1.
         -2   -1    0    0    0  501 -0.00000000000E+00 -0.00000000000E+00 -0.18269616351E+04  0.18269616351E+04  0.00000000000E+00 0.  1.
         23    2    1    2    0    0  0.19351287742E+04  0.52599768862E+03  0.25547480847E+04  0.32490793945E+04  0.91554324959E+02 0.  0.
         11    1    3    3    0    0  0.96367194062E+03  0.22836674091E+03  0.13133848883E+04  0.16449300418E+04  0.00000000000E+00 0. -1.
        -11    1    3    3    0    0  0.97145683362E+03  0.29763094772E+03  0.12413631964E+04  0.16041493527E+04  0.00000000000E+00 0.  1.
         22    1    1    2    0    0 -0.19351287742E+04 -0.52599768862E+03 -0.80041230237E+03  0.21591796579E+04  0.00000000000E+00 0. -1.
<mgrwt>
<rscale>  0 0.51158159E+04</rscale>
<asrwt>0</asrwt>
<pdfrwt beam="1">  1        2 0.55096883E+00 0.51158159E+04</pdfrwt>
<pdfrwt beam="2">  1       -2 0.28107102E+00 0.51158159E+04</pdfrwt>
<totfact> 0.21258396E-02</totfact>
</mgrwt>
</event>
<event>
 6    1  0.5196787E-004  0.4156617E+04  0.7818608E-02  0.7973676E-01
          2   -1    0    0  501    0  0.00000000000E+00  0.00000000000E+00  0.91340365850E+03  0.91340365850E+03  0.00000000000E+00 0.  1.
         -2   -1    0    0    0  501 -0.00000000000E+00 -0.00000000000E+00 -0.47288678434E+04  0.47288678434E+04  0.00000000000E+00 0. -1.
         23    2    1    2    0    0  0.10798242836E+04 -0.40517172689E+03  0.43628571676E+03  0.12368700630E+04  0.96528308186E+02 0.  0.
         13    1    3    3    0    0  0.48881419274E+03 -0.15986972431E+03  0.24007703038E+03  0.56756904804E+03  0.00000000000E+00 0. -1.
        -13    1    3    3    0    0  0.59101009088E+03 -0.24530200257E+03  0.19620868638E+03  0.66930101494E+03  0.00000000000E+00 0.  1.
         22    1    1    2    0    0 -0.10798242836E+04  0.40517172689E+03 -0.42517499017E+04  0.44054014389E+04  0.00000000000E+00 0. -1.
<mgrwt>
<rscale>  0 0.41566165E+04</rscale>
<asrwt>0</asrwt>
<pdfrwt beam="1">  1        2 0.14052364E+00 0.41566165E+04</pdfrwt>
<pdfrwt beam="2">  1       -2 0.72751813E+00 0.41566165E+04</pdfrwt>
<totfact> 0.40065749E-03</totfact>
</mgrwt>
</event>
<event>
 6    1  0.5196787E-004  0.6778374E+03  0.7818608E-02  0.9755902E-01
          1   -1    0    0  501    0  0.00000000000E+00  0.00000000000E+00  0.37808141627E+03  0.37808141627E+03  0.00000000000E+00 0.  1.
         -1   -1    0    0    0  501 -0.00000000000E+00 -0.00000000000E+00 -0.30381254319E+03  0.30381254319E+03  0.00000000000E+00 0. -1.
         23    2    1    2    0    0  0.32808498621E+03 -0.17828903127E+02  0.90550436112E+02  0.35292174596E+03  0.91633778294E+02 0.  0.
         11    1    3    3    0    0  0.20636044831E+03 -0.50037779748E+02  0.78684384028E+02  0.22645009675E+03  0.00000000000E+00 0.  1.
        -11    1    3    3    0    0  0.12172453790E+03  0.32208876621E+02  0.11866052084E+02  0.12647164920E+03  0.00000000000E+00 0. -1.
         22    1    1    2    0    0 -0.32808498621E+03  0.17828903127E+02 -0.16281563035E+02  0.32897221350E+03  0.00000000000E+00 0.  1.
<mgrwt>
<rscale>  0 0.67783737E+03</rscale>
<asrwt>0</asrwt>
<pdfrwt beam="1">  1        1 0.58166371E-01 0.67783737E+03</pdfrwt>
<pdfrwt beam="2">  1       -1 0.46740392E-01 0.67783737E+03</pdfrwt>
<totfact> 0.29892345E+02</totfact>
</mgrwt>
</event>
<event>
 6    1  0.5196787E-004  0.1117341E+04  0.7818608E-02  0.9188453E-01
          2   -1    0    0  501    0  0.00000000000E+00  0.00000000000E+00  0.14345501989E+04  0.14345501989E+04  0.00000000000E+00 0.  1.
         -2   -1    0    0    0  501 -0.00000000000E+00 -0.00000000000E+00 -0.21756835787E+03  0.21756835787E+03  0.00000000000E+00 0. -1.
         23    2    1    2    0    0  0.55014793085E+03  0.63560827922E+02  0.65997827740E+03  0.86665328411E+03  0.93882179065E+02 0.  0.
         11    1    3    3    0    0  0.26268216414E+03  0.50319400992E+00  0.36757093770E+03  0.45178597455E+03  0.00000000000E+00 0. -1.
        -11    1    3    3    0    0  0.28746576671E+03  0.63057633912E+02  0.29240733971E+03  0.41486730956E+03  0.00000000000E+00 0.  1.
         22    1    1    2    0    0 -0.55014793085E+03 -0.63560827922E+02  0.55700356359E+03  0.78546527264E+03  0.00000000000E+00 0.  1.
<mgrwt>
<rscale>  0 0.11173410E+04</rscale>
<asrwt>0</asrwt>
<pdfrwt beam="1">  1        2 0.22070002E+00 0.11173410E+04</pdfrwt>
<pdfrwt beam="2">  1       -2 0.33472056E-01 0.11173410E+04</pdfrwt>
<totfact> 0.11431276E+02</totfact>
</mgrwt>
</event>
<event>
 6    1  0.5196787E-004  0.1148124E+04  0.7818608E-02  0.9159516E-01
          2   -1    0    0  501    0  0.00000000000E+00  0.00000000000E+00  0.56070805325E+03  0.56070805325E+03  0.00000000000E+00 0.  1.
         -2   -1    0    0    0  501 -0.00000000000E+00 -0.00000000000E+00 -0.58773407540E+03  0.58773407540E+03  0.00000000000E+00 0. -1.
         23    2    1    2    0    0  0.44019101353E+03  0.34092850424E+03  0.11082097312E+03  0.57485502324E+03  0.90424754669E+02 0.  0.
         13    1    3    3    0    0  0.16949484604E+03  0.82636175270E+02  0.18446394464E+02  0.18946638162E+03  0.00000000000E+00 0.  1.
        -13    1    3    3    0    0  0.27069616749E+03  0.25829232897E+03  0.92374578651E+02  0.38538864161E+03  0.00000000000E+00 0. -1.
         22    1    1    2    0    0 -0.44019101353E+03 -0.34092850424E+03 -0.13784699526E+03  0.57358710542E+03  0.00000000000E+00 0. -1.
<mgrwt>
<rscale>  0 0.11481241E+04</rscale>
<asrwt>0</asrwt>
<pdfrwt beam="1">  1        2 0.86262777E-01 0.11481241E+04</pdfrwt>
<pdfrwt beam="2">  1       -2 0.90420627E-01 0.11481241E+04</pdfrwt>
<totfact> 0.55712017E+01</totfact>
</mgrwt>
</event>
<event>
 6    1  0.5196787E-004  0.2236652E+04  0.7818608E-02  0.8503326E-01
          2   -1    0    0  501    0  0.00000000000E+00  0.00000000000E+00  0.30577744116E+04  0.30577744116E+04  0.00000000000E+00 0. -1.
         -2   -1    0    0    0  501 -0.00000000000E+00 -0.00000000000E+00 -0.40900752686E+03  0.40900752686E+03  0.00000000000E+00 0.  1.
         23    2    1    2    0    0 -0.51306220874E+03 -0.99046575235E+03  0.13937477726E+04  0.17876964110E+04  0.95238478138E+02 0.  0.
         11    1    3    3    0    0 -0.32449418081E+03 -0.58791646518E+03  0.90661014444E+03  0.11282216969E+04  0.00000000000E+00 0. -1.
        -11    1    3    3    0    0 -0.18856802793E+03 -0.40254928716E+03  0.48713762817E+03  0.65947471409E+03  0.00000000000E+00 0.  1.
         22    1    1    2    0    0  0.51306220874E+03  0.99046575235E+03  0.12550191121E+04  0.16790855274E+04  0.00000000000E+00 0. -1.
<mgrwt>
<rscale>  0 0.22366517E+04</rscale>
<asrwt>0</asrwt>
<pdfrwt beam="1">  1        2 0.47042682E+00 0.22366517E+04</pdfrwt>
<pdfrwt beam="2">  1       -2 0.62924237E-01 0.22366517E+04</pdfrwt>
<totfact> 0.34191338E+00</totfact>
</mgrwt>
</event>
<event>
 6    1  0.5196787E-004  0.2973497E+04  0.7818608E-02  0.8251340E-01
         -2   -1    0    0    0  501 -0.00000000000E+00  0.00000000000E+00  0.13495019594E+04  0.13495019594E+04  0.00000000000E+00 0. -1.
          2   -1    0    0  501    0  0.00000000000E+00 -0.00000000000E+00 -0.16379531588E+04  0.16379531588E+04  0.00000000000E+00 0.  1.
         23    2    1    2    0    0 -0.60648497913E+03 -0.70722890072E+03 -0.13067589160E+04  0.16072568160E+04  0.87514912579E+02 0.  0.
         11    1    3    3    0    0 -0.90210646985E+02 -0.15137698638E+03 -0.27504439897E+03  0.32665329363E+03  0.00000000000E+00 0.  1.
        -11    1    3    3    0    0 -0.51627433215E+03 -0.55585191434E+03 -0.10317145171E+04  0.12806035223E+04  0.00000000000E+00 0. -1.
         22    1    1    2    0    0  0.60648497913E+03  0.70722890072E+03  0.10183077166E+04  0.13801983023E+04  0.00000000000E+00 0. -1.
<mgrwt>
<rscale>  0 0.29734969E+04</rscale>
<asrwt>0</asrwt>
<pdfrwt beam="1">  1        2 0.25199279E+00 0.29734969E+04</pdfrwt>
<pdfrwt beam="2">  1       -2 0.20761569E+00 0.29734969E+04</pdfrwt>
<totfact> 0.10809779E+00</totfact>
</mgrwt>
</event>
<event>
 6    1  0.5196787E-004  0.1948620E+04  0.7818608E-02  0.8631027E-01
          2   -1    0    0  501    0  0.00000000000E+00  0.00000000000E+00  0.17208275726E+04  0.17208275726E+04  0.00000000000E+00 0.  1.
         -2   -1    0    0    0  501 -0.00000000000E+00 -0.00000000000E+00 -0.55164131377E+03  0.55164131377E+03  0.00000000000E+00 0. -1.
         23    2    1    2    0    0  0.20650841580E+03 -0.26485650961E+03 -0.47754240295E+03  0.59184103286E+03  0.97130659845E+02 0.  0.
         13    1    3    3    0    0  0.19728514735E+03 -0.18903928692E+03 -0.37245200867E+03  0.46192832791E+03  0.00000000000E+00 0.  1.
        -13    1    3    3    0    0  0.92232684519E+01 -0.75817222691E+02 -0.10509039428E+03  0.12991270495E+03  0.00000000000E+00 0. -1.
         22    1    1    2    0    0 -0.20650841580E+03  0.26485650961E+03  0.16467286617E+04  0.16806278535E+04  0.00000000000E+00 0.  1.
<mgrwt>
<rscale>  0 0.19486196E+04</rscale>
<asrwt>0</asrwt>
<pdfrwt beam="1">  1        2 0.26474270E+00 0.19486196E+04</pdfrwt>
<pdfrwt beam="2">  1       -2 0.84867895E-01 0.19486196E+04</pdfrwt>
<totfact> 0.10771119E+01</totfact>
</mgrwt>
</event>
<event>
 6    1  0.5196787E-004  0.3428494E+04  0.7818608E-02  0.8130948E-01
          2   -1    0    0  501    0  0.00000000000E+00  0.00000000000E+00  0.14618565158E+04  0.14618565158E+04  0.00000000000E+00 0.  1.
         -2   -1    0    0    0  501 -0.00000000000E+00 -0.00000000000E+00 -0.20102134507E+04  0.20102134507E+04  0.00000000000E+00 0. -1.
         23    2    1    2    0    0 -0.94188177267E+03 -0.43000279241E+03 -0.16564558199E+04  0.19555190066E+04  0.90360536082E+02 0.  0.
         13    1    3    3    0    0 -0.66555176026E+03 -0.31584671186E+03 -0.12501192497E+04  0.14510397753E+04  0.00000000000E+00 0. -1.
        -13    1    3    3    0    0 -0.27633001242E+03 -0.11415608054E+03 -0.40633657018E+03  0.50447923124E+03  0.00000000000E+00 0.  1.
         22    1    1    2    0    0  0.94188177267E+03  0.43000279241E+03  0.11080988850E+04  0.15165509599E+04  0.00000000000E+00 0.  1.
<mgrwt>
<rscale>  0 0.34284945E+04</rscale>
<asrwt>0</asrwt>
<pdfrwt beam="1">  1        2 0.22490100E+00 0.34284945E+04</pdfrwt>
<pdfrwt beam="2">  1       -2 0.30926360E+00 0.34284945E+04</pdfrwt>
<totfact> 0.30743253E-01</totfact>
</mgrwt>
</event>
<event>
 6    1  0.5196787E-004  0.4975781E+03  0.7818608E-02  0.1014413E+00
         -2   -1    0    0    0  501 -0.00000000000E+00  0.00000000000E+00  0.55751527108E+02  0.55751527108E+02  0.00000000000E+00 0. -1.
          2   -1    0    0  501    0  0.00000000000E+00 -0.00000000000E+00 -0.11102117343E+04  0.11102117343E+04  0.00000000000E+00 0.  1.
         23    2    1    2    0    0  0.51361889547E+01  0.16952314529E+03 -0.14672830550E+03  0.24252312660E+03  0.92324395882E+02 0.  0.
         11    1    3    3    0    0 -0.34359154059E+02  0.77883699428E+02 -0.33194753747E+02  0.91369107364E+02  0.00000000000E+00 0. -1.
        -11    1    3    3    0    0  0.39495343013E+02  0.91639445862E+02 -0.11353355175E+03  0.15115401923E+03  0.00000000000E+00 0.  1.
         22    1    1    2    0    0 -0.51361889547E+01 -0.16952314529E+03 -0.90773190169E+03  0.92344013481E+03  0.00000000000E+00 0.  1.
<mgrwt>
<rscale>  0 0.49757813E+03</rscale>
<asrwt>0</asrwt>
<pdfrwt beam="1">  1        2 0.17080181E+00 0.49757813E+03</pdfrwt>
<pdfrwt beam="2">  1       -2 0.85771580E-02 0.49757813E+03</pdfrwt>
<totfact> 0.19058135E+03</totfact>
</mgrwt>
</event>
<event>
 6    1  0.5196787E-004  0.2520078E+03  0.7818608E-02  0.1112042E+00
         -2   -1    0    0    0  501 -0.00000000000E+00  0.00000000000E+00  0.17542013959E+02  0.17542013959E+02  0.00000000000E+00 0. -1.
          2   -1    0    0  501    0  0.00000000000E+00 -0.00000000000E+00 -0.90508334144E+03  0.90508334144E+03  0.00000000000E+00 0.  1.
         23    2    1    2    0    0  0.77329108729E+02  0.52140041135E+02 -0.33992172106E+03  0.36712053249E+03  0.10262716003E+03 0.  0.
         11    1    3    3    0    0  0.35107940155E+02  0.51738119592E+02 -0.30775037867E+03  0.31403773030E+03  0.00000000000E+00 0.  1.
        -11    1    3    3    0    0  0.42221168574E+02  0.40192154296E+00 -0.32171342397E+02  0.53082802189E+02  0.00000000000E+00 0. -1.
         22    1    1    2    0    0 -0.77329108729E+02 -0.52140041135E+02 -0.54761960642E+03  0.55550482291E+03  0.00000000000E+00 0.  1.
<mgrwt>
<rscale>  0 0.25200781E+03</rscale>
<asrwt>0</asrwt>
<pdfrwt beam="1">  1        2 0.13924363E+00 0.25200781E+03</pdfrwt>
<pdfrwt beam="2">  1       -2 0.26987707E-02 0.25200781E+03</pdfrwt>
<totfact> 0.14841688E+04</totfact>
</mgrwt>
</event>
<event>
 6    1  0.5196787E-004  0.2534850E+04  0.7818608E-02  0.8390674E-01
         -2   -1    0    0    0  501 -0.00000000000E+00  0.00000000000E+00  0.89236296017E+03  0.89236296017E+03  0.00000000000E+00 0. -1.
          2   -1    0    0  501    0  0.00000000000E+00 -0.00000000000E+00 -0.18001265023E+04  0.18001265023E+04  0.00000000000E+00 0.  1.
         23    2    1    2    0    0  0.35278034671E+03  0.12095946325E+04 -0.58388209978E+03  0.13915389113E+04  0.88820534008E+02 0.  0.
         13    1    3    3    0    0  0.17562075178E+03  0.45015921421E+03 -0.23131736857E+03  0.53571792167E+03  0.00000000000E+00 0. -1.
        -13    1    3    3    0    0  0.17715959494E+03  0.75943541825E+03 -0.35256473121E+03  0.85582098961E+03  0.00000000000E+00 0.  1.
         22    1    1    2    0    0 -0.35278034671E+03 -0.12095946325E+04 -0.32388144234E+03  0.13009505512E+04  0.00000000000E+00 0.  1.
<mgrwt>
<rscale>  0 0.25348501E+04</rscale>
<asrwt>0</asrwt>
<pdfrwt beam="1">  1        2 0.27694254E+00 0.25348501E+04</pdfrwt>
<pdfrwt beam="2">  1       -2 0.13728661E+00 0.25348501E+04</pdfrwt>
<totfact> 0.28995339E+00</totfact>
</mgrwt>
</event>
<event>
 6    1  0.5196787E-004  0.1164865E+04  0.7818608E-02  0.9144178E-01
         -2   -1    0    0    0  501 -0.00000000000E+00  0.00000000000E+00  0.45126358550E+03  0.45126358550E+03  0.00000000000E+00 0. -1.
          2   -1    0    0  501    0  0.00000000000E+00 -0.00000000000E+00 -0.75172873087E+03  0.75172873087E+03  0.00000000000E+00 0.  1.
         23    2    1    2    0    0 -0.29603043447E+03  0.52330179103E+02 -0.66201381892E+03  0.73279032878E+03  0.91361390832E+02 0.  0.
         13    1    3    3    0    0 -0.21395007544E+03  0.76704242677E+02 -0.45004023078E+03  0.50417693813E+03  0.00000000000E+00 0. -1.
        -13    1    3    3    0    0 -0.82080359029E+02 -0.24374063575E+02 -0.21197358814E+03  0.22861339065E+03  0.00000000000E+00 0.  1.
         22    1    1    2    0    0  0.29603043447E+03 -0.52330179103E+02  0.36154867356E+03  0.47020198759E+03  0.00000000000E+00 0. -1.
<mgrwt>
<rscale>  0 0.11648653E+04</rscale>
<asrwt>0</asrwt>
<pdfrwt beam="1">  1        2 0.11565057E+00 0.11648653E+04</pdfrwt>
<pdfrwt beam="2">  1       -2 0.69425167E-01 0.11648653E+04</pdfrwt>
<totfact> 0.70017509E+01</totfact>
</mgrwt>
</event>
<event>
 6    1  0.5196787E-004  0.6544954E+03  0.7818608E-02  0.9798380E-01
         -2   -1    0    0    0  501 -0.00000000000E+00  0.00000000000E+00  0.10246612426E+04  0.10246612426E+04  0.00000000000E+00 0. -1.
          2   -1    0    0  501    0  0.00000000000E+00 -0.00000000000E+00 -0.10451363041E+03  0.10451363041E+03  0.00000000000E+00 0.  1.
         23    2    1    2    0    0 -0.97577926822E+02  0.24758316199E+03  0.16345081600E+03  0.32704713052E+03  0.97081318633E+02 0.  0.
         13    1    3    3    0    0 -0.65596688909E+02  0.21021704485E+03  0.16894921469E+03  0.27755714490E+03  0.00000000000E+00 0.  1.
        -13    1    3    3    0    0 -0.31981237913E+02  0.37366117139E+02 -0.54983986899E+01  0.49489985620E+02  0.00000000000E+00 0. -1.
         22    1    1    2    0    0  0.97577926822E+02 -0.24758316199E+03  0.75669679619E+03  0.80212774248E+03  0.00000000000E+00 0. -1.
<mgrwt>
<rscale>  0 0.65449543E+03</rscale>
<asrwt>0</asrwt>
<pdfrwt beam="1">  1        2 0.16079021E-01 0.65449543E+03</pdfrwt>
<pdfrwt beam="2">  1       -2 0.15764018E+00 0.65449543E+03</pdfrwt>
<totfact> 0.98210943E+01</totfact>
</mgrwt>
</event>
<event>
 6    1  0.5196787E-004  0.7767093E+03  0.7818608E-02  0.9594355E-01
          2   -1    0    0  501    0  0.00000000000E+00  0.00000000000E+00  0.59134356971E+03  0.59134356971E+03  0.00000000000E+00 0.  1.
         -2   -1    0    0    0  501 -0.00000000000E+00 -0.00000000000E+00 -0.25504517575E+03  0.25504517575E+03  0.00000000000E+00 0. -1.
         23    2    1    2    0    0  0.18612843227E+03  0.32313659812E+03  0.73163901577E+02  0.38998890385E+03  0.87620398803E+02 0.  0.
         11    1    3    3    0    0  0.82241040888E+02  0.16687791629E+03 -0.64546098337E+01  0.18615447816E+03  0.00000000000E+00 0. -1.
        -11    1    3    3    0    0  0.10388739138E+03  0.15625868183E+03  0.79618511411E+02  0.20383442568E+03  0.00000000000E+00 0.  1.
         22    1    1    2    0    0 -0.18612843227E+03 -0.32313659812E+03  0.26313449238E+03  0.45639984161E+03  0.00000000000E+00 0.  1.
<mgrwt>
<rscale>  0 0.77670928E+03</rscale>
<asrwt>0</asrwt>
<pdfrwt beam="1">  1        2 0.90975934E-01 0.77670928E+03</pdfrwt>
<pdfrwt beam="2">  1       -2 0.39237719E-01 0.77670928E+03</pdfrwt>
<totfact> 0.31198443E+02</totfact>
</mgrwt>
</event>
<event>
 6    1  0.5196787E-004  0.2722611E+04  0.7818608E-02  0.8327706E-01
         -2   -1    0    0    0  501 -0.00000000000E+00  0.00000000000E+00  0.68081167263E+03  0.68081167263E+03  0.00000000000E+00 0. -1.
          2   -1    0    0  501    0  0.00000000000E+00 -0.00000000000E+00 -0.27219757923E+04  0.27219757923E+04  0.00000000000E+00 0.  1.
         23    2    1    2    0    0  0.54554164869E+03  0.10070227760E+04 -0.19379693644E+04  0.22528484581E+04  0.88827676015E+02 0.  0.
         11    1    3    3    0    0  0.12347583615E+03  0.16121519950E+03 -0.32035473891E+03  0.37929379299E+03  0.00000000000E+00 0.  1.
        -11    1    3    3    0    0  0.42206581254E+03  0.84580757652E+03 -0.16176146255E+04  0.18735546651E+04  0.00000000000E+00 0. -1.
         22    1    1    2    0    0 -0.54554164869E+03 -0.10070227760E+04 -0.10319475528E+03  0.11499390068E+04  0.00000000000E+00 0. -1.
<mgrwt>
<rscale>  0 0.27226112E+04</rscale>
<asrwt>0</asrwt>
<pdfrwt beam="1">  1        2 0.41876552E+00 0.27226112E+04</pdfrwt>
<pdfrwt beam="2">  1       -2 0.10474025E+00 0.27226112E+04</pdfrwt>
<totfact> 0.16678255E+00</totfact>
</mgrwt>
</event>
<event>
 6    1  0.5196787E-004  0.1643376E+04  0.7818608E-02  0.8794335E-01
         -2   -1    0    0    0  501 -0.00000000000E+00  0.00000000000E+00  0.67747282439E+03  0.67747282439E+03  0.00000000000E+00 0. -1.
          2   -1    0    0  501    0  0.00000000000E+00 -0.00000000000E+00 -0.99660217305E+03  0.99660217305E+03  0.00000000000E+00 0.  1.
         23    2    1    2    0    0 -0.52018723739E+03 -0.27520059772E+03  0.42037176250E+03  0.72898662891E+03  0.91536634710E+02 0.  0.
         11    1    3    3    0    0 -0.35909426490E+03 -0.23340162949E+03  0.32010759054E+03  0.53469045368E+03  0.00000000000E+00 0.  1.
        -11    1    3    3    0    0 -0.16109297249E+03 -0.41798968223E+02  0.10026417196E+03  0.19429617523E+03  0.00000000000E+00 0. -1.
         22    1    1    2    0    0  0.52018723739E+03  0.27520059772E+03 -0.73950111116E+03  0.94508836853E+03  0.00000000000E+00 0.  1.
<mgrwt>
<rscale>  0 0.16433757E+04</rscale>
<asrwt>0</asrwt>
<pdfrwt beam="1">  1        2 0.15332341E+00 0.16433757E+04</pdfrwt>
<pdfrwt beam="2">  1       -2 0.10422659E+00 0.16433757E+04</pdfrwt>
<totfact> 0.18107170E+01</totfact>
</mgrwt>
</event>
<event>
 6    1  0.5196787E-004  0.1820682E+04  0.7818608E-02  0.8695378E-01
         -2   -1    0    0    0  501 -0.00000000000E+00  0.00000000000E+00  0.49552122657E+03  0.49552122657E+03  0.00000000000E+00 0. -1.
          2   -1    0    0  501    0  0.00000000000E+00 -0.00000000000E+00 -0.16724222463E+04  0.16724222463E+04  0.00000000000E+00 0.  1.
         23    2    1    2    0    0 -0.90401277469E+03 -0.65135779185E+02 -0.52203834113E+03  0.10497633021E+04  0.89427033239E+02 0.  0.
         11    1    3    3    0    0 -0.61928481439E+03 -0.56305557297E+02 -0.40311919937E+03  0.74107292895E+03  0.00000000000E+00 0.  1.
        -11    1    3    3    0    0 -0.28472796029E+03 -0.88302218879E+01 -0.11891914176E+03  0.30869037314E+03  0.00000000000E+00 0. -1.
         22    1    1    2    0    0  0.90401277469E+03  0.65135779185E+02 -0.65486267864E+03  0.11181801708E+04  0.00000000000E+00 0.  1.
<mgrwt>
<rscale>  0 0.18206820E+04</rscale>
<asrwt>0</asrwt>
<pdfrwt beam="1">  1        2 0.25729573E+00 0.18206820E+04</pdfrwt>
<pdfrwt beam="2">  1       -2 0.76234036E-01 0.18206820E+04</pdfrwt>
<totfact> 0.14744823E+01</totfact>
</mgrwt>
</event>
<event>
 6    1  0.5196787E-004  0.4274784E+04  0.7818608E-02  0.7951297E-01
         -2   -1    0    0    0  501 -0.00000000000E+00  0.00000000000E+00  0.18480115131E+04  0.18480115131E+04  0.00000000000E+00 0. -1.
          2   -1    0    0  501    0  0.00000000000E+00 -0.00000000000E+00 -0.24720862810E+04  0.24720862810E+04  0.00000000000E+00 0.  1.
         23    2    1    2    0    0 -0.18458703015E+04  0.10752322272E+04 -0.28073532491E+03  0.21564796472E+04  0.90722841447E+02 0.  0.
         11    1    3    3    0    0 -0.14131564333E+04  0.77821665413E+03 -0.21565287212E+03  0.16276174081E+04  0.00000000000E+00 0. -1.
        -11    1    3    3    0    0 -0.43271386814E+03  0.29701557308E+03 -0.65082452792E+02  0.52886223914E+03  0.00000000000E+00 0.  1.
         22    1    1    2    0    0  0.18458703015E+04 -0.10752322272E+04 -0.34333944295E+03  0.21636181469E+04  0.00000000000E+00 0.  1.
<mgrwt>
<rscale>  0 0.42747837E+04</rscale>
<asrwt>0</asrwt>
<pdfrwt beam="1">  1        2 0.38032097E+00 0.42747837E+04</pdfrwt>
<pdfrwt beam="2">  1       -2 0.28430946E+00 0.42747837E+04</pdfrwt>
<totfact> 0.11051088E-01</totfact>
</mgrwt>
</event>
<event>
 6    1  0.5196787E-004  0.3115080E+04  0.7818608E-02  0.8211611E-01
         -2   -1    0    0    0  501 -0.00000000000E+00  0.00000000000E+00  0.13817104752E+04  0.13817104752E+04  0.00000000000E+00 0. -1.
          2   -1    0    0  501    0  0.00000000000E+00 -0.00000000000E+00 -0.17557450853E+04  0.17557450853E+04  0.00000000000E+00 0.  1.
         23    2    1    2    0    0 -0.13616019427E+04 -0.43740789273E+03 -0.80545966702E+03  0.16436640441E+04  0.87067213526E+02 0.  0.
         11    1    3    3    0    0 -0.32061520720E+03 -0.79209681914E+02 -0.15325027681E+03  0.36407956842E+03  0.00000000000E+00 0.  1.
        -11    1    3    3    0    0 -0.10409867355E+04 -0.35819821081E+03 -0.65220939020E+03  0.12795844756E+04  0.00000000000E+00 0. -1.
         22    1    1    2    0    0  0.13616019427E+04  0.43740789273E+03  0.43142505687E+03  0.14937915164E+04  0.00000000000E+00 0. -1.
<mgrwt>
<rscale>  0 0.31150803E+04</rscale>
<asrwt>0</asrwt>
<pdfrwt beam="1">  1        2 0.27011463E+00 0.31150803E+04</pdfrwt>
<pdfrwt beam="2">  1       -2 0.21257084E+00 0.31150803E+04</pdfrwt>
<totfact> 0.85359480E-01</totfact>
</mgrwt>
</event>
<event>
 6    1  0.5196787E-004  0.7457497E+03  0.7818608E-02  0.9642042E-01
         -2   -1    0    0    0  501 -0.00000000000E+00  0.00000000000E+00  0.24209920535E+03  0.24209920535E+03  0.00000000000E+00 0. -1.
          2   -1    0    0  501    0  0.00000000000E+00 -0.00000000000E+00 -0.57429205525E+03  0.57429205525E+03  0.00000000000E+00 0.  1.
         23    2    1    2    0    0  0.20454946900E+03  0.51580358504E+02 -0.49775473410E+03  0.54822758642E+03  0.91064222108E+02 0.  0.
         11    1    3    3    0    0  0.34521035258E+02  0.48716982077E+02 -0.13140044264E+03  0.14432990870E+03  0.00000000000E+00 0. -1.
        -11    1    3    3    0    0  0.17002843374E+03  0.28633764263E+01 -0.36635429146E+03  0.40389767773E+03  0.00000000000E+00 0.  1.
         22    1    1    2    0    0 -0.20454946900E+03 -0.51580358504E+02  0.16556188419E+03  0.26816367418E+03  0.00000000000E+00 0. -1.
<mgrwt>
<rscale>  0 0.74574969E+03</rscale>
<asrwt>0</asrwt>
<pdfrwt beam="1">  1        2 0.88352623E-01 0.74574969E+03</pdfrwt>
<pdfrwt beam="2">  1       -2 0.37246032E-01 0.74574969E+03</pdfrwt>
<totfact> 0.35775251E+02</totfact>
</mgrwt>
</event>
<event>
 6    1  0.5196787E-004  0.1477232E+04  0.7818608E-02  0.8899736E-01
          2   -1    0    0  501    0  0.00000000000E+00  0.00000000000E+00  0.18123288000E+04  0.18123288000E+04  0.00000000000E+00 0.  1.
         -2   -1    0    0    0  501 -0.00000000000E+00 -0.00000000000E+00 -0.30102340444E+03  0.30102340444E+03  0.00000000000E+00 0. -1.
         23    2    1    2    0    0 -0.28077848660E+03  0.63151040035E+03  0.11202021069E+04  0.13192465902E+04  0.88976744060E+02 0.  0.
         11    1    3    3    0    0 -0.14410250622E+03  0.35228395935E+03  0.69667859741E+03  0.79387063707E+03  0.00000000000E+00 0. -1.
        -11    1    3    3    0    0 -0.13667598038E+03  0.27922644100E+03  0.42352350954E+03  0.52537595311E+03  0.00000000000E+00 0.  1.
         22    1    1    2    0    0  0.28077848660E+03 -0.63151040035E+03  0.39110328865E+03  0.79410561431E+03  0.00000000000E+00 0. -1.
<mgrwt>
<rscale>  0 0.14772317E+04</rscale>
<asrwt>0</asrwt>
<pdfrwt beam="1">  1        2 0.27881981E+00 0.14772317E+04</pdfrwt>
<pdfrwt beam="2">  1       -2 0.46311294E-01 0.14772317E+04</pdfrwt>
<totfact> 0.36341041E+01</totfact>
</mgrwt>
</event>
<event>
 6    1  0.5196787E-004  0.3299580E+04  0.7818608E-02  0.8163002E-01
          2   -1    0    0  501    0  0.00000000000E+00  0.00000000000E+00  0.33862755379E+04  0.33862755379E+04  0.00000000000E+00 0.  1.
         -2   -1    0    0    0  501 -0.00000000000E+00 -0.00000000000E+00 -0.80377616948E+03  0.80377616948E+03  0.00000000000E+00 0. -1.
         23    2    1    2    0    0  0.11896198608E+04 -0.93217898158E+03  0.45620439923E+03  0.15813579034E+04  0.91745832567E+02 0.  0.
         11    1    3    3    0    0  0.41745899295E+03 -0.38346235157E+03  0.16868256639E+03  0.59141287953E+03  0.00000000000E+00 0. -1.
        -11    1    3    3    0    0  0.77216086786E+03 -0.54871663001E+03  0.28752183283E+03  0.98994502386E+03  0.00000000000E+00 0.  1.
         22    1    1    2    0    0 -0.11896198608E+04  0.93217898158E+03  0.21262949692E+04  0.26086938040E+04  0.00000000000E+00 0.  1.
<mgrwt>
<rscale>  0 0.32995803E+04</rscale>
<asrwt>0</asrwt>
<pdfrwt beam="1">  1        2 0.52096546E+00 0.32995803E+04</pdfrwt>
<pdfrwt beam="2">  1       -2 0.12365787E+00 0.32995803E+04</pdfrwt>
<totfact> 0.40034767E-01</totfact>
</mgrwt>
</event>
<event>
 6    1  0.5196787E-004  0.1280956E+04  0.7818608E-02  0.9044805E-01
         -2   -1    0    0    0  501 -0.00000000000E+00  0.00000000000E+00  0.33026875285E+03  0.33026875285E+03  0.00000000000E+00 0. -1.
          2   -1    0    0  501    0  0.00000000000E+00 -0.00000000000E+00 -0.12420561714E+04  0.12420561714E+04  0.00000000000E+00 0.  1.
         23    2    1    2    0    0  0.34874917612E+03  0.23589324409E+03  0.12883580528E+03  0.44975274196E+03  0.91691077707E+02 0.  0.
         11    1    3    3    0    0  0.17766358708E+03  0.12146606524E+03  0.17963458538E+02  0.21596536996E+03  0.00000000000E+00 0.  1.
        -11    1    3    3    0    0  0.17108558903E+03  0.11442717885E+03  0.11087234674E+03  0.23378737200E+03  0.00000000000E+00 0. -1.
         22    1    1    2    0    0 -0.34874917612E+03 -0.23589324409E+03 -0.10406232238E+04  0.11225721823E+04  0.00000000000E+00 0.  1.
<mgrwt>
<rscale>  0 0.12809564E+04</rscale>
<asrwt>0</asrwt>
<pdfrwt beam="1">  1        2 0.19108556E+00 0.12809564E+04</pdfrwt>
<pdfrwt beam="2">  1       -2 0.50810578E-01 0.12809564E+04</pdfrwt>
<totfact> 0.64242054E+01</totfact>
</mgrwt>
</event>
<event>
 6    1  0.5196787E-004  0.1923540E+04  0.7818608E-02  0.8643227E-01
          2   -1    0    0  501    0  0.00000000000E+00  0.00000000000E+00  0.16661661725E+04  0.16661661725E+04  0.00000000000E+00 0.  1.
         -2   -1    0    0    0  501 -0.00000000000E+00 -0.00000000000E+00 -0.55516757831E+03  0.55516757831E+03  0.00000000000E+00 0. -1.
         23    2    1    2    0    0 -0.73555036235E+03 -0.91477999950E+02  0.12606809516E+04  0.14651542958E+04  0.89208121021E+02 0.  0.
         13    1    3    3    0    0 -0.59923598008E+02 -0.31232212711E+02  0.97126180091E+02  0.11832068107E+03  0.00000000000E+00 0. -1.
        -13    1    3    3    0    0 -0.67562676435E+03 -0.60245787239E+02  0.11635547715E+04  0.13468336147E+04  0.00000000000E+00 0.  1.
         22    1    1    2    0    0  0.73555036235E+03  0.91477999950E+02 -0.14968235739E+03  0.75617945499E+03  0.00000000000E+00 0. -1.
<mgrwt>
<rscale>  0 0.19235399E+04</rscale>
<asrwt>0</asrwt>
<pdfrwt beam="1">  1        2 0.25633325E+00 0.19235399E+04</pdfrwt>
<pdfrwt beam="2">  1       -2 0.85410398E-01 0.19235399E+04</pdfrwt>
<totfact> 0.11409659E+01</totfact>
</mgrwt>
</event>
<event>
 6    1  0.5196787E-004  0.1056101E+04  0.7818608E-02  0.9249068E-01
         -2   -1    0    0    0  501 -0.00000000000E+00  0.00000000000E+00  0.20116326234E+03  0.20116326234E+03  0.00000000000E+00 0. -1.
          2   -1    0    0  501    0  0.00000000000E+00 -0.00000000000E+00 -0.13861233756E+04  0.13861233756E+04  0.00000000000E+00 0.  1.
         23    2    1    2    0    0 -0.46132913794E+03 -0.21087890629E+03 -0.79430579068E+03  0.94704817740E+03  0.93188382224E+02 0.  0.
         11    1    3    3    0    0 -0.11708005159E+03 -0.87104429230E+02 -0.28222411604E+03  0.31771901382E+03  0.00000000000E+00 0.  1.
        -11    1    3    3    0    0 -0.34424908635E+03 -0.12377447706E+03 -0.51208167464E+03  0.62932916357E+03  0.00000000000E+00 0. -1.
         22    1    1    2    0    0  0.46132913794E+03  0.21087890629E+03 -0.39065432261E+03  0.64023846058E+03  0.00000000000E+00 0.  1.
<mgrwt>
<rscale>  0 0.10561006E+04</rscale>
<asrwt>0</asrwt>
<pdfrwt beam="1">  1        2 0.21324975E+00 0.10561006E+04</pdfrwt>
<pdfrwt beam="2">  1       -2 0.30948194E-01 0.10561006E+04</pdfrwt>
<totfact> 0.14176386E+02</totfact>
</mgrwt>
</event>
<event>
 6    1  0.5196787E-004  0.3093632E+04  0.7818608E-02  0.8217488E-01
         -2   -1    0    0    0  501 -0.00000000000E+00  0.00000000000E+00  0.71195434996E+03  0.71195434996E+03  0.00000000000E+00 0. -1.
          2   -1    0    0  501    0  0.00000000000E+00 -0.00000000000E+00 -0.33606635090E+04  0.33606635090E+04  0.00000000000E+00 0.  1.
         23    2    1    2    0    0 -0.15360245645E+04  0.11834481317E+03 -0.11635859327E+04  0.19327655381E+04  0.90958480494E+02 0.  0.
         13    1    3    3    0    0 -0.10083384635E+04  0.47372891442E+02 -0.80020130614E+03  0.12881431513E+04  0.00000000000E+00 0.  1.
        -13    1    3    3    0    0 -0.52768610095E+03  0.70971921729E+02 -0.36338462657E+03  0.64462238686E+03  0.00000000000E+00 0. -1.
         22    1    1    2    0    0  0.15360245645E+04 -0.11834481317E+03 -0.14851232263E+04  0.21398523208E+04  0.00000000000E+00 0.  1.
<mgrwt>
<rscale>  0 0.30936315E+04</rscale>
<asrwt>0</asrwt>
<pdfrwt beam="1">  1        2 0.51702516E+00 0.30936315E+04</pdfrwt>
<pdfrwt beam="2">  1       -2 0.10953144E+00 0.30936315E+04</pdfrwt>
<totfact> 0.57125817E-01</totfact>
</mgrwt>
</event>
<event>
 6    1  0.5196787E-004  0.3844940E+04  0.7818608E-02  0.8036579E-01
         -2   -1    0    0    0  501 -0.00000000000E+00  0.00000000000E+00  0.14502476762E+04  0.14502476762E+04  0.00000000000E+00 0. -1.
          2   -1    0    0  501    0  0.00000000000E+00 -0.00000000000E+00 -0.25484550067E+04  0.25484550067E+04  0.00000000000E+00 0.  1.
         23    2    1    2    0    0 -0.18663949319E+04  0.35280345335E+03 -0.85054805266E+03  0.20831778367E+04  0.91091114147E+02 0.  0.
         11    1    3    3    0    0 -0.16845785167E+04  0.30593466696E+03 -0.73926090591E+03  0.18649148738E+04  0.00000000000E+00 0.  1.
        -11    1    3    3    0    0 -0.18181641515E+03  0.46868786388E+02 -0.11128714674E+03  0.21826296292E+03  0.00000000000E+00 0. -1.
         22    1    1    2    0    0  0.18663949319E+04 -0.35280345335E+03 -0.24765927789E+03  0.19155248462E+04  0.00000000000E+00 0.  1.
<mgrwt>
<rscale>  0 0.38449400E+04</rscale>
<asrwt>0</asrwt>
<pdfrwt beam="1">  1        2 0.39207000E+00 0.38449400E+04</pdfrwt>
<pdfrwt beam="2">  1       -2 0.22311503E+00 0.38449400E+04</pdfrwt>
<totfact> 0.24614125E-01</totfact>
</mgrwt>
</event>
<event>
 6    1  0.5196787E-004  0.1001661E+04  0.7818608E-02  0.9306725E-01
          2   -1    0    0  501    0  0.00000000000E+00  0.00000000000E+00  0.32306116143E+03  0.32306116143E+03  0.00000000000E+00 0.  1.
         -2   -1    0    0    0  501 -0.00000000000E+00 -0.00000000000E+00 -0.77641951758E+03  0.77641951758E+03  0.00000000000E+00 0. -1.
         23    2    1    2    0    0 -0.41321746359E+03 -0.27566732758E+03 -0.22419082521E+03  0.55243506396E+03  0.90453447004E+02 0.  0.
         11    1    3    3    0    0 -0.21889505970E+03 -0.19617555367E+03 -0.14790383034E+03  0.32905233330E+03  0.00000000000E+00 0.  1.
        -11    1    3    3    0    0 -0.19432240389E+03 -0.79491773907E+02 -0.76286994869E+02  0.22338273066E+03  0.00000000000E+00 0. -1.
         22    1    1    2    0    0  0.41321746359E+03  0.27566732758E+03 -0.22916753094E+03  0.54704561505E+03  0.00000000000E+00 0.  1.
<mgrwt>
<rscale>  0 0.10016606E+04</rscale>
<asrwt>0</asrwt>
<pdfrwt beam="1">  1        2 0.49701717E-01 0.10016606E+04</pdfrwt>
<pdfrwt beam="2">  1       -2 0.11944916E+00 0.10016606E+04</pdfrwt>
<totfact> 0.54175063E+01</totfact>
</mgrwt>
</event>
<event>
 6    1  0.5196787E-004  0.3155809E+04  0.7818608E-02  0.8200586E-01
          2   -1    0    0  501    0  0.00000000000E+00  0.00000000000E+00  0.13140722680E+04  0.13140722680E+04  0.00000000000E+00 0.  1.
         -2   -1    0    0    0  501 -0.00000000000E+00 -0.00000000000E+00 -0.18947071543E+04  0.18947071543E+04  0.00000000000E+00 0. -1.
         23    2    1    2    0    0 -0.11835032268E+04 -0.82472502475E+03  0.35624551752E+03  0.14887224043E+04  0.92370309912E+02 0.  0.
         13    1    3    3    0    0 -0.38224381552E+03 -0.21602631719E+03  0.11841010092E+03  0.45475120255E+03  0.00000000000E+00 0. -1.
        -13    1    3    3    0    0 -0.80125941126E+03 -0.60869870756E+03  0.23783541660E+03  0.10339712018E+04  0.00000000000E+00 0.  1.
         22    1    1    2    0    0  0.11835032268E+04  0.82472502475E+03 -0.93688040381E+03  0.17200570180E+04  0.00000000000E+00 0. -1.
<mgrwt>
<rscale>  0 0.31558087E+04</rscale>
<asrwt>0</asrwt>
<pdfrwt beam="1">  1        2 0.20216496E+00 0.31558087E+04</pdfrwt>
<pdfrwt beam="2">  1       -2 0.29149341E+00 0.31558087E+04</pdfrwt>
<totfact> 0.49116761E-01</totfact>
</mgrwt>
</event>
<event>
 6    1  0.5196787E-004  0.4688110E+04  0.7818608E-02  0.7878507E-01
          2   -1    0    0  501    0  0.00000000000E+00  0.00000000000E+00  0.31327442168E+04  0.31327442168E+04  0.00000000000E+00 0.  1.
         -2   -1    0    0    0  501 -0.00000000000E+00 -0.00000000000E+00 -0.17539238154E+04  0.17539238154E+04  0.00000000000E+00 0. -1.
         23    2    1    2    0    0  0.12289178150E+04  0.10309633807E+04  0.24700126008E+04  0.29466100681E+04  0.91783207203E+02 0.  0.
         13    1    3    3    0    0  0.52909837459E+03  0.48165852653E+03  0.11659360234E+04  0.13679717968E+04  0.00000000000E+00 0. -1.
        -13    1    3    3    0    0  0.69981944040E+03  0.54930485412E+03  0.13040765774E+04  0.15786382713E+04  0.00000000000E+00 0.  1.
         22    1    1    2    0    0 -0.12289178150E+04 -0.10309633807E+04 -0.10911921994E+04  0.19400579641E+04  0.00000000000E+00 0. -1.
<mgrwt>
<rscale>  0 0.46881104E+04</rscale>
<asrwt>0</asrwt>
<pdfrwt beam="1">  1        2 0.48196065E+00 0.46881104E+04</pdfrwt>
<pdfrwt beam="2">  1       -2 0.26983443E+00 0.46881104E+04</pdfrwt>
<totfact> 0.51938928E-02</totfact>
</mgrwt>
</event>
<event>
 6    1  0.5196787E-004  0.1675492E+04  0.7818608E-02  0.8775467E-01
         -2   -1    0    0    0  501 -0.00000000000E+00  0.00000000000E+00  0.39116520624E+03  0.39116520624E+03  0.00000000000E+00 0. -1.
          2   -1    0    0  501    0  0.00000000000E+00 -0.00000000000E+00 -0.17941735722E+04  0.17941735722E+04  0.00000000000E+00 0.  1.
         23    2    1    2    0    0 -0.44964338184E+03  0.32302057443E+02 -0.16207537628E+04  0.16847035304E+04  0.90336215355E+02 0.  0.
         13    1    3    3    0    0 -0.37016103022E+03  0.53259225822E+02 -0.12394144186E+04  0.12946056676E+04  0.00000000000E+00 0. -1.
        -13    1    3    3    0    0 -0.79482351617E+02 -0.20957168379E+02 -0.38133934418E+03  0.39009786278E+03  0.00000000000E+00 0.  1.
         22    1    1    2    0    0  0.44964338184E+03 -0.32302057443E+02  0.21774539687E+03  0.50063524806E+03  0.00000000000E+00 0. -1.
<mgrwt>
<rscale>  0 0.16754919E+04</rscale>
<asrwt>0</asrwt>
<pdfrwt beam="1">  1        2 0.27602671E+00 0.16754919E+04</pdfrwt>
<pdfrwt beam="2">  1       -2 0.60179262E-01 0.16754919E+04</pdfrwt>
<totfact> 0.21328323E+01</totfact>
</mgrwt>
</event>
<event>
 6    1  0.5196787E-004  0.1054498E+04  0.7818608E-02  0.9250713E-01
          2   -1    0    0  501    0  0.00000000000E+00  0.00000000000E+00  0.12938000645E+04  0.12938000645E+04  0.00000000000E+00 0.  1.
         -2   -1    0    0    0  501 -0.00000000000E+00 -0.00000000000E+00 -0.21486420054E+03  0.21486420054E+03  0.00000000000E+00 0. -1.
         23    2    1    2    0    0  0.21103025195E+03  0.23285174831E+02  0.12279059752E+04  0.12493033955E+04  0.89050117803E+02 0.  0.
         13    1    3    3    0    0  0.95976700106E+02  0.17787004547E+02  0.80838908260E+03  0.81426090006E+03  0.00000000000E+00 0. -1.
        -13    1    3    3    0    0  0.11505355185E+03  0.54981702835E+01  0.41951689262E+03  0.43504249547E+03  0.00000000000E+00 0.  1.
         22    1    1    2    0    0 -0.21103025195E+03 -0.23285174831E+02 -0.14897011124E+03  0.25936086954E+03  0.00000000000E+00 0. -1.
<mgrwt>
<rscale>  0 0.10544976E+04</rscale>
<asrwt>0</asrwt>
<pdfrwt beam="1">  1        2 0.19904616E+00 0.10544976E+04</pdfrwt>
<pdfrwt beam="2">  1       -2 0.33056032E-01 0.10544976E+04</pdfrwt>
<totfact> 0.14159468E+02</totfact>
</mgrwt>
</event>
<event>
 6    1  0.5196787E-004  0.1832117E+04  0.7818608E-02  0.8689404E-01
         -2   -1    0    0    0  501 -0.00000000000E+00  0.00000000000E+00  0.73239513917E+03  0.73239513917E+03  0.00000000000E+00 0. -1.
          2   -1    0    0  501    0  0.00000000000E+00 -0.00000000000E+00 -0.11457792773E+04  0.11457792773E+04  0.00000000000E+00 0.  1.
         23    2    1    2    0    0  0.17989327135E+03 -0.64418084052E+03 -0.84552873155E+03  0.10818833303E+04  0.90676127856E+02 0.  0.
         11    1    3    3    0    0  0.13549649931E+03 -0.51361341858E+03 -0.60919909122E+03  0.80825836081E+03  0.00000000000E+00 0.  1.
        -11    1    3    3    0    0  0.44396772034E+02 -0.13056742194E+03 -0.23632964032E+03  0.27362496950E+03  0.00000000000E+00 0. -1.
         22    1    1    2    0    0 -0.17989327135E+03  0.64418084052E+03  0.43214459339E+03  0.79629108620E+03  0.00000000000E+00 0. -1.
<mgrwt>
<rscale>  0 0.18321170E+04</rscale>
<asrwt>0</asrwt>
<pdfrwt beam="1">  1        2 0.17627374E+00 0.18321170E+04</pdfrwt>
<pdfrwt beam="2">  1       -2 0.11267618E+00 0.18321170E+04</pdfrwt>
<totfact> 0.11920446E+01</totfact>
</mgrwt>
</event>
<event>
 6    1  0.5196787E-004  0.1109655E+04  0.7818608E-02  0.9195832E-01
         -2   -1    0    0    0  501 -0.00000000000E+00  0.00000000000E+00  0.42563207580E+03  0.42563207580E+03  0.00000000000E+00 0. -1.
          2   -1    0    0  501    0  0.00000000000E+00 -0.00000000000E+00 -0.72323887485E+03  0.72323887485E+03  0.00000000000E+00 0.  1.
         23    2    1    2    0    0  0.44181173407E+03 -0.55835521278E+02 -0.48419664095E+03  0.66603455715E+03  0.10411738768E+03 0.  0.
         11    1    3    3    0    0  0.16710226218E+03  0.10377551193E+02 -0.23960715095E+03  0.29230539917E+03  0.00000000000E+00 0.  1.
        -11    1    3    3    0    0  0.27470947189E+03 -0.66213072471E+02 -0.24458948999E+03  0.37372915798E+03  0.00000000000E+00 0. -1.
         22    1    1    2    0    0 -0.44181173407E+03  0.55835521278E+02  0.18658984190E+03  0.48283639351E+03  0.00000000000E+00 0. -1.
<mgrwt>
<rscale>  0 0.11096552E+04</rscale>
<asrwt>0</asrwt>
<pdfrwt beam="1">  1        2 0.11126752E+00 0.11096552E+04</pdfrwt>
<pdfrwt beam="2">  1       -2 0.65481858E-01 0.11096552E+04</pdfrwt>
<totfact> 0.83838999E+01</totfact>
</mgrwt>
</event>
<event>
 6    1  0.5196787E-004  0.2105708E+04  0.7818608E-02  0.8558733E-01
         -2   -1    0    0    0  501 -0.00000000000E+00  0.00000000000E+00  0.10637637917E+04  0.10637637917E+04  0.00000000000E+00 0.  1.
          2   -1    0    0  501    0  0.00000000000E+00 -0.00000000000E+00 -0.10420562714E+04  0.10420562714E+04  0.00000000000E+00 0. -1.
         23    2    1    2    0    0  0.26037296074E+02 -0.35338379015E+03  0.10003346577E+04  0.10650179118E+04  0.89641959791E+02 0.  0.
         13    1    3    3    0    0  0.14260750615E+02 -0.34427313406E+02  0.19898797904E+03  0.20244709116E+03  0.00000000000E+00 0. -1.
        -13    1    3    3    0    0  0.11776545459E+02 -0.31895647674E+03  0.80134667870E+03  0.86257082060E+03  0.00000000000E+00 0.  1.
         22    1    1    2    0    0 -0.26037296074E+02  0.35338379015E+03 -0.97862713749E+03  0.10408021513E+04  0.00000000000E+00 0. -1.
<mgrwt>
<rscale>  0 0.21057082E+04</rscale>
<asrwt>0</asrwt>
<pdfrwt beam="1">  1        2 0.16031635E+00 0.21057082E+04</pdfrwt>
<pdfrwt beam="2">  1       -2 0.16365597E+00 0.21057082E+04</pdfrwt>
<totfact> 0.51643021E+00</totfact>
</mgrwt>
</event>
<event>
 6    1  0.5196787E-004  0.1839014E+04  0.7818608E-02  0.8685823E-01
          2   -1    0    0  501    0  0.00000000000E+00  0.00000000000E+00  0.43288123909E+03  0.43288123909E+03  0.00000000000E+00 0.  1.
         -2   -1    0    0    0  501 -0.00000000000E+00 -0.00000000000E+00 -0.19531760271E+04  0.19531760271E+04  0.00000000000E+00 0. -1.
         23    2    1    2    0    0  0.71693014897E+03  0.50787207864E+03 -0.11038725317E+04  0.14137762459E+04  0.91136274968E+02 0.  0.
         11    1    3    3    0    0  0.47353977391E+03  0.30744883869E+03 -0.64747301101E+03  0.85906111882E+03  0.00000000000E+00 0. -1.
        -11    1    3    3    0    0  0.24339037506E+03  0.20042323995E+03 -0.45639952064E+03  0.55471512709E+03  0.00000000000E+00 0.  1.
         22    1    1    2    0    0 -0.71693014897E+03 -0.50787207864E+03 -0.41642225631E+03  0.97228102024E+03  0.00000000000E+00 0. -1.
<mgrwt>
<rscale>  0 0.18390141E+04</rscale>
<asrwt>0</asrwt>
<pdfrwt beam="1">  1        2 0.66597114E-01 0.18390141E+04</pdfrwt>
<pdfrwt beam="2">  1       -2 0.30048862E+00 0.18390141E+04</pdfrwt>
<totfact> 0.21630900E+00</totfact>
</mgrwt>
</event>
<event>
 6    1  0.5196787E-004  0.6855817E+04  0.7818608E-02  0.7592490E-01
         -2   -1    0    0    0  501 -0.00000000000E+00  0.00000000000E+00  0.30166843505E+04  0.30166843505E+04  0.00000000000E+00 0. -1.
          2   -1    0    0  501    0  0.00000000000E+00 -0.00000000000E+00 -0.38951898725E+04  0.38951898725E+04  0.00000000000E+00 0.  1.
         23    2    1    2    0    0 -0.29976148324E+04  0.10042635536E+04  0.89505063799E+03  0.32869960980E+04  0.94803667989E+02 0.  0.
         13    1    3    3    0    0 -0.13950776207E+04  0.51652861416E+03  0.41247633539E+03  0.15437551957E+04  0.00000000000E+00 0.  1.
        -13    1    3    3    0    0 -0.16025372117E+04  0.48773493944E+03  0.48257430260E+03  0.17432409024E+04  0.00000000000E+00 0. -1.
         22    1    1    2    0    0  0.29976148324E+04 -0.10042635536E+04 -0.17735561600E+04  0.36248781250E+04  0.00000000000E+00 0.  1.
<mgrwt>
<rscale>  0 0.68558175E+04</rscale>
<asrwt>0</asrwt>
<pdfrwt beam="1">  1        2 0.59925998E+00 0.68558175E+04</pdfrwt>
<pdfrwt beam="2">  1       -2 0.46410529E+00 0.68558175E+04</pdfrwt>
<totfact> 0.73475476E-04</totfact>
</mgrwt>
</event>
<event>
 6    1  0.5196787E-004  0.9917378E+03  0.7818608E-02  0.9317653E-01
         -2   -1    0    0    0  501 -0.00000000000E+00  0.00000000000E+00  0.91598973723E+02  0.91598973723E+02  0.00000000000E+00 0. -1.
          2   -1    0    0  501    0  0.00000000000E+00 -0.00000000000E+00 -0.26843744538E+04  0.26843744538E+04  0.00000000000E+00 0.  1.
         23    2    1    2    0    0  0.36752505963E+03 -0.13201460189E+03 -0.21440310274E+04  0.21811002408E+04  0.88468576570E+02 0.  0.
         11    1    3    3    0    0  0.21723658141E+03 -0.10830256068E+03 -0.11353139852E+04  0.11609733080E+04  0.00000000000E+00 0.  1.
        -11    1    3    3    0    0  0.15028847822E+03 -0.23712041210E+02 -0.10087170423E+04  0.10201269328E+04  0.00000000000E+00 0. -1.
         22    1    1    2    0    0 -0.36752505963E+03  0.13201460189E+03 -0.44874445266E+03  0.59487318679E+03  0.00000000000E+00 0. -1.
<mgrwt>
<rscale>  0 0.99173776E+03</rscale>
<asrwt>0</asrwt>
<pdfrwt beam="1">  1        2 0.41298073E+00 0.99173776E+03</pdfrwt>
<pdfrwt beam="2">  1       -2 0.14092148E-01 0.99173776E+03</pdfrwt>
<totfact> 0.10753049E+02</totfact>
</mgrwt>
</event>
<event>
 6    1  0.5196787E-004  0.4600260E+04  0.7818608E-02  0.7893316E-01
          2   -1    0    0  501    0  0.00000000000E+00  0.00000000000E+00  0.27104832220E+04  0.27104832220E+04  0.00000000000E+00 0.  1.
         -2   -1    0    0    0  501 -0.00000000000E+00 -0.00000000000E+00 -0.19519017323E+04  0.19519017323E+04  0.00000000000E+00 0. -1.
         23    2    1    2    0    0  0.11156709445E+04  0.37389763108E+03 -0.16225328071E+04  0.20064055889E+04  0.92355736503E+02 0.  0.
         11    1    3    3    0    0  0.47622488490E+03  0.19489244990E+03 -0.76184394519E+03  0.91933639373E+03  0.00000000000E+00 0. -1.
        -11    1    3    3    0    0  0.63944605957E+03  0.17900518118E+03 -0.86068886191E+03  0.10870691951E+04  0.00000000000E+00 0.  1.
         22    1    1    2    0    0 -0.11156709445E+04 -0.37389763108E+03  0.23811142968E+04  0.26559793654E+04  0.00000000000E+00 0.  1.
<mgrwt>
<rscale>  0 0.46002595E+04</rscale>
<asrwt>0</asrwt>
<pdfrwt beam="1">  1        2 0.41699742E+00 0.46002595E+04</pdfrwt>
<pdfrwt beam="2">  1       -2 0.30029257E+00 0.46002595E+04</pdfrwt>
<totfact> 0.62264942E-02</totfact>
</mgrwt>
</event>
<event>
 6    1  0.5196787E-004  0.2521477E+04  0.7818608E-02  0.8395374E-01
          2   -1    0    0  501    0  0.00000000000E+00  0.00000000000E+00  0.22788382627E+04  0.22788382627E+04  0.00000000000E+00 0.  1.
         -2   -1    0    0    0  501 -0.00000000000E+00 -0.00000000000E+00 -0.69748769646E+03  0.69748769646E+03  0.00000000000E+00 0. -1.
         23    2    1    2    0    0  0.34981527457E+03  0.15593411010E+01  0.22195699079E+04  0.22485230423E+04  0.83619005753E+02 0.  0.
         11    1    3    3    0    0  0.51405250005E+02  0.29410009235E+02  0.31558090409E+03  0.32108994908E+03  0.00000000000E+00 0.  1.
        -11    1    3    3    0    0  0.29841002456E+03 -0.27850668134E+02  0.19039890038E+04  0.19274330932E+04  0.00000000000E+00 0. -1.
         22    1    1    2    0    0 -0.34981527457E+03 -0.15593411010E+01 -0.63821934157E+03  0.72780291688E+03  0.00000000000E+00 0. -1.
<mgrwt>
<rscale>  0 0.25214771E+04</rscale>
<asrwt>0</asrwt>
<pdfrwt beam="1">  1        2 0.35059050E+00 0.25214771E+04</pdfrwt>
<pdfrwt beam="2">  1       -2 0.10730580E+00 0.25214771E+04</pdfrwt>
<totfact> 0.28942885E+00</totfact>
</mgrwt>
</event>
<event>
 6    1  0.5196787E-004  0.2111455E+04  0.7818608E-02  0.8556214E-01
          1   -1    0    0  501    0  0.00000000000E+00  0.00000000000E+00  0.14580212673E+04  0.14580212673E+04  0.00000000000E+00 0.  1.
         -1   -1    0    0    0  501 -0.00000000000E+00 -0.00000000000E+00 -0.76443385367E+03  0.76443385367E+03  0.00000000000E+00 0. -1.
         23    2    1    2    0    0  0.42112098954E+03 -0.56508478355E+03 -0.47717047773E+03  0.85594945300E+03  0.91071954217E+02 0.  0.
         13    1    3    3    0    0  0.28640671013E+03 -0.38108709916E+03 -0.27006085034E+03  0.54789510277E+03  0.00000000000E+00 0. -1.
        -13    1    3    3    0    0  0.13471427941E+03 -0.18399768439E+03 -0.20710962740E+03  0.30805435024E+03  0.00000000000E+00 0.  1.
         22    1    1    2    0    0 -0.42112098954E+03  0.56508478355E+03  0.11707578914E+04  0.13665056680E+04  0.00000000000E+00 0.  1.
<mgrwt>
<rscale>  0 0.21114552E+04</rscale>
<asrwt>0</asrwt>
<pdfrwt beam="1">  1        1 0.22431096E+00 0.21114552E+04</pdfrwt>
<pdfrwt beam="2">  1       -1 0.11760521E+00 0.21114552E+04</pdfrwt>
<totfact> 0.41803512E+00</totfact>
</mgrwt>
</event>
<event>
 6    1  0.5196787E-004  0.4350051E+04  0.7818608E-02  0.7937427E-01
          2   -1    0    0  501    0  0.00000000000E+00  0.00000000000E+00  0.30649302093E+04  0.30649302093E+04  0.00000000000E+00 0.  1.
         -2   -1    0    0    0  501 -0.00000000000E+00 -0.00000000000E+00 -0.15435051893E+04  0.15435051893E+04  0.00000000000E+00 0. -1.
         23    2    1    2    0    0 -0.10164867583E+04  0.12410740380E+04 -0.79337795679E+03  0.17920861804E+04  0.92812705775E+02 0.  0.
         13    1    3    3    0    0 -0.19941137282E+03  0.20936965761E+03 -0.17510607480E+03  0.33802764172E+03  0.00000000000E+00 0. -1.
        -13    1    3    3    0    0 -0.81707538545E+03  0.10317043804E+04 -0.61827188199E+03  0.14540585387E+04  0.00000000000E+00 0.  1.
         22    1    1    2    0    0  0.10164867583E+04 -0.12410740380E+04  0.23148029768E+04  0.28163492182E+04  0.00000000000E+00 0.  1.
<mgrwt>
<rscale>  0 0.43500509E+04</rscale>
<asrwt>0</asrwt>
<pdfrwt beam="1">  1        2 0.47152772E+00 0.43500509E+04</pdfrwt>
<pdfrwt beam="2">  1       -2 0.23746234E+00 0.43500509E+04</pdfrwt>
<totfact> 0.93266817E-02</totfact>
</mgrwt>
</event>
<event>
 6    1  0.5196787E-004  0.1123245E+04  0.7818608E-02  0.9182827E-01
          2   -1    0    0  501    0  0.00000000000E+00  0.00000000000E+00  0.19530084385E+04  0.19530084385E+04  0.00000000000E+00 0.  1.
         -2   -1    0    0    0  501 -0.00000000000E+00 -0.00000000000E+00 -0.16150458603E+03  0.16150458603E+03  0.00000000000E+00 0. -1.
         23    2    1    2    0    0  0.32960590945E+03 -0.43113510646E+03  0.11241764345E+04  0.12543715139E+04  0.12311662521E+03 0.  0.
         11    1    3    3    0    0  0.22526782931E+02 -0.41711542492E+02  0.19996892891E+03  0.20551126795E+03  0.00000000000E+00 0.  1.
        -11    1    3    3    0    0  0.30707912652E+03 -0.38942356397E+03  0.92420750564E+03  0.10488602460E+04  0.00000000000E+00 0. -1.
         22    1    1    2    0    0 -0.32960590945E+03  0.43113510646E+03  0.66732741796E+03  0.86014151064E+03  0.00000000000E+00 0. -1.
<mgrwt>
<rscale>  0 0.11232450E+04</rscale>
<asrwt>0</asrwt>
<pdfrwt beam="1">  1        2 0.30046282E+00 0.11232450E+04</pdfrwt>
<pdfrwt beam="2">  1       -2 0.24846861E-01 0.11232450E+04</pdfrwt>
<totfact> 0.10221865E+02</totfact>
</mgrwt>
</event>
<event>
 6    1  0.5196787E-004  0.3245911E+04  0.7818608E-02  0.8176796E-01
         -2   -1    0    0    0  501 -0.00000000000E+00  0.00000000000E+00  0.17543804646E+04  0.17543804646E+04  0.00000000000E+00 0. -1.
          2   -1    0    0  501    0  0.00000000000E+00 -0.00000000000E+00 -0.15013758914E+04  0.15013758914E+04  0.00000000000E+00 0.  1.
         23    2    1    2    0    0  0.66386395837E+03  0.14105533274E+03 -0.13506702712E+04  0.15143819078E+04  0.91817312883E+02 0.  0.
         13    1    3    3    0    0  0.32761924983E+03  0.30855266450E+02 -0.70811188140E+03  0.78083856007E+03  0.00000000000E+00 0. -1.
        -13    1    3    3    0    0  0.33624470855E+03  0.11020006629E+03 -0.64255838980E+03  0.73354334769E+03  0.00000000000E+00 0.  1.
         22    1    1    2    0    0 -0.66386395837E+03 -0.14105533274E+03  0.16036748444E+04  0.17413744482E+04  0.00000000000E+00 0. -1.
<mgrwt>
<rscale>  0 0.32459110E+04</rscale>
<asrwt>0</asrwt>
<pdfrwt beam="1">  1        2 0.23098091E+00 0.32459110E+04</pdfrwt>
<pdfrwt beam="2">  1       -2 0.26990469E+00 0.32459110E+04</pdfrwt>
<totfact> 0.51587105E-01</totfact>
</mgrwt>
</event>
<event>
 6    1  0.5196787E-004  0.2163097E+04  0.7818608E-02  0.8533947E-01
         -2   -1    0    0    0  501 -0.00000000000E+00  0.00000000000E+00  0.56604848068E+03  0.56604848068E+03  0.00000000000E+00 0. -1.
          2   -1    0    0  501    0  0.00000000000E+00 -0.00000000000E+00 -0.20665142818E+04  0.20665142818E+04  0.00000000000E+00 0.  1.
         23    2    1    2    0    0 -0.26362058745E+03 -0.80999651991E+03 -0.15588826883E+04  0.17787462077E+04  0.90734003357E+02 0.  0.
         13    1    3    3    0    0 -0.98629786074E+02 -0.42820243241E+03 -0.84976527340E+03  0.95665363518E+03  0.00000000000E+00 0.  1.
        -13    1    3    3    0    0 -0.16499080137E+03 -0.38179408749E+03 -0.70911741486E+03  0.82209257255E+03  0.00000000000E+00 0. -1.
         22    1    1    2    0    0  0.26362058745E+03  0.80999651991E+03  0.58416887185E+02  0.85381655471E+03  0.00000000000E+00 0. -1.
<mgrwt>
<rscale>  0 0.21630971E+04</rscale>
<asrwt>0</asrwt>
<pdfrwt beam="1">  1        2 0.31792528E+00 0.21630971E+04</pdfrwt>
<pdfrwt beam="2">  1       -2 0.87084381E-01 0.21630971E+04</pdfrwt>
<totfact> 0.64109085E+00</totfact>
</mgrwt>
</event>
<event>
 6    1  0.5196787E-004  0.1471099E+04  0.7818608E-02  0.8903903E-01
          1   -1    0    0  501    0  0.00000000000E+00  0.00000000000E+00  0.26274901758E+04  0.26274901758E+04  0.00000000000E+00 0.  1.
         -1   -1    0    0    0  501 -0.00000000000E+00 -0.00000000000E+00 -0.20591248008E+03  0.20591248008E+03  0.00000000000E+00 0. -1.
         23    2    1    2    0    0  0.11527129912E+03 -0.57821648343E+03  0.20534322775E+04  0.21383107029E+04  0.90370183160E+02 0.  0.
         11    1    3    3    0    0  0.12579498663E+02 -0.67110473669E+02  0.15056763661E+03  0.16532595882E+03  0.00000000000E+00 0. -1.
        -11    1    3    3    0    0  0.10269180046E+03 -0.51110600976E+03  0.19028646408E+04  0.19729847441E+04  0.00000000000E+00 0.  1.
         22    1    1    2    0    0 -0.11527129912E+03  0.57821648343E+03  0.36814541831E+03  0.69509195301E+03  0.00000000000E+00 0. -1.
<mgrwt>
<rscale>  0 0.14710989E+04</rscale>
<asrwt>0</asrwt>
<pdfrwt beam="1">  1        1 0.40422923E+00 0.14710989E+04</pdfrwt>
<pdfrwt beam="2">  1       -1 0.31678845E-01 0.14710989E+04</pdfrwt>
<totfact> 0.99567683E+00</totfact>
</mgrwt>
</event>
<event>
 6    1  0.5196787E-004  0.1936255E+04  0.7818608E-02  0.8637018E-01
         -2   -1    0    0    0  501 -0.00000000000E+00  0.00000000000E+00  0.58398784578E+03  0.58398784578E+03  0.00000000000E+00 0. -1.
          2   -1    0    0  501    0  0.00000000000E+00 -0.00000000000E+00 -0.16049486747E+04  0.16049486747E+04  0.00000000000E+00 0.  1.
         23    2    1    2    0    0  0.72255280651E+03  0.84543617961E+02  0.20693084381E+03  0.76171959881E+03  0.90366982679E+02 0.  0.
         11    1    3    3    0    0  0.45965785366E+03  0.84367012769E+02  0.16438309299E+03  0.49540381159E+03  0.00000000000E+00 0. -1.
        -11    1    3    3    0    0  0.26289495285E+03  0.17660519125E+00  0.42547750812E+02  0.26631578722E+03  0.00000000000E+00 0.  1.
         22    1    1    2    0    0 -0.72255280651E+03 -0.84543617961E+02 -0.12278916727E+04  0.14272169217E+04  0.00000000000E+00 0.  1.
<mgrwt>
<rscale>  0 0.19362547E+04</rscale>
<asrwt>0</asrwt>
<pdfrwt beam="1">  1        2 0.24691518E+00 0.19362547E+04</pdfrwt>
<pdfrwt beam="2">  1       -2 0.89844285E-01 0.19362547E+04</pdfrwt>
<totfact> 0.10979814E+01</totfact>
</mgrwt>
</event>
<event>
 6    1  0.7399248E-004  0.4458837E+04  0.7818608E-02  0.7917883E-01
         -2   -1    0    0    0  501 -0.00000000000E+00  0.00000000000E+00  0.22129079997E+04  0.22129079997E+04  0.00000000000E+00 0. -1.
          2   -1    0    0  501    0  0.00000000000E+00 -0.00000000000E+00 -0.22460522764E+04  0.22460522764E+04  0.00000000000E+00 0.  1.
         23    2    1    2    0    0  0.14440742988E+04 -0.70066844463E+03 -0.15625392609E+04  0.22419046007E+04  0.91216484640E+02 0.  0.
         13    1    3    3    0    0  0.90725581441E+03 -0.44141616686E+03 -0.10430012476E+04  0.14511419461E+04  0.00000000000E+00 0. -1.
        -13    1    3    3    0    0  0.53681848437E+03 -0.25925227777E+03 -0.51953801332E+03  0.79076265464E+03  0.00000000000E+00 0.  1.
         22    1    1    2    0    0 -0.14440742988E+04  0.70066844463E+03  0.15293949842E+04  0.22170556753E+04  0.00000000000E+00 0. -1.
<mgrwt>
<rscale>  0 0.44588371E+04</rscale>
<asrwt>0</asrwt>
<pdfrwt beam="1">  1        2 0.34554650E+00 0.44588371E+04</pdfrwt>
<pdfrwt beam="2">  1       -2 0.34044738E+00 0.44588371E+04</pdfrwt>
<totfact> 0.66060753E-02</totfact>
</mgrwt>
</event>
<event>
 6    1  0.5196787E-004  0.1166890E+04  0.7818608E-02  0.9142341E-01
         -2   -1    0    0    0  501 -0.00000000000E+00  0.00000000000E+00  0.17854080817E+03  0.17854080817E+03  0.00000000000E+00 0. -1.
          2   -1    0    0  501    0  0.00000000000E+00 -0.00000000000E+00 -0.19066129957E+04  0.19066129957E+04  0.00000000000E+00 0.  1.
         23    2    1    2    0    0 -0.39307160210E+03  0.11019785242E+03 -0.13289947159E+03  0.43857406249E+03  0.89644228394E+02 0.  0.
         11    1    3    3    0    0 -0.65119853734E+01  0.10137517656E+02  0.87531681564E+01  0.14892722065E+02  0.00000000000E+00 0.  1.
        -11    1    3    3    0    0 -0.38655961672E+03  0.10006033476E+03 -0.14165263975E+03  0.42368134042E+03  0.00000000000E+00 0. -1.
         22    1    1    2    0    0  0.39307160210E+03 -0.11019785242E+03 -0.15951727159E+04  0.16465797414E+04  0.00000000000E+00 0.  1.
<mgrwt>
<rscale>  0 0.11668903E+04</rscale>
<asrwt>0</asrwt>
<pdfrwt beam="1">  1        2 0.29332509E+00 0.11668903E+04</pdfrwt>
<pdfrwt beam="2">  1       -2 0.27467816E-01 0.11668903E+04</pdfrwt>
<totfact> 0.90003188E+01</totfact>
</mgrwt>
</event>
<event>
 6    1  0.5196787E-004  0.5196814E+04  0.7818608E-02  0.7798844E-01
          2   -1    0    0  501    0  0.00000000000E+00  0.00000000000E+00  0.22138945501E+04  0.22138945501E+04  0.00000000000E+00 0.  1.
         -2   -1    0    0    0  501 -0.00000000000E+00 -0.00000000000E+00 -0.30497016245E+04  0.30497016245E+04  0.00000000000E+00 0. -1.
         23    2    1    2    0    0 -0.23928696796E+04  0.68278300971E+03 -0.11733160987E+04  0.27524350321E+04  0.84911698823E+02 0.  0.
         11    1    3    3    0    0 -0.90820632619E+03  0.29662638306E+03 -0.42805611984E+03  0.10469278790E+04  0.00000000000E+00 0.  1.
        -11    1    3    3    0    0 -0.14846633534E+04  0.38615662665E+03 -0.74525997882E+03  0.17055071531E+04  0.00000000000E+00 0. -1.
         22    1    1    2    0    0  0.23928696796E+04 -0.68278300971E+03  0.33750902431E+03  0.25111611425E+04  0.00000000000E+00 0. -1.
<mgrwt>
<rscale>  0 0.51968136E+04</rscale>
<asrwt>0</asrwt>
<pdfrwt beam="1">  1        2 0.34059916E+00 0.51968136E+04</pdfrwt>
<pdfrwt beam="2">  1       -2 0.46918487E+00 0.51968136E+04</pdfrwt>
<totfact> 0.94809053E-03</totfact>
</mgrwt>
</event>
<event>
 6    1  0.5196787E-004  0.2828161E+04  0.7818608E-02  0.8294578E-01
         -2   -1    0    0    0  501 -0.00000000000E+00  0.00000000000E+00  0.34836657970E+04  0.34836657970E+04  0.00000000000E+00 0. -1.
          2   -1    0    0  501    0  0.00000000000E+00 -0.00000000000E+00 -0.57399999056E+03  0.57399999056E+03  0.00000000000E+00 0.  1.
         23    2    1    2    0    0 -0.58306441746E+03 -0.10221835568E+04  0.33412754443E+03  0.12260195035E+04  0.81604340889E+02 0.  0.
         13    1    3    3    0    0 -0.32126250193E+03 -0.51552482931E+03  0.20686182917E+03  0.64169093897E+03  0.00000000000E+00 0.  1.
        -13    1    3    3    0    0 -0.26180191553E+03 -0.50665872747E+03  0.12726571526E+03  0.58432856457E+03  0.00000000000E+00 0. -1.
         22    1    1    2    0    0  0.58306441746E+03  0.10221835568E+04  0.25755382620E+04  0.28316462840E+04  0.00000000000E+00 0. -1.
<mgrwt>
<rscale>  0 0.28281613E+04</rscale>
<asrwt>0</asrwt>
<pdfrwt beam="1">  1        2 0.88307693E-01 0.28281613E+04</pdfrwt>
<pdfrwt beam="2">  1       -2 0.53594857E+00 0.28281613E+04</pdfrwt>
<totfact> 0.45733132E-02</totfact>
</mgrwt>
</event>
<event>
 6    1  0.5196787E-004  0.5903378E+04  0.7818608E-02  0.7702498E-01
         -2   -1    0    0    0  501 -0.00000000000E+00  0.00000000000E+00  0.24241831788E+04  0.24241831788E+04  0.00000000000E+00 0. -1.
          2   -1    0    0  501    0  0.00000000000E+00 -0.00000000000E+00 -0.35939814158E+04  0.35939814158E+04  0.00000000000E+00 0.  1.
         23    2    1    2    0    0 -0.19658147223E+04 -0.21369578340E+04 -0.11204048767E+04  0.31141232707E+04  0.10695957347E+03 0.  0.
         11    1    3    3    0    0 -0.38836292723E+03 -0.38001195784E+03 -0.17724898512E+03  0.57153482315E+03  0.00000000000E+00 0.  1.
        -11    1    3    3    0    0 -0.15774517951E+04 -0.17569458761E+04 -0.94315589162E+03  0.25425884475E+04  0.00000000000E+00 0. -1.
         22    1    1    2    0    0  0.19658147223E+04  0.21369578340E+04 -0.49393360243E+02  0.29040413239E+04  0.00000000000E+00 0. -1.
<mgrwt>
<rscale>  0 0.59033785E+04</rscale>
<asrwt>0</asrwt>
<pdfrwt beam="1">  1        2 0.55292022E+00 0.59033785E+04</pdfrwt>
<pdfrwt beam="2">  1       -2 0.37295126E+00 0.59033785E+04</pdfrwt>
<totfact> 0.52447000E-03</totfact>
</mgrwt>
</event>
<event>
 6    1  0.5196787E-004  0.4516107E+04  0.7818608E-02  0.7907823E-01
         -2   -1    0    0    0  501 -0.00000000000E+00  0.00000000000E+00  0.12760141457E+04  0.12760141457E+04  0.00000000000E+00 0. -1.
          2   -1    0    0  501    0  0.00000000000E+00 -0.00000000000E+00 -0.39958856534E+04  0.39958856534E+04  0.00000000000E+00 0.  1.
         23    2    1    2    0    0  0.15006883686E+02  0.52869372700E+03 -0.39219999059E+04  0.39585624665E+04  0.91603906466E+02 0.  0.
         11    1    3    3    0    0 -0.85791605983E+01  0.21532419487E+03 -0.12910986631E+04  0.13089590783E+04  0.00000000000E+00 0.  1.
        -11    1    3    3    0    0  0.23586044284E+02  0.31336953213E+03 -0.26309012428E+04  0.26496033882E+04  0.00000000000E+00 0. -1.
         22    1    1    2    0    0 -0.15006883686E+02 -0.52869372700E+03  0.12021283982E+04  0.13133373326E+04  0.00000000000E+00 0. -1.
<mgrwt>
<rscale>  0 0.45161074E+04</rscale>
<asrwt>0</asrwt>
<pdfrwt beam="1">  1        2 0.61475164E+00 0.45161074E+04</pdfrwt>
<pdfrwt beam="2">  1       -2 0.19630987E+00 0.45161074E+04</pdfrwt>
<totfact> 0.36545051E-02</totfact>
</mgrwt>
</event>
<event>
 6    1  0.5196787E-004  0.4292968E+04  0.7818608E-02  0.7947920E-01
         -1   -1    0    0    0  501 -0.00000000000E+00  0.00000000000E+00  0.16727129154E+04  0.16727129154E+04  0.00000000000E+00 0. -1.
          1   -1    0    0  501    0  0.00000000000E+00 -0.00000000000E+00 -0.27544440544E+04  0.27544440544E+04  0.00000000000E+00 0.  1.
         23    2    1    2    0    0  0.39458786027E+03  0.14772804222E+04  0.10110792716E+04  0.18352633686E+04  0.88618921704E+02 0.  0.
         11    1    3    3    0    0  0.25430948627E+03  0.82713976420E+03  0.60732825106E+03  0.10572043837E+04  0.00000000000E+00 0. -1.
        -11    1    3    3    0    0  0.14027837400E+03  0.65014065799E+03  0.40375102058E+03  0.77805898491E+03  0.00000000000E+00 0.  1.
         22    1    1    2    0    0 -0.39458786027E+03 -0.14772804222E+04 -0.20928104106E+04  0.25918936012E+04  0.00000000000E+00 0.  1.
<mgrwt>
<rscale>  0 0.42929683E+04</rscale>
<asrwt>0</asrwt>
<pdfrwt beam="1">  1        1 0.42376061E+00 0.42929683E+04</pdfrwt>
<pdfrwt beam="2">  1       -1 0.25734045E+00 0.42929683E+04</pdfrwt>
<totfact> 0.42845798E-02</totfact>
</mgrwt>
</event>
<event>
 6    1  0.5196787E-004  0.1901483E+04  0.7818608E-02  0.8654119E-01
         -2   -1    0    0    0  501 -0.00000000000E+00  0.00000000000E+00  0.25462877550E+03  0.25462877550E+03  0.00000000000E+00 0.  1.
          2   -1    0    0  501    0  0.00000000000E+00 -0.00000000000E+00 -0.35499089009E+04  0.35499089009E+04  0.00000000000E+00 0. -1.
         23    2    1    2    0    0 -0.45916264915E+02  0.69254282299E+03 -0.29450845724E+04  0.30271312252E+04  0.90975000702E+02 0.  0.
         11    1    3    3    0    0 -0.96579005273E+00  0.23266171197E+03 -0.11686149621E+04  0.11915508108E+04  0.00000000000E+00 0.  1.
        -11    1    3    3    0    0 -0.44950474862E+02  0.45988111102E+03 -0.17764696103E+04  0.18355804144E+04  0.00000000000E+00 0. -1.
         22    1    1    2    0    0  0.45916264915E+02 -0.69254282299E+03 -0.35019555300E+03  0.77740645122E+03  0.00000000000E+00 0.  1.
<mgrwt>
<rscale>  0 0.19014825E+04</rscale>
<asrwt>0</asrwt>
<pdfrwt beam="1">  1        2 0.54613982E+00 0.19014825E+04</pdfrwt>
<pdfrwt beam="2">  1       -2 0.39173659E-01 0.19014825E+04</pdfrwt>
<totfact> 0.43569409E+00</totfact>
</mgrwt>
</event>
<event>
 6    1  0.5196787E-004  0.2314643E+04  0.7818608E-02  0.8472170E-01
         -2   -1    0    0    0  501 -0.00000000000E+00  0.00000000000E+00  0.16305764927E+04  0.16305764927E+04  0.00000000000E+00 0. -1.
          2   -1    0    0  501    0  0.00000000000E+00 -0.00000000000E+00 -0.82142321716E+03  0.82142321716E+03  0.00000000000E+00 0.  1.
         23    2    1    2    0    0 -0.90155000570E+03  0.31885205872E+03 -0.28194266468E+03  0.10011553354E+04  0.91440096925E+02 0.  0.
         11    1    3    3    0    0 -0.75484609013E+03  0.23160767901E+03 -0.22112116185E+03  0.81995689214E+03  0.00000000000E+00 0. -1.
        -11    1    3    3    0    0 -0.14670391558E+03  0.87244379715E+02 -0.60821502826E+02  0.18119844327E+03  0.00000000000E+00 0.  1.
         22    1    1    2    0    0  0.90155000570E+03 -0.31885205872E+03  0.10910959402E+04  0.14508443745E+04  0.00000000000E+00 0. -1.
<mgrwt>
<rscale>  0 0.23146433E+04</rscale>
<asrwt>0</asrwt>
<pdfrwt beam="1">  1        2 0.12637280E+00 0.23146433E+04</pdfrwt>
<pdfrwt beam="2">  1       -2 0.25085792E+00 0.23146433E+04</pdfrwt>
<totfact> 0.19109860E+00</totfact>
</mgrwt>
</event>
<event>
 6    1  0.5196787E-004  0.4311484E+04  0.7818608E-02  0.7944498E-01
         -2   -1    0    0    0  501 -0.00000000000E+00  0.00000000000E+00  0.20770253005E+04  0.20770253005E+04  0.00000000000E+00 0. -1.
          2   -1    0    0  501    0  0.00000000000E+00 -0.00000000000E+00 -0.22374422851E+04  0.22374422851E+04  0.00000000000E+00 0.  1.
         23    2    1    2    0    0  0.87409692674E+03 -0.14270706352E+03  0.18852565078E+04  0.20852994042E+04  0.99351705916E+02 0.  0.
         13    1    3    3    0    0  0.49218575836E+03 -0.46510085283E+02  0.11336273540E+04  0.12367380428E+04  0.00000000000E+00 0.  1.
        -13    1    3    3    0    0  0.38191116838E+03 -0.96196978237E+02  0.75162915386E+03  0.84856136141E+03  0.00000000000E+00 0. -1.
         22    1    1    2    0    0 -0.87409692674E+03  0.14270706352E+03 -0.20456734925E+04  0.22291681814E+04  0.00000000000E+00 0.  1.
<mgrwt>
<rscale>  0 0.43114843E+04</rscale>
<asrwt>0</asrwt>
<pdfrwt beam="1">  1        2 0.34422189E+00 0.43114843E+04</pdfrwt>
<pdfrwt beam="2">  1       -2 0.31954235E+00 0.43114843E+04</pdfrwt>
<totfact> 0.91200253E-02</totfact>
</mgrwt>
</event>
<event>
 6    1  0.5196787E-004  0.1317664E+04  0.7818608E-02  0.9015673E-01
          2   -1    0    0  501    0  0.00000000000E+00  0.00000000000E+00  0.64827278790E+03  0.64827278790E+03  0.00000000000E+00 0.  1.
         -2   -1    0    0    0  501 -0.00000000000E+00 -0.00000000000E+00 -0.66956345136E+03  0.66956345136E+03  0.00000000000E+00 0. -1.
         23    2    1    2    0    0  0.42259429018E+03  0.49349453377E+03  0.78429009780E+02  0.66051835407E+03  0.89501941516E+02 0.  0.
         11    1    3    3    0    0  0.25314771909E+03  0.30410924878E+03  0.39465730223E+01  0.39570415504E+03  0.00000000000E+00 0. -1.
        -11    1    3    3    0    0  0.16944657109E+03  0.18938528499E+03  0.74482436758E+02  0.26481419903E+03  0.00000000000E+00 0.  1.
         22    1    1    2    0    0 -0.42259429018E+03 -0.49349453377E+03 -0.99719673248E+02  0.65731788519E+03  0.00000000000E+00 0. -1.
<mgrwt>
<rscale>  0 0.13176642E+04</rscale>
<asrwt>0</asrwt>
<pdfrwt beam="1">  1        2 0.99734276E-01 0.13176642E+04</pdfrwt>
<pdfrwt beam="2">  1       -2 0.10300976E+00 0.13176642E+04</pdfrwt>
<totfact> 0.33994153E+01</totfact>
</mgrwt>
</event>
<event>
 6    1  0.5196787E-004  0.1865140E+04  0.7818608E-02  0.8672406E-01
          2   -1    0    0  501    0  0.00000000000E+00  0.00000000000E+00  0.32877910931E+04  0.32877910931E+04  0.00000000000E+00 0.  1.
         -2   -1    0    0    0  501 -0.00000000000E+00 -0.00000000000E+00 -0.26451997760E+03  0.26451997760E+03  0.00000000000E+00 0. -1.
         23    2    1    2    0    0 -0.59957422101E+03 -0.68234812631E+03  0.11326895606E+04  0.14548395387E+04  0.92109883226E+02 0.  0.
         13    1    3    3    0    0 -0.14955382201E+03 -0.17183306522E+03  0.22322795608E+03  0.31894148109E+03  0.00000000000E+00 0. -1.
        -13    1    3    3    0    0 -0.45002039901E+03 -0.51051506109E+03  0.90946160455E+03  0.11358980576E+04  0.00000000000E+00 0.  1.
         22    1    1    2    0    0  0.59957422101E+03  0.68234812631E+03  0.18905815549E+04  0.20974715320E+04  0.00000000000E+00 0.  1.
<mgrwt>
<rscale>  0 0.18651396E+04</rscale>
<asrwt>0</asrwt>
<pdfrwt beam="1">  1        2 0.50581399E+00 0.18651396E+04</pdfrwt>
<pdfrwt beam="2">  1       -2 0.40695383E-01 0.18651396E+04</pdfrwt>
<totfact> 0.61271509E+00</totfact>
</mgrwt>
</event>
<event>
 6    1  0.5196787E-004  0.2615377E+04  0.7818608E-02  0.8362997E-01
         -2   -1    0    0    0  501 -0.00000000000E+00  0.00000000000E+00  0.18967642862E+04  0.18967642862E+04  0.00000000000E+00 0. -1.
          2   -1    0    0  501    0  0.00000000000E+00 -0.00000000000E+00 -0.90156092386E+03  0.90156092386E+03  0.00000000000E+00 0.  1.
         23    2    1    2    0    0  0.59046142454E+03 -0.63938709634E+03 -0.54376750135E+03  0.10303060156E+04  0.91579677536E+02 0.  0.
         13    1    3    3    0    0  0.80287835555E+02 -0.13857121671E+03 -0.10453554733E+03  0.19124800468E+03  0.00000000000E+00 0. -1.
        -13    1    3    3    0    0  0.51017358898E+03 -0.50081587963E+03 -0.43923195402E+03  0.83905801088E+03  0.00000000000E+00 0.  1.
         22    1    1    2    0    0 -0.59046142454E+03  0.63938709634E+03  0.15389708637E+04  0.17680191945E+04  0.00000000000E+00 0. -1.
<mgrwt>
<rscale>  0 0.26153765E+04</rscale>
<asrwt>0</asrwt>
<pdfrwt beam="1">  1        2 0.13870168E+00 0.26153765E+04</pdfrwt>
<pdfrwt beam="2">  1       -2 0.29180989E+00 0.26153765E+04</pdfrwt>
<totfact> 0.92177508E-01</totfact>
</mgrwt>
</event>
<event>
 6    1  0.5196787E-004  0.7240005E+03  0.7818608E-02  0.9677046E-01
          2   -1    0    0  501    0  0.00000000000E+00  0.00000000000E+00  0.13771874229E+04  0.13771874229E+04  0.00000000000E+00 0.  1.
         -2   -1    0    0    0  501 -0.00000000000E+00 -0.00000000000E+00 -0.95153494373E+02  0.95153494373E+02  0.00000000000E+00 0. -1.
         23    2    1    2    0    0  0.35151644024E+03  0.40153460826E+02  0.74309464083E+03  0.82764590100E+03  0.87361227313E+02 0.  0.
         13    1    3    3    0    0  0.85013554904E+02 -0.20562447875E+02  0.13381037032E+03  0.15986035777E+03  0.00000000000E+00 0.  1.
        -13    1    3    3    0    0  0.26650288534E+03  0.60715908701E+02  0.60928427051E+03  0.66778554323E+03  0.00000000000E+00 0. -1.
         22    1    1    2    0    0 -0.35151644024E+03 -0.40153460826E+02  0.53893928765E+03  0.64469501623E+03  0.00000000000E+00 0. -1.
<mgrwt>
<rscale>  0 0.72400054E+03</rscale>
<asrwt>0</asrwt>
<pdfrwt beam="1">  1        2 0.21187497E+00 0.72400054E+03</pdfrwt>
<pdfrwt beam="2">  1       -2 0.14639000E-01 0.72400054E+03</pdfrwt>
<totfact> 0.55072094E+02</totfact>
</mgrwt>
</event>
<event>
 6    1  0.5196787E-004  0.3924520E+04  0.7818608E-02  0.8019949E-01
          2   -1    0    0  501    0  0.00000000000E+00  0.00000000000E+00  0.24330511720E+04  0.24330511720E+04  0.00000000000E+00 0. -1.
         -2   -1    0    0    0  501 -0.00000000000E+00 -0.00000000000E+00 -0.15825662882E+04  0.15825662882E+04  0.00000000000E+00 0.  1.
         23    2    1    2    0    0 -0.14075252794E+04  0.13441236031E+04  0.17847819464E+03  0.19566398832E+04  0.93752303036E+02 0.  0.
         11    1    3    3    0    0 -0.26058168506E+03  0.21446971458E+03  0.55699918584E+01  0.33753680965E+03  0.00000000000E+00 0.  1.
        -11    1    3    3    0    0 -0.11469435943E+04  0.11296538885E+04  0.17290820278E+03  0.16191030736E+04  0.00000000000E+00 0. -1.
         22    1    1    2    0    0  0.14075252794E+04 -0.13441236031E+04  0.67200668916E+03  0.20589775770E+04  0.00000000000E+00 0. -1.
<mgrwt>
<rscale>  0 0.39245202E+04</rscale>
<asrwt>0</asrwt>
<pdfrwt beam="1">  1        2 0.37431556E+00 0.39245202E+04</pdfrwt>
<pdfrwt beam="2">  1       -2 0.24347174E+00 0.39245202E+04</pdfrwt>
<totfact> 0.21294518E-01</totfact>
</mgrwt>
</event>
<event>
 6    1  0.5196787E-004  0.3040334E+04  0.7818608E-02  0.8232306E-01
         -2   -1    0    0    0  501 -0.00000000000E+00  0.00000000000E+00  0.75722394891E+03  0.75722394891E+03  0.00000000000E+00 0. -1.
          2   -1    0    0  501    0  0.00000000000E+00 -0.00000000000E+00 -0.30518148243E+04  0.30518148243E+04  0.00000000000E+00 0.  1.
         23    2    1    2    0    0 -0.87057599339E+03  0.12137317775E+04 -0.80353254561E+03  0.16985169584E+04  0.90818050845E+02 0.  0.
         13    1    3    3    0    0 -0.16489440797E+03  0.27353692656E+03 -0.14127455347E+03  0.34924363334E+03  0.00000000000E+00 0. -1.
        -13    1    3    3    0    0 -0.70568158542E+03  0.94019485089E+03 -0.66225799213E+03  0.13492733251E+04  0.00000000000E+00 0.  1.
         22    1    1    2    0    0  0.87057599339E+03 -0.12137317775E+04 -0.14910583298E+04  0.21105218148E+04  0.00000000000E+00 0.  1.
<mgrwt>
<rscale>  0 0.30403337E+04</rscale>
<asrwt>0</asrwt>
<pdfrwt beam="1">  1        2 0.46950998E+00 0.30403337E+04</pdfrwt>
<pdfrwt beam="2">  1       -2 0.11649599E+00 0.30403337E+04</pdfrwt>
<totfact> 0.78665457E-01</totfact>
</mgrwt>
</event>
<event>
 6    1  0.5196787E-004  0.4406728E+04  0.7818608E-02  0.7927173E-01
          2   -1    0    0  501    0  0.00000000000E+00  0.00000000000E+00  0.19001217030E+04  0.19001217030E+04  0.00000000000E+00 0.  1.
         -2   -1    0    0    0  501 -0.00000000000E+00 -0.00000000000E+00 -0.25550010174E+04  0.25550010174E+04  0.00000000000E+00 0. -1.
         23    2    1    2    0    0 -0.35553096829E+03 -0.19418708705E+04 -0.13142047082E+04  0.23737830744E+04  0.10221214216E+03 0.  0.
         11    1    3    3    0    0 -0.15858327608E+03 -0.66419548106E+03 -0.41576345970E+03  0.79947704591E+03  0.00000000000E+00 0.  1.
        -11    1    3    3    0    0 -0.19694769221E+03 -0.12776753894E+04 -0.89844124849E+03  0.15743060285E+04  0.00000000000E+00 0. -1.
         22    1    1    2    0    0  0.35553096829E+03  0.19418708705E+04  0.65932539381E+03  0.20813396460E+04  0.00000000000E+00 0.  1.
<mgrwt>
<rscale>  0 0.44067280E+04</rscale>
<asrwt>0</asrwt>
<pdfrwt beam="1">  1        2 0.29232641E+00 0.44067280E+04</pdfrwt>
<pdfrwt beam="2">  1       -2 0.39307708E+00 0.44067280E+04</pdfrwt>
<totfact> 0.47738206E-02</totfact>
</mgrwt>
</event>
<event>
 6    1  0.5196787E-004  0.2532951E+04  0.7818608E-02  0.8391340E-01
         -2   -1    0    0    0  501 -0.00000000000E+00  0.00000000000E+00  0.30287318001E+04  0.30287318001E+04  0.00000000000E+00 0. -1.
          2   -1    0    0  501    0  0.00000000000E+00 -0.00000000000E+00 -0.52958150498E+03  0.52958150498E+03  0.00000000000E+00 0.  1.
         23    2    1    2    0    0 -0.64236512213E+03  0.91096927648E+03  0.20926224239E+04  0.23718214665E+04  0.63011803267E+02 0.  0.
         13    1    3    3    0    0 -0.53844778396E+03  0.73266141858E+03  0.17401146134E+04  0.19633434845E+04  0.00000000000E+00 0.  1.
        -13    1    3    3    0    0 -0.10391733817E+03  0.17830785790E+03  0.35250781048E+03  0.40847798204E+03  0.00000000000E+00 0. -1.
         22    1    1    2    0    0  0.64236512213E+03 -0.91096927648E+03  0.40652787120E+03  0.11864918385E+04  0.00000000000E+00 0. -1.
<mgrwt>
<rscale>  0 0.25329511E+04</rscale>
<asrwt>0</asrwt>
<pdfrwt beam="1">  1        2 0.81474079E-01 0.25329511E+04</pdfrwt>
<pdfrwt beam="2">  1       -2 0.46595873E+00 0.25329511E+04</pdfrwt>
<totfact> 0.13929936E-01</totfact>
</mgrwt>
</event>
<event>
 6    1  0.5196787E-004  0.1767847E+04  0.7818608E-02  0.8723588E-01
          2   -1    0    0  501    0  0.00000000000E+00  0.00000000000E+00  0.50359862048E+03  0.50359862048E+03  0.00000000000E+00 0.  1.
         -2   -1    0    0    0  501 -0.00000000000E+00 -0.00000000000E+00 -0.15514746710E+04  0.15514746710E+04  0.00000000000E+00 0. -1.
         23    2    1    2    0    0  0.29669202525E+02 -0.55115478357E+03 -0.13244811607E+04  0.14376899065E+04  0.89722155166E+02 0.  0.
         13    1    3    3    0    0 -0.38761482777E+01 -0.11590641746E+03 -0.37795889625E+03  0.39535079282E+03  0.00000000000E+00 0. -1.
        -13    1    3    3    0    0  0.33545350802E+02 -0.43524836612E+03 -0.94652226448E+03  0.10423391137E+04  0.00000000000E+00 0.  1.
         22    1    1    2    0    0 -0.29669202525E+02  0.55115478357E+03  0.27660511021E+03  0.61738338496E+03  0.00000000000E+00 0.  1.
<mgrwt>
<rscale>  0 0.17678467E+04</rscale>
<asrwt>0</asrwt>
<pdfrwt beam="1">  1        2 0.77476712E-01 0.17678467E+04</pdfrwt>
<pdfrwt beam="2">  1       -2 0.23868841E+00 0.17678467E+04</pdfrwt>
<totfact> 0.43609515E+00</totfact>
</mgrwt>
</event>
<event>
 6    1  0.5196787E-004  0.1465494E+04  0.7818608E-02  0.8907729E-01
          2   -1    0    0  501    0  0.00000000000E+00  0.00000000000E+00  0.64884715583E+03  0.64884715583E+03  0.00000000000E+00 0.  1.
         -2   -1    0    0    0  501 -0.00000000000E+00 -0.00000000000E+00 -0.82749531297E+03  0.82749531297E+03  0.00000000000E+00 0. -1.
         23    2    1    2    0    0 -0.28667175644E+02 -0.69081576254E+03  0.14622283047E+03  0.71241224730E+03  0.90010384009E+02 0.  0.
         11    1    3    3    0    0 -0.30259134634E+02 -0.55167949817E+03  0.15236105621E+03  0.57313155155E+03  0.00000000000E+00 0. -1.
        -11    1    3    3    0    0  0.15919589905E+01 -0.13913626437E+03 -0.61382257381E+01  0.13928069576E+03  0.00000000000E+00 0.  1.
         22    1    1    2    0    0  0.28667175644E+02  0.69081576254E+03 -0.32487098760E+03  0.76393022149E+03  0.00000000000E+00 0. -1.
<mgrwt>
<rscale>  0 0.14654937E+04</rscale>
<asrwt>0</asrwt>
<pdfrwt beam="1">  1        2 0.99822640E-01 0.14654937E+04</pdfrwt>
<pdfrwt beam="2">  1       -2 0.12730697E+00 0.14654937E+04</pdfrwt>
<totfact> 0.19981568E+01</totfact>
</mgrwt>
</event>
<event>
 6    1  0.5196787E-004  0.1539531E+04  0.7818608E-02  0.8858582E-01
          2   -1    0    0  501    0  0.00000000000E+00  0.00000000000E+00  0.85397386095E+03  0.85397386095E+03  0.00000000000E+00 0.  1.
         -2   -1    0    0    0  501 -0.00000000000E+00 -0.00000000000E+00 -0.69386101255E+03  0.69386101255E+03  0.00000000000E+00 0. -1.
         23    2    1    2    0    0  0.65976271694E+02  0.66465829220E+03  0.46016465423E+03  0.81560908865E+03  0.85692255620E+02 0.  0.
         11    1    3    3    0    0 -0.14266319535E+02  0.27149695927E+03  0.17473802538E+03  0.32318339109E+03  0.00000000000E+00 0.  1.
        -11    1    3    3    0    0  0.80242591229E+02  0.39316133293E+03  0.28542662885E+03  0.49242569756E+03  0.00000000000E+00 0. -1.
         22    1    1    2    0    0 -0.65976271694E+02 -0.66465829220E+03 -0.30005180583E+03  0.73222578485E+03  0.00000000000E+00 0. -1.
<mgrwt>
<rscale>  0 0.15395313E+04</rscale>
<asrwt>0</asrwt>
<pdfrwt beam="1">  1        2 0.13138059E+00 0.15395313E+04</pdfrwt>
<pdfrwt beam="2">  1       -2 0.10674785E+00 0.15395313E+04</pdfrwt>
<totfact> 0.21465274E+01</totfact>
</mgrwt>
</event>
<event>
 6    1  0.5196787E-004  0.1662754E+04  0.7818608E-02  0.8782897E-01
         -2   -1    0    0    0  501 -0.00000000000E+00  0.00000000000E+00  0.52778427705E+03  0.52778427705E+03  0.00000000000E+00 0. -1.
          2   -1    0    0  501    0  0.00000000000E+00 -0.00000000000E+00 -0.13096020863E+04  0.13096020863E+04  0.00000000000E+00 0.  1.
         23    2    1    2    0    0  0.79056712900E+03 -0.12116402994E+03 -0.14801326806E+03  0.81690348547E+03  0.75804151849E+02 0.  0.
         11    1    3    3    0    0  0.69821615764E+03 -0.10869497835E+03 -0.10543690014E+03  0.71444897720E+03  0.00000000000E+00 0.  1.
        -11    1    3    3    0    0  0.92350971360E+02 -0.12469051595E+02 -0.42576367929E+02  0.10245450827E+03  0.00000000000E+00 0. -1.
         22    1    1    2    0    0 -0.79056712900E+03  0.12116402994E+03 -0.63380454115E+03  0.10204828779E+04  0.00000000000E+00 0. -1.
<mgrwt>
<rscale>  0 0.16627536E+04</rscale>
<asrwt>0</asrwt>
<pdfrwt beam="1">  1        2 0.20147724E+00 0.16627536E+04</pdfrwt>
<pdfrwt beam="2">  1       -2 0.81197582E-01 0.16627536E+04</pdfrwt>
<totfact> 0.20820213E+01</totfact>
</mgrwt>
</event>
<event>
 6    1  0.5196787E-004  0.1813558E+04  0.7818608E-02  0.8699122E-01
         -2   -1    0    0    0  501 -0.00000000000E+00  0.00000000000E+00  0.55798772818E+03  0.55798772818E+03  0.00000000000E+00 0. -1.
          2   -1    0    0  501    0  0.00000000000E+00 -0.00000000000E+00 -0.14735955518E+04  0.14735955518E+04  0.00000000000E+00 0.  1.
         23    2    1    2    0    0 -0.71392243824E+03  0.46238450040E+03 -0.11566507220E+03  0.86393903641E+03  0.97609301144E+02 0.  0.
         13    1    3    3    0    0 -0.60484917950E+03  0.42977730727E+03 -0.92133167856E+02  0.74768949732E+03  0.00000000000E+00 0.  1.
        -13    1    3    3    0    0 -0.10907325874E+03  0.32607193134E+02 -0.23531904339E+02  0.11624953909E+03  0.00000000000E+00 0. -1.
         22    1    1    2    0    0  0.71392243824E+03 -0.46238450040E+03 -0.79994275147E+03  0.11676442436E+04  0.00000000000E+00 0. -1.
<mgrwt>
<rscale>  0 0.18135581E+04</rscale>
<asrwt>0</asrwt>
<pdfrwt beam="1">  1        2 0.22670701E+00 0.18135581E+04</pdfrwt>
<pdfrwt beam="2">  1       -2 0.85844266E-01 0.18135581E+04</pdfrwt>
<totfact> 0.14596499E+01</totfact>
</mgrwt>
</event>
<event>
 6    1  0.5196787E-004  0.1099792E+04  0.7818608E-02  0.9205395E-01
         -2   -1    0    0    0  501 -0.00000000000E+00  0.00000000000E+00  0.38030995144E+03  0.38030995144E+03  0.00000000000E+00 0. -1.
          2   -1    0    0  501    0  0.00000000000E+00 -0.00000000000E+00 -0.79510287336E+03  0.79510287336E+03  0.00000000000E+00 0.  1.
         23    2    1    2    0    0  0.20638168743E+03  0.31917574046E+03 -0.62798733311E+03  0.73961652930E+03  0.90542617974E+02 0.  0.
         13    1    3    3    0    0  0.11991627574E+03  0.23600541151E+03 -0.36842709848E+03  0.45367057910E+03  0.00000000000E+00 0. -1.
        -13    1    3    3    0    0  0.86465411680E+02  0.83170328958E+02 -0.25956023463E+03  0.28594595020E+03  0.00000000000E+00 0.  1.
         22    1    1    2    0    0 -0.20638168743E+03 -0.31917574046E+03  0.21319441119E+03  0.43579629550E+03  0.00000000000E+00 0. -1.
<mgrwt>
<rscale>  0 0.10997919E+04</rscale>
<asrwt>0</asrwt>
<pdfrwt beam="1">  1        2 0.12232352E+00 0.10997919E+04</pdfrwt>
<pdfrwt beam="2">  1       -2 0.58509224E-01 0.10997919E+04</pdfrwt>
<totfact> 0.94208139E+01</totfact>
</mgrwt>
</event>
<event>
 6    1  0.5196787E-004  0.1539841E+04  0.7818608E-02  0.8858383E-01
          2   -1    0    0  501    0  0.00000000000E+00  0.00000000000E+00  0.18556092251E+04  0.18556092251E+04  0.00000000000E+00 0.  1.
         -2   -1    0    0    0  501 -0.00000000000E+00 -0.00000000000E+00 -0.31945157595E+03  0.31945157595E+03  0.00000000000E+00 0. -1.
         23    2    1    2    0    0  0.56724026416E+02  0.46499224383E+03  0.16287652510E+04  0.16975552304E+04  0.96861321432E+02 0.  0.
         13    1    3    3    0    0 -0.10899626685E+02  0.29768280348E+03  0.10189232771E+04  0.10615735952E+04  0.00000000000E+00 0.  1.
        -13    1    3    3    0    0  0.67623653101E+02  0.16730944035E+03  0.60984197389E+03  0.63598163527E+03  0.00000000000E+00 0. -1.
         22    1    1    2    0    0 -0.56724026416E+02 -0.46499224383E+03 -0.92607601882E+02  0.47750557056E+03  0.00000000000E+00 0. -1.
<mgrwt>
<rscale>  0 0.15398406E+04</rscale>
<asrwt>0</asrwt>
<pdfrwt beam="1">  1        2 0.28547834E+00 0.15398406E+04</pdfrwt>
<pdfrwt beam="2">  1       -2 0.49146397E-01 0.15398406E+04</pdfrwt>
<totfact> 0.30345369E+01</totfact>
</mgrwt>
</event>
<event>
 6    1  0.5196787E-004  0.6072995E+04  0.7818608E-02  0.7681417E-01
          1   -1    0    0  501    0  0.00000000000E+00  0.00000000000E+00  0.18581607413E+04  0.18581607413E+04  0.00000000000E+00 0.  1.
         -1   -1    0    0    0  501 -0.00000000000E+00 -0.00000000000E+00 -0.49620658353E+04  0.49620658353E+04  0.00000000000E+00 0. -1.
         23    2    1    2    0    0  0.40566130859E+03 -0.17961083930E+04  0.11583187074E+04  0.21772622013E+04  0.90564941769E+02 0.  0.
         13    1    3    3    0    0  0.25941741628E+03 -0.13006152343E+04  0.86065999081E+03  0.15810227713E+04  0.00000000000E+00 0.  1.
        -13    1    3    3    0    0  0.14624389231E+03 -0.49549315867E+03  0.29765871664E+03  0.59623943002E+03  0.00000000000E+00 0. -1.
         22    1    1    2    0    0 -0.40566130859E+03  0.17961083930E+04 -0.42622238014E+04  0.46429643753E+04  0.00000000000E+00 0. -1.
<mgrwt>
<rscale>  0 0.60729946E+04</rscale>
<asrwt>0</asrwt>
<pdfrwt beam="1">  1        1 0.28587089E+00 0.60729946E+04</pdfrwt>
<pdfrwt beam="2">  1       -1 0.76339474E+00 0.60729946E+04</pdfrwt>
<totfact> 0.27590127E-04</totfact>
</mgrwt>
</event>
<event>
 6    1  0.5196787E-004  0.6093554E+03  0.7818608E-02  0.9886184E-01
         -2   -1    0    0    0  501 -0.00000000000E+00  0.00000000000E+00  0.12077167115E+03  0.12077167115E+03  0.00000000000E+00 0. -1.
          2   -1    0    0  501    0  0.00000000000E+00 -0.00000000000E+00 -0.76862809757E+03  0.76862809757E+03  0.00000000000E+00 0.  1.
         23    2    1    2    0    0  0.21949709797E+03 -0.11650211024E+03 -0.91495068101E+02  0.28006432848E+03  0.91175451151E+02 0.  0.
         11    1    3    3    0    0  0.62456125755E+02 -0.83211432965E+02 -0.31807102949E+02  0.10879614891E+03  0.00000000000E+00 0. -1.
        -11    1    3    3    0    0  0.15704097222E+03 -0.33290677272E+02 -0.59687965152E+02  0.17126817957E+03  0.00000000000E+00 0.  1.
         22    1    1    2    0    0 -0.21949709797E+03  0.11650211024E+03 -0.55636135832E+03  0.60933544025E+03  0.00000000000E+00 0.  1.
<mgrwt>
<rscale>  0 0.60935540E+03</rscale>
<asrwt>0</asrwt>
<pdfrwt beam="1">  1        2 0.11825048E+00 0.60935540E+03</pdfrwt>
<pdfrwt beam="2">  1       -2 0.18580257E-01 0.60935540E+03</pdfrwt>
<totfact> 0.88611931E+02</totfact>
</mgrwt>
</event>
<event>
 6    1  0.5196787E-004  0.9121212E+03  0.7818608E-02  0.9410555E-01
         -2   -1    0    0    0  501 -0.00000000000E+00  0.00000000000E+00  0.14899628646E+03  0.14899628646E+03  0.00000000000E+00 0.  1.
          2   -1    0    0  501    0  0.00000000000E+00 -0.00000000000E+00 -0.13959492312E+04  0.13959492312E+04  0.00000000000E+00 0. -1.
         23    2    1    2    0    0 -0.18809858293E+03  0.36391477746E+03 -0.95234089611E+03  0.10403552865E+04  0.87010905260E+02 0.  0.
         11    1    3    3    0    0 -0.14766648969E+03  0.19422339061E+03 -0.57659661601E+03  0.62609246540E+03  0.00000000000E+00 0.  1.
        -11    1    3    3    0    0 -0.40432093245E+02  0.16969138685E+03 -0.37574428009E+03  0.41426282112E+03  0.00000000000E+00 0. -1.
         22    1    1    2    0    0  0.18809858293E+03 -0.36391477746E+03 -0.29461204859E+03  0.50459023111E+03  0.00000000000E+00 0.  1.
<mgrwt>
<rscale>  0 0.91212116E+03</rscale>
<asrwt>0</asrwt>
<pdfrwt beam="1">  1        2 0.21476142E+00 0.91212116E+03</pdfrwt>
<pdfrwt beam="2">  1       -2 0.22922505E-01 0.91212116E+03</pdfrwt>
<totfact> 0.24439578E+02</totfact>
</mgrwt>
</event>
<event>
 6    1  0.5196787E-004  0.3676032E+04  0.7818608E-02  0.8073294E-01
          2   -1    0    0  501    0  0.00000000000E+00  0.00000000000E+00  0.17750699958E+04  0.17750699958E+04  0.00000000000E+00 0.  1.
         -2   -1    0    0    0  501 -0.00000000000E+00 -0.00000000000E+00 -0.19031937813E+04  0.19031937813E+04  0.00000000000E+00 0. -1.
         23    2    1    2    0    0  0.11267920613E+04  0.20499237613E+03  0.13719554418E+04  0.17909588436E+04  0.11657453159E+03 0.  0.
         11    1    3    3    0    0  0.24715287162E+03  0.53514649431E+02  0.23245085237E+03  0.34348472808E+03  0.00000000000E+00 0. -1.
        -11    1    3    3    0    0  0.87963918967E+03  0.15147772670E+03  0.11395045895E+04  0.14474741155E+04  0.00000000000E+00 0.  1.
         22    1    1    2    0    0 -0.11267920613E+04 -0.20499237613E+03 -0.15000792273E+04  0.18873049335E+04  0.00000000000E+00 0. -1.
<mgrwt>
<rscale>  0 0.36760317E+04</rscale>
<asrwt>0</asrwt>
<pdfrwt beam="1">  1        2 0.27308769E+00 0.36760317E+04</pdfrwt>
<pdfrwt beam="2">  1       -2 0.29279904E+00 0.36760317E+04</pdfrwt>
<totfact> 0.25381366E-01</totfact>
</mgrwt>
</event>
<event>
 6    1  0.5196787E-004  0.2605099E+04  0.7818608E-02  0.8366471E-01
         -2   -1    0    0    0  501 -0.00000000000E+00  0.00000000000E+00  0.39149327794E+03  0.39149327794E+03  0.00000000000E+00 0. -1.
          2   -1    0    0  501    0  0.00000000000E+00 -0.00000000000E+00 -0.43337540102E+04  0.43337540102E+04  0.00000000000E+00 0.  1.
         23    2    1    2    0    0  0.10264847411E+04  0.73078587282E+03 -0.25604534886E+04  0.28551910926E+04  0.92060809398E+02 0.  0.
         13    1    3    3    0    0  0.58303409923E+03  0.43646558016E+03 -0.13835376051E+04  0.15635239903E+04  0.00000000000E+00 0. -1.
        -13    1    3    3    0    0  0.44345064191E+03  0.29432029266E+03 -0.11769158835E+04  0.12916671023E+04  0.00000000000E+00 0.  1.
         22    1    1    2    0    0 -0.10264847411E+04 -0.73078587282E+03 -0.13818072437E+04  0.18700561956E+04  0.00000000000E+00 0.  1.
<mgrwt>
<rscale>  0 0.26050993E+04</rscale>
<asrwt>0</asrwt>
<pdfrwt beam="1">  1        2 0.66673140E+00 0.26050993E+04</pdfrwt>
<pdfrwt beam="2">  1       -2 0.60229734E-01 0.26050993E+04</pdfrwt>
<totfact> 0.40294604E-01</totfact>
</mgrwt>
</event>
<event>
 6    1  0.5196787E-004  0.1747013E+04  0.7818608E-02  0.8734996E-01
         -2   -1    0    0    0  501 -0.00000000000E+00  0.00000000000E+00  0.23910413643E+03  0.23910413643E+03  0.00000000000E+00 0. -1.
          2   -1    0    0  501    0  0.00000000000E+00 -0.00000000000E+00 -0.31911363921E+04  0.31911363921E+04  0.00000000000E+00 0.  1.
         23    2    1    2    0    0  0.84147253017E+03  0.18991728068E+03 -0.17186064597E+04  0.19250881154E+04  0.90617306553E+02 0.  0.
         13    1    3    3    0    0  0.71787838312E+03  0.19295233363E+03 -0.14526275047E+04  0.16317802068E+04  0.00000000000E+00 0.  1.
        -13    1    3    3    0    0  0.12359414705E+03 -0.30350529479E+01 -0.26597895502E+03  0.29330790860E+03  0.00000000000E+00 0. -1.
         22    1    1    2    0    0 -0.84147253017E+03 -0.18991728068E+03 -0.12334257960E+04  0.15051524131E+04  0.00000000000E+00 0.  1.
<mgrwt>
<rscale>  0 0.17470133E+04</rscale>
<asrwt>0</asrwt>
<pdfrwt beam="1">  1        2 0.49094401E+00 0.17470133E+04</pdfrwt>
<pdfrwt beam="2">  1       -2 0.36785255E-01 0.17470133E+04</pdfrwt>
<totfact> 0.87251362E+00</totfact>
</mgrwt>
</event>
<event>
 6    1  0.5196787E-004  0.2241791E+04  0.7818608E-02  0.8501233E-01
         -1   -1    0    0    0  501 -0.00000000000E+00  0.00000000000E+00  0.79999557841E+03  0.79999557841E+03  0.00000000000E+00 0. -1.
          1   -1    0    0  501    0  0.00000000000E+00 -0.00000000000E+00 -0.15705164934E+04  0.15705164934E+04  0.00000000000E+00 0.  1.
         23    2    1    2    0    0  0.71903889194E+03 -0.71013137941E+03  0.12253036822E+03  0.10218667891E+04  0.88851220295E+02 0.  0.
         11    1    3    3    0    0  0.43180771148E+03 -0.36477005195E+03  0.63640386495E+02  0.56882790832E+03  0.00000000000E+00 0. -1.
        -11    1    3    3    0    0  0.28723118047E+03 -0.34536132746E+03  0.58889981728E+02  0.45303888076E+03  0.00000000000E+00 0.  1.
         22    1    1    2    0    0 -0.71903889194E+03  0.71013137941E+03 -0.89305128320E+03  0.13486452827E+04  0.00000000000E+00 0.  1.
<mgrwt>
<rscale>  0 0.22417906E+04</rscale>
<asrwt>0</asrwt>
<pdfrwt beam="1">  1        1 0.24161792E+00 0.22417906E+04</pdfrwt>
<pdfrwt beam="2">  1       -1 0.12307624E+00 0.22417906E+04</pdfrwt>
<totfact> 0.30892485E+00</totfact>
</mgrwt>
</event>
<event>
 6    1  0.5196787E-004  0.2429250E+04  0.7818608E-02  0.8428633E-01
          4   -1    0    0  501    0  0.00000000000E+00  0.00000000000E+00  0.22387543736E+04  0.22387543736E+04  0.00000000000E+00 0.  1.
         -4   -1    0    0    0  501 -0.00000000000E+00 -0.00000000000E+00 -0.65898883988E+03  0.65898883988E+03  0.00000000000E+00 0. -1.
         23    2    1    2    0    0  0.11356099664E+04 -0.17649365455E+03  0.12536879769E+04  0.17031359228E+04  0.90434628146E+02 0.  0.
         13    1    3    3    0    0  0.78227612338E+03 -0.11692173176E+03  0.92292858072E+03  0.12154932290E+04  0.00000000000E+00 0. -1.
        -13    1    3    3    0    0  0.35333384306E+03 -0.59571922789E+02  0.33075939622E+03  0.48764269381E+03  0.00000000000E+00 0.  1.
         22    1    1    2    0    0 -0.11356099664E+04  0.17649365455E+03  0.32607755681E+03  0.11946072907E+04  0.00000000000E+00 0. -1.
<mgrwt>
<rscale>  0 0.24292502E+04</rscale>
<asrwt>0</asrwt>
<pdfrwt beam="1">  1        4 0.34442375E+00 0.24292502E+04</pdfrwt>
<pdfrwt beam="2">  1       -4 0.10138290E+00 0.24292502E+04</pdfrwt>
<totfact> 0.23076894E-02</totfact>
</mgrwt>
</event>
<event>
 6    1  0.5196787E-004  0.4079859E+04  0.7818608E-02  0.7988627E-01
          2   -1    0    0  501    0  0.00000000000E+00  0.00000000000E+00  0.33395316970E+04  0.33395316970E+04  0.00000000000E+00 0.  1.
         -2   -1    0    0    0  501 -0.00000000000E+00 -0.00000000000E+00 -0.12460766665E+04  0.12460766665E+04  0.00000000000E+00 0. -1.
         23    2    1    2    0    0 -0.61385485277E+03 -0.15086658720E+04 -0.33121873325E+03  0.16646610250E+04  0.92195364544E+02 0.  0.
         13    1    3    3    0    0 -0.37645993050E+03 -0.10286640944E+04 -0.20322543333E+03  0.11140792050E+04  0.00000000000E+00 0.  1.
        -13    1    3    3    0    0 -0.23739492227E+03 -0.48000177766E+03 -0.12799329992E+03  0.55058181999E+03  0.00000000000E+00 0. -1.
         22    1    1    2    0    0  0.61385485277E+03  0.15086658720E+04  0.24246737637E+04  0.29209473385E+04  0.00000000000E+00 0.  1.
<mgrwt>
<rscale>  0 0.40798591E+04</rscale>
<asrwt>0</asrwt>
<pdfrwt beam="1">  1        2 0.51377410E+00 0.40798591E+04</pdfrwt>
<pdfrwt beam="2">  1       -2 0.19170410E+00 0.40798591E+04</pdfrwt>
<totfact> 0.12383768E-01</totfact>
</mgrwt>
</event>
<event>
 6    1  0.5196787E-004  0.1956277E+04  0.7818608E-02  0.8627340E-01
         -2   -1    0    0    0  501 -0.00000000000E+00  0.00000000000E+00  0.66857992297E+03  0.66857992297E+03  0.00000000000E+00 0. -1.
          2   -1    0    0  501    0  0.00000000000E+00 -0.00000000000E+00 -0.14310253406E+04  0.14310253406E+04  0.00000000000E+00 0.  1.
         23    2    1    2    0    0  0.50754148092E+03 -0.31501835642E+03 -0.12104886009E+04  0.13528940652E+04  0.90580234821E+02 0.  0.
         11    1    3    3    0    0  0.50571694449E+03 -0.31996994808E+03 -0.12040488825E+04  0.13445683721E+04  0.00000000000E+00 0. -1.
        -11    1    3    3    0    0  0.18245364284E+01  0.49515916662E+01 -0.64397184003E+01  0.83256931412E+01  0.00000000000E+00 0.  1.
         22    1    1    2    0    0 -0.50754148092E+03  0.31501835642E+03  0.44804318327E+03  0.74671119840E+03  0.00000000000E+00 0. -1.
<mgrwt>
<rscale>  0 0.19562769E+04</rscale>
<asrwt>0</asrwt>
<pdfrwt beam="1">  1        2 0.22015774E+00 0.19562769E+04</pdfrwt>
<pdfrwt beam="2">  1       -2 0.10285845E+00 0.19562769E+04</pdfrwt>
<totfact> 0.10004163E+01</totfact>
</mgrwt>
</event>
<event>
 6    1  0.5670987E-004  0.2046116E+04  0.7818608E-02  0.8585358E-01
          2   -1    0    0  501    0  0.00000000000E+00  0.00000000000E+00  0.79699486852E+03  0.79699486852E+03  0.00000000000E+00 0.  1.
         -2   -1    0    0    0  501 -0.00000000000E+00 -0.00000000000E+00 -0.13132425535E+04  0.13132425535E+04  0.00000000000E+00 0. -1.
         23    2    1    2    0    0 -0.99218325334E+03  0.23718862926E+03 -0.29898802987E+03  0.10672188163E+04  0.94213087622E+02 0.  0.
         11    1    3    3    0    0 -0.62357066224E+03  0.14608125304E+03 -0.23474116733E+03  0.68211693934E+03  0.00000000000E+00 0.  1.
        -11    1    3    3    0    0 -0.36861259110E+03  0.91107376224E+02 -0.64246862538E+02  0.38510187700E+03  0.00000000000E+00 0. -1.
         22    1    1    2    0    0  0.99218325334E+03 -0.23718862926E+03 -0.21725965511E+03  0.10430186057E+04  0.00000000000E+00 0. -1.
<mgrwt>
<rscale>  0 0.20461159E+04</rscale>
<asrwt>0</asrwt>
<pdfrwt beam="1">  1        2 0.12261460E+00 0.20461159E+04</pdfrwt>
<pdfrwt beam="2">  1       -2 0.20203732E+00 0.20461159E+04</pdfrwt>
<totfact> 0.41306023E+00</totfact>
</mgrwt>
</event>
<event>
 6    1  0.5196787E-004  0.3198051E+04  0.7818608E-02  0.8189332E-01
          2   -1    0    0  501    0  0.00000000000E+00  0.00000000000E+00  0.26091345191E+04  0.26091345191E+04  0.00000000000E+00 0.  1.
         -2   -1    0    0    0  501 -0.00000000000E+00 -0.00000000000E+00 -0.97997334171E+03  0.97997334171E+03  0.00000000000E+00 0. -1.
         23    2    1    2    0    0 -0.11991482778E+04 -0.10443662077E+04  0.98936316232E+03  0.18750486821E+04  0.91163179107E+02 0.  0.
         11    1    3    3    0    0 -0.93430122283E+03 -0.76532631121E+03  0.76648545963E+03  0.14304345834E+04  0.00000000000E+00 0.  1.
        -11    1    3    3    0    0 -0.26484705499E+03 -0.27903989652E+03  0.22287770269E+03  0.44461409867E+03  0.00000000000E+00 0. -1.
         22    1    1    2    0    0  0.11991482778E+04  0.10443662077E+04  0.63979801505E+03  0.17140591787E+04  0.00000000000E+00 0. -1.
<mgrwt>
<rscale>  0 0.31980508E+04</rscale>
<asrwt>0</asrwt>
<pdfrwt beam="1">  1        2 0.40140531E+00 0.31980508E+04</pdfrwt>
<pdfrwt beam="2">  1       -2 0.15076513E+00 0.31980508E+04</pdfrwt>
<totfact> 0.74808426E-01</totfact>
</mgrwt>
</event>
<event>
 6    1  0.5196787E-004  0.4432358E+04  0.7818608E-02  0.7922587E-01
          2   -1    0    0  501    0  0.00000000000E+00  0.00000000000E+00  0.21091450614E+04  0.21091450614E+04  0.00000000000E+00 0.  1.
         -2   -1    0    0    0  501 -0.00000000000E+00 -0.00000000000E+00 -0.23286451110E+04  0.23286451110E+04  0.00000000000E+00 0. -1.
         23    2    1    2    0    0  0.93291232099E+03 -0.81519079422E+03  0.17289006792E+04  0.21288668672E+04  0.90084126881E+02 0.  0.
         13    1    3    3    0    0  0.21821419641E+03 -0.23016866027E+03  0.39887998342E+03  0.50960797566E+03  0.00000000000E+00 0.  1.
        -13    1    3    3    0    0  0.71469812458E+03 -0.58502213395E+03  0.13300206958E+04  0.16192588915E+04  0.00000000000E+00 0. -1.
         22    1    1    2    0    0 -0.93291232099E+03  0.81519079422E+03 -0.19484007288E+04  0.23089233052E+04  0.00000000000E+00 0. -1.
<mgrwt>
<rscale>  0 0.44323584E+04</rscale>
<asrwt>0</asrwt>
<pdfrwt beam="1">  1        2 0.32448385E+00 0.44323584E+04</pdfrwt>
<pdfrwt beam="2">  1       -2 0.35825310E+00 0.44323584E+04</pdfrwt>
<totfact> 0.61030217E-02</totfact>
</mgrwt>
</event>
<event>
 6    1  0.5196787E-004  0.2515812E+04  0.7818608E-02  0.8397374E-01
          2   -1    0    0  501    0  0.00000000000E+00  0.00000000000E+00  0.18285706021E+04  0.18285706021E+04  0.00000000000E+00 0.  1.
         -2   -1    0    0    0  501 -0.00000000000E+00 -0.00000000000E+00 -0.86533608100E+03  0.86533608100E+03  0.00000000000E+00 0. -1.
         23    2    1    2    0    0 -0.45517623763E+02 -0.11648582197E+04 -0.18933361388E+02  0.11695641115E+04  0.92494392948E+02 0.  0.
         11    1    3    3    0    0 -0.43738396219E+02 -0.87295278801E+03  0.24776351172E+02  0.87439892783E+03  0.00000000000E+00 0. -1.
        -11    1    3    3    0    0 -0.17792275439E+01 -0.29190543169E+03 -0.43709712560E+02  0.29516518371E+03  0.00000000000E+00 0.  1.
         22    1    1    2    0    0  0.45517623763E+02  0.11648582197E+04  0.98216788248E+03  0.15243425716E+04  0.00000000000E+00 0.  1.
<mgrwt>
<rscale>  0 0.25158125E+04</rscale>
<asrwt>0</asrwt>
<pdfrwt beam="1">  1        2 0.28131855E+00 0.25158125E+04</pdfrwt>
<pdfrwt beam="2">  1       -2 0.13312863E+00 0.25158125E+04</pdfrwt>
<totfact> 0.30298189E+00</totfact>
</mgrwt>
</event>
<event>
 6    1  0.5196787E-004  0.1800249E+04  0.7818608E-02  0.8706167E-01
          2   -1    0    0  501    0  0.00000000000E+00  0.00000000000E+00  0.20325165694E+04  0.20325165694E+04  0.00000000000E+00 0.  1.
         -2   -1    0    0    0  501 -0.00000000000E+00 -0.00000000000E+00 -0.39863080964E+03  0.39863080964E+03  0.00000000000E+00 0. -1.
         23    2    1    2    0    0  0.35447854238E+02  0.87652807839E+03  0.10778256401E+04  0.13925132378E+04  0.88470246710E+02 0.  0.
         11    1    3    3    0    0  0.37515224226E+02  0.42259208420E+03  0.45890090024E+03  0.62496519736E+03  0.00000000000E+00 0. -1.
        -11    1    3    3    0    0 -0.20673699884E+01  0.45393599419E+03  0.61892473985E+03  0.76754804047E+03  0.00000000000E+00 0.  1.
         22    1    1    2    0    0 -0.35447854238E+02 -0.87652807839E+03  0.55606011968E+03  0.10386341412E+04  0.00000000000E+00 0. -1.
<mgrwt>
<rscale>  0 0.18002486E+04</rscale>
<asrwt>0</asrwt>
<pdfrwt beam="1">  1        2 0.31269485E+00 0.18002486E+04</pdfrwt>
<pdfrwt beam="2">  1       -2 0.61327818E-01 0.18002486E+04</pdfrwt>
<totfact> 0.14957941E+01</totfact>
</mgrwt>
</event>
<event>
 6    1  0.5196787E-004  0.3204774E+04  0.7818608E-02  0.8187557E-01
         -2   -1    0    0    0  501 -0.00000000000E+00  0.00000000000E+00  0.85336032592E+03  0.85336032592E+03  0.00000000000E+00 0. -1.
          2   -1    0    0  501    0  0.00000000000E+00 -0.00000000000E+00 -0.30088628574E+04  0.30088628574E+04  0.00000000000E+00 0.  1.
         23    2    1    2    0    0 -0.99382096194E+03 -0.12439970381E+04 -0.87534513986E+03  0.18191833691E+04  0.89388373280E+02 0.  0.
         11    1    3    3    0    0 -0.19315449812E+03 -0.24511688503E+03 -0.13195306843E+03  0.33882526432E+03  0.00000000000E+00 0.  1.
        -11    1    3    3    0    0 -0.80066646382E+03 -0.99888015308E+03 -0.74339207143E+03  0.14803581048E+04  0.00000000000E+00 0. -1.
         22    1    1    2    0    0  0.99382096194E+03  0.12439970381E+04 -0.12801573916E+04  0.20430398142E+04  0.00000000000E+00 0. -1.
<mgrwt>
<rscale>  0 0.32047741E+04</rscale>
<asrwt>0</asrwt>
<pdfrwt beam="1">  1        2 0.46290199E+00 0.32047741E+04</pdfrwt>
<pdfrwt beam="2">  1       -2 0.13128620E+00 0.32047741E+04</pdfrwt>
<totfact> 0.61245044E-01</totfact>
</mgrwt>
</event>
<event>
 6    1  0.5196787E-004  0.1033123E+04  0.7818608E-02  0.9272944E-01
         -2   -1    0    0    0  501 -0.00000000000E+00  0.00000000000E+00  0.53516515568E+03  0.53516515568E+03  0.00000000000E+00 0. -1.
          2   -1    0    0  501    0  0.00000000000E+00 -0.00000000000E+00 -0.49860419305E+03  0.49860419305E+03  0.00000000000E+00 0.  1.
         23    2    1    2    0    0  0.20716131097E+03  0.38799880290E+03 -0.24242515147E+03  0.51291223620E+03  0.10416394850E+03 0.  0.
         13    1    3    3    0    0  0.14259961326E+03  0.15748365804E+03 -0.12097614556E+03  0.24448104230E+03  0.00000000000E+00 0.  1.
        -13    1    3    3    0    0  0.64561697710E+02  0.23051514487E+03 -0.12144900591E+03  0.26843119390E+03  0.00000000000E+00 0. -1.
         22    1    1    2    0    0 -0.20716131097E+03 -0.38799880290E+03  0.27898611409E+03  0.52085711253E+03  0.00000000000E+00 0. -1.
<mgrwt>
<rscale>  0 0.10331226E+04</rscale>
<asrwt>0</asrwt>
<pdfrwt beam="1">  1        2 0.76708338E-01 0.10331226E+04</pdfrwt>
<pdfrwt beam="2">  1       -2 0.82333101E-01 0.10331226E+04</pdfrwt>
<totfact> 0.79815942E+01</totfact>
</mgrwt>
</event>
<event>
 6    1  0.5196787E-004  0.4826360E+04  0.7818608E-02  0.7855866E-01
          2   -1    0    0  501    0  0.00000000000E+00  0.00000000000E+00  0.22612546511E+04  0.22612546511E+04  0.00000000000E+00 0.  1.
         -2   -1    0    0    0  501 -0.00000000000E+00 -0.00000000000E+00 -0.25753125754E+04  0.25753125754E+04  0.00000000000E+00 0. -1.
         23    2    1    2    0    0  0.19029241873E+04  0.26582482373E+03  0.13046801312E+04  0.23241786834E+04  0.88504284682E+02 0.  0.
         13    1    3    3    0    0  0.15696279784E+04  0.25301843252E+03  0.10807175134E+04  0.19224205215E+04  0.00000000000E+00 0. -1.
        -13    1    3    3    0    0  0.33329620889E+03  0.12806391212E+02  0.22396261780E+03  0.40175816194E+03  0.00000000000E+00 0.  1.
         22    1    1    2    0    0 -0.19029241873E+04 -0.26582482373E+03 -0.16187380555E+04  0.25123885431E+04  0.00000000000E+00 0. -1.
<mgrwt>
<rscale>  0 0.48263599E+04</rscale>
<asrwt>0</asrwt>
<pdfrwt beam="1">  1        2 0.34788533E+00 0.48263599E+04</pdfrwt>
<pdfrwt beam="2">  1       -2 0.39620193E+00 0.48263599E+04</pdfrwt>
<totfact> 0.27675536E-02</totfact>
</mgrwt>
</event>
<event>
 6    1  0.5196787E-004  0.3338070E+04  0.7818608E-02  0.8153275E-01
          2   -1    0    0  501    0  0.00000000000E+00  0.00000000000E+00  0.29432160523E+04  0.29432160523E+04  0.00000000000E+00 0.  1.
         -2   -1    0    0    0  501 -0.00000000000E+00 -0.00000000000E+00 -0.94647417102E+03  0.94647417102E+03  0.00000000000E+00 0. -1.
         23    2    1    2    0    0 -0.13609082235E+04 -0.56709003818E+03  0.19076526746E+04  0.24126664622E+04  0.90324011862E+02 0.  0.
         11    1    3    3    0    0 -0.70741371655E+03 -0.34349184775E+03  0.10106877943E+04  0.12805899552E+04  0.00000000000E+00 0. -1.
        -11    1    3    3    0    0 -0.65349450692E+03 -0.22359819043E+03  0.89696488027E+03  0.11320765070E+04  0.00000000000E+00 0.  1.
         22    1    1    2    0    0  0.13609082235E+04  0.56709003818E+03  0.89089206752E+02  0.14770237611E+04  0.00000000000E+00 0. -1.
<mgrwt>
<rscale>  0 0.33380701E+04</rscale>
<asrwt>0</asrwt>
<pdfrwt beam="1">  1        2 0.45280247E+00 0.33380701E+04</pdfrwt>
<pdfrwt beam="2">  1       -2 0.14561141E+00 0.33380701E+04</pdfrwt>
<totfact> 0.50942322E-01</totfact>
</mgrwt>
</event>
<event>
 6    1  0.5196787E-004  0.2562974E+04  0.7818608E-02  0.8380888E-01
          2   -1    0    0  501    0  0.00000000000E+00  0.00000000000E+00  0.39058856727E+04  0.39058856727E+04  0.00000000000E+00 0.  1.
         -2   -1    0    0    0  501 -0.00000000000E+00 -0.00000000000E+00 -0.42044469926E+03  0.42044469926E+03  0.00000000000E+00 0. -1.
         23    2    1    2    0    0  0.46594942849E+02 -0.11183699345E+04  0.27925768364E+04  0.30099022078E+04  0.90019521009E+02 0.  0.
         11    1    3    3    0    0 -0.13805897758E+02 -0.21308591437E+03  0.60805113693E+03  0.64445511468E+03  0.00000000000E+00 0.  1.
        -11    1    3    3    0    0  0.60400840607E+02 -0.90528402015E+03  0.21845256994E+04  0.23654470931E+04  0.00000000000E+00 0. -1.
         22    1    1    2    0    0 -0.46594942849E+02  0.11183699345E+04  0.69286413712E+03  0.13164281643E+04  0.00000000000E+00 0. -1.
<mgrwt>
<rscale>  0 0.25629740E+04</rscale>
<asrwt>0</asrwt>
<pdfrwt beam="1">  1        2 0.60090546E+00 0.25629740E+04</pdfrwt>
<pdfrwt beam="2">  1       -2 0.64683803E-01 0.25629740E+04</pdfrwt>
<totfact> 0.79802365E-01</totfact>
</mgrwt>
</event>
<event>
 6    1  0.5196787E-004  0.1001221E+04  0.7818608E-02  0.9307206E-01
          1   -1    0    0  501    0  0.00000000000E+00  0.00000000000E+00  0.15190805331E+03  0.15190805331E+03  0.00000000000E+00 0.  1.
         -1   -1    0    0    0  501 -0.00000000000E+00 -0.00000000000E+00 -0.16497543711E+04  0.16497543711E+04  0.00000000000E+00 0. -1.
         23    2    1    2    0    0  0.19530594833E+03 -0.35823419143E+03 -0.24617951664E+03  0.48517242047E+03  0.91168930043E+02 0.  0.
         11    1    3    3    0    0  0.84907400168E+02 -0.17195513823E+03 -0.16800335736E+03  0.25495678899E+03  0.00000000000E+00 0. -1.
        -11    1    3    3    0    0  0.11039854816E+03 -0.18627905320E+03 -0.78176159285E+02  0.23021563148E+03  0.00000000000E+00 0.  1.
         22    1    1    2    0    0 -0.19530594833E+03  0.35823419143E+03 -0.12516668011E+04  0.13164900039E+04  0.00000000000E+00 0. -1.
<mgrwt>
<rscale>  0 0.10012212E+04</rscale>
<asrwt>0</asrwt>
<pdfrwt beam="1">  1        1 0.23370470E-01 0.10012212E+04</pdfrwt>
<pdfrwt beam="2">  1       -1 0.25380836E+00 0.10012212E+04</pdfrwt>
<totfact> 0.14183807E+01</totfact>
</mgrwt>
</event>
<event>
 6    1  0.5196787E-004  0.3033051E+04  0.7818608E-02  0.8234356E-01
          2   -1    0    0  501    0  0.00000000000E+00  0.00000000000E+00  0.20657919430E+04  0.20657919430E+04  0.00000000000E+00 0.  1.
         -2   -1    0    0    0  501 -0.00000000000E+00 -0.00000000000E+00 -0.11133013333E+04  0.11133013333E+04  0.00000000000E+00 0. -1.
         23    2    1    2    0    0  0.14998446837E+04 -0.14316287521E+03  0.64736096597E+03  0.16418445053E+04  0.80916470717E+02 0.  0.
         11    1    3    3    0    0  0.88287295506E+03 -0.12113800702E+03  0.36568372292E+03  0.96325679688E+03  0.00000000000E+00 0. -1.
        -11    1    3    3    0    0  0.61697172868E+03 -0.22024868193E+02  0.28167724305E+03  0.67858770845E+03  0.00000000000E+00 0.  1.
         22    1    1    2    0    0 -0.14998446837E+04  0.14316287521E+03  0.30512964376E+03  0.15372487709E+04  0.00000000000E+00 0. -1.
<mgrwt>
<rscale>  0 0.30330506E+04</rscale>
<asrwt>0</asrwt>
<pdfrwt beam="1">  1        2 0.31781414E+00 0.30330506E+04</pdfrwt>
<pdfrwt beam="2">  1       -2 0.17127713E+00 0.30330506E+04</pdfrwt>
<totfact> 0.10941870E+00</totfact>
</mgrwt>
</event>
<event>
 6    1  0.5196787E-004  0.1239204E+04  0.7818608E-02  0.9079217E-01
          2   -1    0    0  501    0  0.00000000000E+00  0.00000000000E+00  0.46720944701E+03  0.46720944701E+03  0.00000000000E+00 0.  1.
         -2   -1    0    0    0  501 -0.00000000000E+00 -0.00000000000E+00 -0.82170087583E+03  0.82170087583E+03  0.00000000000E+00 0. -1.
         23    2    1    2    0    0  0.35293777670E+03  0.50232666088E+03 -0.12334338211E+03  0.63291751195E+03  0.92053454960E+02 0.  0.
         11    1    3    3    0    0  0.19080293959E+03  0.32399788637E+03 -0.41053850561E+02  0.37824041399E+03  0.00000000000E+00 0. -1.
        -11    1    3    3    0    0  0.16213483712E+03  0.17832877450E+03 -0.82289531548E+02  0.25467709796E+03  0.00000000000E+00 0.  1.
         22    1    1    2    0    0 -0.35293777670E+03 -0.50232666088E+03 -0.23114804671E+03  0.65599281090E+03  0.00000000000E+00 0. -1.
<mgrwt>
<rscale>  0 0.12392036E+04</rscale>
<asrwt>0</asrwt>
<pdfrwt beam="1">  1        2 0.71878377E-01 0.12392036E+04</pdfrwt>
<pdfrwt beam="2">  1       -2 0.12641552E+00 0.12392036E+04</pdfrwt>
<totfact> 0.30542752E+01</totfact>
</mgrwt>
</event>
<event>
 6    1  0.5196787E-004  0.7255460E+03  0.7818608E-02  0.9674516E-01
          2   -1    0    0  501    0  0.00000000000E+00  0.00000000000E+00  0.11221464772E+04  0.11221464772E+04  0.00000000000E+00 0.  1.
         -2   -1    0    0    0  501 -0.00000000000E+00 -0.00000000000E+00 -0.11727902348E+03  0.11727902348E+03  0.00000000000E+00 0. -1.
         23    2    1    2    0    0  0.92303090779E+02 -0.34451151013E+03  0.50854582782E+03  0.62824369669E+03  0.94144794075E+02 0.  0.
         13    1    3    3    0    0  0.39179962478E+02 -0.27829524494E+03  0.35484153453E+03  0.45265420295E+03  0.00000000000E+00 0.  1.
        -13    1    3    3    0    0  0.53123128301E+02 -0.66216265192E+02  0.15370429329E+03  0.17558949374E+03  0.00000000000E+00 0. -1.
         22    1    1    2    0    0 -0.92303090779E+02  0.34451151013E+03  0.49632162587E+03  0.61118180396E+03  0.00000000000E+00 0. -1.
<mgrwt>
<rscale>  0 0.72554598E+03</rscale>
<asrwt>0</asrwt>
<pdfrwt beam="1">  1        2 0.17263791E+00 0.72554598E+03</pdfrwt>
<pdfrwt beam="2">  1       -2 0.18042927E-01 0.72554598E+03</pdfrwt>
<totfact> 0.54330849E+02</totfact>
</mgrwt>
</event>
<event>
 6    1  0.5196787E-004  0.1667656E+04  0.7818608E-02  0.8780029E-01
         -2   -1    0    0    0  501 -0.00000000000E+00  0.00000000000E+00  0.39216285036E+03  0.39216285036E+03  0.00000000000E+00 0. -1.
          2   -1    0    0  501    0  0.00000000000E+00 -0.00000000000E+00 -0.17729092164E+04  0.17729092164E+04  0.00000000000E+00 0.  1.
         23    2    1    2    0    0  0.61654653372E+03  0.53788414679E+03 -0.88382847118E+03  0.12077965694E+04  0.90392494254E+02 0.  0.
         11    1    3    3    0    0  0.16569551133E+03  0.19371166578E+03 -0.30284598277E+03  0.39584706796E+03  0.00000000000E+00 0. -1.
        -11    1    3    3    0    0  0.45085102239E+03  0.34417248102E+03 -0.58098248840E+03  0.81194950145E+03  0.00000000000E+00 0.  1.
         22    1    1    2    0    0 -0.61654653372E+03 -0.53788414679E+03 -0.49691789488E+03  0.95727549737E+03  0.00000000000E+00 0.  1.
<mgrwt>
<rscale>  0 0.16676560E+04</rscale>
<asrwt>0</asrwt>
<pdfrwt beam="1">  1        2 0.27275527E+00 0.16676560E+04</pdfrwt>
<pdfrwt beam="2">  1       -2 0.60332745E-01 0.16676560E+04</pdfrwt>
<totfact> 0.21811339E+01</totfact>
</mgrwt>
</event>
<event>
 6    1  0.5196787E-004  0.1150278E+04  0.7818608E-02  0.9157527E-01
          2   -1    0    0  501    0  0.00000000000E+00  0.00000000000E+00  0.21743985583E+04  0.21743985583E+04  0.00000000000E+00 0.  1.
         -2   -1    0    0    0  501 -0.00000000000E+00 -0.00000000000E+00 -0.15212717801E+03  0.15212717801E+03  0.00000000000E+00 0. -1.
         23    2    1    2    0    0 -0.27847319231E+03  0.38586798422E+03  0.37740111559E+03  0.61420578731E+03  0.91518998207E+02 0.  0.
         13    1    3    3    0    0 -0.20239551877E+03  0.27385494355E+03  0.31947072279E+03  0.46692828020E+03  0.00000000000E+00 0. -1.
        -13    1    3    3    0    0 -0.76077673535E+02  0.11201304067E+03  0.57930392798E+02  0.14727750711E+03  0.00000000000E+00 0.  1.
         22    1    1    2    0    0  0.27847319231E+03 -0.38586798422E+03  0.16448702647E+04  0.17123199490E+04  0.00000000000E+00 0.  1.
<mgrwt>
<rscale>  0 0.11502784E+04</rscale>
<asrwt>0</asrwt>
<pdfrwt beam="1">  1        2 0.33452283E+00 0.11502784E+04</pdfrwt>
<pdfrwt beam="2">  1       -2 0.23404183E-01 0.11502784E+04</pdfrwt>
<totfact> 0.85681929E+01</totfact>
</mgrwt>
</event>
<event>
 6    1  0.5196787E-004  0.2929608E+04  0.7818608E-02  0.8264122E-01
         -2   -1    0    0    0  501 -0.00000000000E+00  0.00000000000E+00  0.66605000387E+03  0.66605000387E+03  0.00000000000E+00 0. -1.
          2   -1    0    0  501    0  0.00000000000E+00 -0.00000000000E+00 -0.32214568942E+04  0.32214568942E+04  0.00000000000E+00 0.  1.
         23    2    1    2    0    0 -0.90840609806E+03  0.86508513494E+03 -0.22789567524E+04  0.26029841819E+04  0.91152849881E+02 0.  0.
         13    1    3    3    0    0 -0.30893276601E+03  0.25737634044E+03 -0.79962681642E+03  0.89503356366E+03  0.00000000000E+00 0. -1.
        -13    1    3    3    0    0 -0.59947333205E+03  0.60770879450E+03 -0.14793299360E+04  0.17079506182E+04  0.00000000000E+00 0.  1.
         22    1    1    2    0    0  0.90840609806E+03 -0.86508513494E+03 -0.27645013795E+03  0.12845227162E+04  0.00000000000E+00 0. -1.
<mgrwt>
<rscale>  0 0.29296084E+04</rscale>
<asrwt>0</asrwt>
<pdfrwt beam="1">  1        2 0.49560874E+00 0.29296084E+04</pdfrwt>
<pdfrwt beam="2">  1       -2 0.10246923E+00 0.29296084E+04</pdfrwt>
<totfact> 0.84191538E-01</totfact>
</mgrwt>
</event>
<event>
 6    1  0.5196787E-004  0.2873215E+04  0.7818608E-02  0.8280892E-01
          2   -1    0    0  501    0  0.00000000000E+00  0.00000000000E+00  0.22045761817E+04  0.22045761817E+04  0.00000000000E+00 0.  1.
         -2   -1    0    0    0  501 -0.00000000000E+00 -0.00000000000E+00 -0.93616235080E+03  0.93616235080E+03  0.00000000000E+00 0. -1.
         23    2    1    2    0    0  0.36341899166E+03 -0.46454721663E+03 -0.79536315207E+03  0.99433388393E+03  0.90663383312E+02 0.  0.
         11    1    3    3    0    0  0.13289246373E+03 -0.21871418551E+03 -0.39952514309E+03  0.47446458437E+03  0.00000000000E+00 0. -1.
        -11    1    3    3    0    0  0.23052652793E+03 -0.24583303112E+03 -0.39583800899E+03  0.51986929956E+03  0.00000000000E+00 0.  1.
         22    1    1    2    0    0 -0.36341899166E+03  0.46454721663E+03  0.20637769829E+04  0.21464046485E+04  0.00000000000E+00 0.  1.
<mgrwt>
<rscale>  0 0.28732151E+04</rscale>
<asrwt>0</asrwt>
<pdfrwt beam="1">  1        2 0.33916557E+00 0.28732151E+04</pdfrwt>
<pdfrwt beam="2">  1       -2 0.14402498E+00 0.28732151E+04</pdfrwt>
<totfact> 0.14808474E+00</totfact>
</mgrwt>
</event>
<event>
 6    1  0.5196787E-004  0.3185469E+04  0.7818608E-02  0.8192665E-01
         -2   -1    0    0    0  501 -0.00000000000E+00  0.00000000000E+00  0.17400469575E+04  0.17400469575E+04  0.00000000000E+00 0. -1.
          2   -1    0    0  501    0  0.00000000000E+00 -0.00000000000E+00 -0.14578931708E+04  0.14578931708E+04  0.00000000000E+00 0.  1.
         23    2    1    2    0    0  0.10115669489E+04 -0.43393074233E+02 -0.10918531959E+04  0.14911753996E+04  0.79435634596E+02 0.  0.
         11    1    3    3    0    0  0.66562198780E+03 -0.41857631607E-01 -0.75240611831E+03  0.10045733419E+04  0.00000000000E+00 0.  1.
        -11    1    3    3    0    0  0.34594496106E+03 -0.43351216602E+02 -0.33944707757E+03  0.48660205768E+03  0.00000000000E+00 0. -1.
         22    1    1    2    0    0 -0.10115669489E+04  0.43393074233E+02  0.13740069826E+04  0.17067647287E+04  0.00000000000E+00 0. -1.
<mgrwt>
<rscale>  0 0.31854686E+04</rscale>
<asrwt>0</asrwt>
<pdfrwt beam="1">  1        2 0.22429126E+00 0.31854686E+04</pdfrwt>
<pdfrwt beam="2">  1       -2 0.26769953E+00 0.31854686E+04</pdfrwt>
<totfact> 0.56599845E-01</totfact>
</mgrwt>
</event>
<event>
 6    1  0.5196787E-004  0.6418975E+04  0.7818608E-02  0.7640518E-01
          2   -1    0    0  501    0  0.00000000000E+00  0.00000000000E+00  0.26585438709E+04  0.26585438709E+04  0.00000000000E+00 0.  1.
         -2   -1    0    0    0  501 -0.00000000000E+00 -0.00000000000E+00 -0.38746063926E+04  0.38746063926E+04  0.00000000000E+00 0. -1.
         23    2    1    2    0    0  0.17777151173E+04 -0.21465782119E+04  0.10102948124E+04  0.29659754658E+04  0.90806375934E+02 0.  0.
         13    1    3    3    0    0  0.57810058173E+03 -0.74056932910E+03  0.37597355408E+03  0.10119285188E+04  0.00000000000E+00 0.  1.
        -13    1    3    3    0    0  0.11996145355E+04 -0.14060088828E+04  0.63432125836E+03  0.19540469470E+04  0.00000000000E+00 0. -1.
         22    1    1    2    0    0 -0.17777151173E+04  0.21465782119E+04 -0.22263573341E+04  0.35671747977E+04  0.00000000000E+00 0. -1.
<mgrwt>
<rscale>  0 0.64189753E+04</rscale>
<asrwt>0</asrwt>
<pdfrwt beam="1">  1        2 0.40900675E+00 0.64189753E+04</pdfrwt>
<pdfrwt beam="2">  1       -2 0.59609329E+00 0.64189753E+04</pdfrwt>
<totfact> 0.98779624E-04</totfact>
</mgrwt>
</event>
<event>
 6    1  0.5196787E-004  0.3547129E+04  0.7818608E-02  0.8102711E-01
          2   -1    0    0  501    0  0.00000000000E+00  0.00000000000E+00  0.10685684522E+04  0.10685684522E+04  0.00000000000E+00 0.  1.
         -2   -1    0    0    0  501 -0.00000000000E+00 -0.00000000000E+00 -0.29436874257E+04  0.29436874257E+04  0.00000000000E+00 0. -1.
         23    2    1    2    0    0  0.16853202579E+04 -0.54416102374E+03 -0.10197400607E+04  0.20455101709E+04  0.88467373702E+02 0.  0.
         13    1    3    3    0    0  0.10366278150E+04 -0.37013261295E+03 -0.60255307474E+03  0.12548567990E+04  0.00000000000E+00 0. -1.
        -13    1    3    3    0    0  0.64869244288E+03 -0.17402841079E+03 -0.41718698595E+03  0.79065337187E+03  0.00000000000E+00 0.  1.
         22    1    1    2    0    0 -0.16853202579E+04  0.54416102374E+03 -0.85537891290E+03  0.19667457070E+04  0.00000000000E+00 0.  1.
<mgrwt>
<rscale>  0 0.35471293E+04</rscale>
<asrwt>0</asrwt>
<pdfrwt beam="1">  1        2 0.16439515E+00 0.35471293E+04</pdfrwt>
<pdfrwt beam="2">  1       -2 0.45287499E+00 0.35471293E+04</pdfrwt>
<totfact> 0.61910601E-02</totfact>
</mgrwt>
</event>
<event>
 6    1  0.5196787E-004  0.3261942E+04  0.7818608E-02  0.8172647E-01
          2   -1    0    0  501    0  0.00000000000E+00  0.00000000000E+00  0.33651251305E+04  0.33651251305E+04  0.00000000000E+00 0. -1.
         -2   -1    0    0    0  501 -0.00000000000E+00 -0.00000000000E+00 -0.79048084180E+03  0.79048084180E+03  0.00000000000E+00 0.  1.
         23    2    1    2    0    0 -0.77465620047E+03 -0.10728050949E+04  0.25001936219E+04  0.28302585075E+04  0.91608253034E+02 0.  0.
         11    1    3    3    0    0 -0.22820468453E+03 -0.24959628813E+03  0.65668946447E+03  0.73865874248E+03  0.00000000000E+00 0.  1.
        -11    1    3    3    0    0 -0.54645151594E+03 -0.82320880674E+03  0.18435041574E+04  0.20915997650E+04  0.00000000000E+00 0. -1.
         22    1    1    2    0    0  0.77465620047E+03  0.10728050949E+04  0.74450666784E+02  0.13253474647E+04  0.00000000000E+00 0.  1.
<mgrwt>
<rscale>  0 0.32619423E+04</rscale>
<asrwt>0</asrwt>
<pdfrwt beam="1">  1        2 0.51771155E+00 0.32619423E+04</pdfrwt>
<pdfrwt beam="2">  1       -2 0.12161244E+00 0.32619423E+04</pdfrwt>
<totfact> 0.43279569E-01</totfact>
</mgrwt>
</event>
<event>
 6    1  0.5196787E-004  0.2708458E+04  0.7818608E-02  0.8332266E-01
         -1   -1    0    0    0  501 -0.00000000000E+00  0.00000000000E+00  0.72406805771E+03  0.72406805771E+03  0.00000000000E+00 0.  1.
          1   -1    0    0  501    0  0.00000000000E+00 -0.00000000000E+00 -0.25328222845E+04  0.25328222845E+04  0.00000000000E+00 0. -1.
         23    2    1    2    0    0  0.38107024501E+03 -0.12810730681E+04 -0.65320962456E+03  0.14900722799E+04  0.85263404693E+02 0.  0.
         13    1    3    3    0    0  0.71141841825E+02 -0.14482388793E+03 -0.86072899724E+02  0.18287608986E+03  0.00000000000E+00 0.  1.
        -13    1    3    3    0    0  0.30992840319E+03 -0.11362491802E+04 -0.56713672483E+03  0.13071961900E+04  0.00000000000E+00 0. -1.
         22    1    1    2    0    0 -0.38107024501E+03  0.12810730681E+04 -0.11555446023E+04  0.17668180623E+04  0.00000000000E+00 0. -1.
<mgrwt>
<rscale>  0 0.27084577E+04</rscale>
<asrwt>0</asrwt>
<pdfrwt beam="1">  1        1 0.38966497E+00 0.27084577E+04</pdfrwt>
<pdfrwt beam="2">  1       -1 0.11139509E+00 0.27084577E+04</pdfrwt>
<totfact> 0.83034253E-01</totfact>
</mgrwt>
</event>
<event>
 6    1  0.5196787E-004  0.9951873E+03  0.7818608E-02  0.9313839E-01
         -2   -1    0    0    0  501 -0.00000000000E+00  0.00000000000E+00  0.99119695223E+03  0.99119695223E+03  0.00000000000E+00 0. -1.
          2   -1    0    0  501    0  0.00000000000E+00 -0.00000000000E+00 -0.24979841165E+03  0.24979841165E+03  0.00000000000E+00 0.  1.
         23    2    1    2    0    0  0.15649049192E+03  0.20363070066E+03  0.89913393061E+03  0.93960659570E+03  0.91999962934E+02 0.  0.
         13    1    3    3    0    0  0.12993510242E+03  0.97045728085E+02  0.50074761030E+03  0.52635460804E+03  0.00000000000E+00 0. -1.
        -13    1    3    3    0    0  0.26555389502E+02  0.10658497257E+03  0.39838632031E+03  0.41325198766E+03  0.00000000000E+00 0.  1.
         22    1    1    2    0    0 -0.15649049192E+03 -0.20363070066E+03 -0.15773539004E+03  0.30138876818E+03  0.00000000000E+00 0.  1.
<mgrwt>
<rscale>  0 0.99518727E+03</rscale>
<asrwt>0</asrwt>
<pdfrwt beam="1">  1        2 0.38430525E-01 0.99518727E+03</pdfrwt>
<pdfrwt beam="2">  1       -2 0.15249184E+00 0.99518727E+03</pdfrwt>
<totfact> 0.38543418E+01</totfact>
</mgrwt>
</event>
<event>
 6    1  0.5196787E-004  0.3133650E+04  0.7818608E-02  0.8206563E-01
          2   -1    0    0  501    0  0.00000000000E+00  0.00000000000E+00  0.29651100234E+04  0.29651100234E+04  0.00000000000E+00 0.  1.
         -2   -1    0    0    0  501 -0.00000000000E+00 -0.00000000000E+00 -0.82794243024E+03  0.82794243024E+03  0.00000000000E+00 0. -1.
         23    2    1    2    0    0 -0.89749336821E+03  0.12296487025E+04  0.63164921783E+03  0.16519976071E+04  0.11218325077E+03 0.  0.
         11    1    3    3    0    0 -0.76559700793E+03  0.97793948935E+03  0.52717542075E+03  0.13492287974E+04  0.00000000000E+00 0.  1.
        -11    1    3    3    0    0 -0.13189636028E+03  0.25170921318E+03  0.10447379709E+03  0.30276880970E+03  0.00000000000E+00 0. -1.
         22    1    1    2    0    0  0.89749336821E+03 -0.12296487025E+04  0.15055183753E+04  0.21410548466E+04  0.00000000000E+00 0.  1.
<mgrwt>
<rscale>  0 0.31336499E+04</rscale>
<asrwt>0</asrwt>
<pdfrwt beam="1">  1        2 0.45617077E+00 0.31336499E+04</pdfrwt>
<pdfrwt beam="2">  1       -2 0.12737576E+00 0.31336499E+04</pdfrwt>
<totfact> 0.70839106E-01</totfact>
</mgrwt>
</event>
<event>
 6    1  0.5196787E-004  0.5874503E+04  0.7818608E-02  0.7706159E-01
          2   -1    0    0  501    0  0.00000000000E+00  0.00000000000E+00  0.34758267694E+04  0.34758267694E+04  0.00000000000E+00 0.  1.
         -2   -1    0    0    0  501 -0.00000000000E+00 -0.00000000000E+00 -0.24821280157E+04  0.24821280157E+04  0.00000000000E+00 0. -1.
         23    2    1    2    0    0  0.25505717153E+04 -0.68993516140E+03  0.17965399045E+04  0.31964369932E+04  0.90704031444E+02 0.  0.
         11    1    3    3    0    0  0.47915773063E+03 -0.93769659013E+02  0.32409015846E+03  0.58601988924E+03  0.00000000000E+00 0.  1.
        -11    1    3    3    0    0  0.20714139847E+04 -0.59616550239E+03  0.14724497460E+04  0.26104171040E+04  0.00000000000E+00 0. -1.
         22    1    1    2    0    0 -0.25505717153E+04  0.68993516140E+03 -0.80284115079E+03  0.27615177919E+04  0.00000000000E+00 0. -1.
<mgrwt>
<rscale>  0 0.58745032E+04</rscale>
<asrwt>0</asrwt>
<pdfrwt beam="1">  1        2 0.53474258E+00 0.58745032E+04</pdfrwt>
<pdfrwt beam="2">  1       -2 0.38186585E+00 0.58745032E+04</pdfrwt>
<totfact> 0.55865318E-03</totfact>
</mgrwt>
</event>
<event>
 6    1  0.5196787E-004  0.8636369E+03  0.7818608E-02  0.9472215E-01
          2   -1    0    0  501    0  0.00000000000E+00  0.00000000000E+00  0.24536348049E+04  0.24536348049E+04  0.00000000000E+00 0.  1.
         -2   -1    0    0    0  501 -0.00000000000E+00 -0.00000000000E+00 -0.75996310536E+02  0.75996310536E+02  0.00000000000E+00 0. -1.
         23    2    1    2    0    0 -0.15643984594E+03  0.38367775424E+03  0.15067000057E+04  0.15651541092E+04  0.88771808183E+02 0.  0.
         13    1    3    3    0    0 -0.10330277261E+03  0.26534978653E+03  0.11745887684E+04  0.12086110818E+04  0.00000000000E+00 0.  1.
        -13    1    3    3    0    0 -0.53137073335E+02  0.11832796771E+03  0.33211123726E+03  0.35654302745E+03  0.00000000000E+00 0. -1.
         22    1    1    2    0    0  0.15643984594E+03 -0.38367775424E+03  0.87093848870E+03  0.96447700626E+03  0.00000000000E+00 0. -1.
<mgrwt>
<rscale>  0 0.86363694E+03</rscale>
<asrwt>0</asrwt>
<pdfrwt beam="1">  1        2 0.37748222E+00 0.86363694E+03</pdfrwt>
<pdfrwt beam="2">  1       -2 0.11691742E-01 0.86363694E+03</pdfrwt>
<totfact> 0.20173387E+02</totfact>
</mgrwt>
</event>
<event>
 6    1  0.5196787E-004  0.2374061E+04  0.7818608E-02  0.8449279E-01
         -2   -1    0    0    0  501 -0.00000000000E+00  0.00000000000E+00  0.50698077597E+03  0.50698077597E+03  0.00000000000E+00 0.  1.
          2   -1    0    0  501    0  0.00000000000E+00 -0.00000000000E+00 -0.27792786324E+04  0.27792786324E+04  0.00000000000E+00 0. -1.
         23    2    1    2    0    0 -0.36918375531E+03 -0.85435372509E+03 -0.21537391325E+04  0.23480307029E+04  0.91864019906E+02 0.  0.
         11    1    3    3    0    0 -0.36237155655E+03 -0.77571153098E+03 -0.19819650577E+04  0.21589874975E+04  0.00000000000E+00 0. -1.
        -11    1    3    3    0    0 -0.68121987578E+01 -0.78642194113E+02 -0.17177407477E+03  0.18904320541E+03  0.00000000000E+00 0.  1.
         22    1    1    2    0    0  0.36918375531E+03  0.85435372509E+03 -0.11855872393E+03  0.93822870548E+03  0.00000000000E+00 0. -1.
<mgrwt>
<rscale>  0 0.23740605E+04</rscale>
<asrwt>0</asrwt>
<pdfrwt beam="1">  1        2 0.42758133E+00 0.23740605E+04</pdfrwt>
<pdfrwt beam="2">  1       -2 0.77997042E-01 0.23740605E+04</pdfrwt>
<totfact> 0.31389211E+00</totfact>
</mgrwt>
</event>
<event>
 6    1  0.5196787E-004  0.2376510E+03  0.7818608E-02  0.1121368E+00
         -2   -1    0    0    0  501 -0.00000000000E+00  0.00000000000E+00  0.60262019335E+01  0.60262019335E+01  0.00000000000E+00 0.  1.
          2   -1    0    0  501    0  0.00000000000E+00 -0.00000000000E+00 -0.23430189571E+04  0.23430189571E+04  0.00000000000E+00 0. -1.
         23    2    1    2    0    0 -0.21622493201E+02  0.76949840254E+02 -0.19538084377E+04  0.19576131327E+04  0.92157233904E+02 0.  0.
         11    1    3    3    0    0 -0.82656425253E+01  0.89393713129E+02 -0.11157507355E+04  0.11193566280E+04  0.00000000000E+00 0.  1.
        -11    1    3    3    0    0 -0.13356850676E+02 -0.12443872875E+02 -0.83805770216E+03  0.83825650465E+03  0.00000000000E+00 0. -1.
         22    1    1    2    0    0  0.21622493201E+02 -0.76949840254E+02 -0.38318431743E+03  0.39143202635E+03  0.00000000000E+00 0.  1.
<mgrwt>
<rscale>  0 0.23765105E+03</rscale>
<asrwt>0</asrwt>
<pdfrwt beam="1">  1        2 0.36046411E+00 0.23765105E+03</pdfrwt>
<pdfrwt beam="2">  1       -2 0.92710887E-03 0.23765105E+03</pdfrwt>
<totfact> 0.11591756E+04</totfact>
</mgrwt>
</event>
<event>
 6    1  0.5196787E-004  0.1405410E+04  0.7818608E-02  0.8949911E-01
          2   -1    0    0  501    0  0.00000000000E+00  0.00000000000E+00  0.12944843588E+04  0.12944843588E+04  0.00000000000E+00 0.  1.
         -2   -1    0    0    0  501 -0.00000000000E+00 -0.00000000000E+00 -0.38146049283E+03  0.38146049283E+03  0.00000000000E+00 0. -1.
         23    2    1    2    0    0  0.22838978803E+03 -0.60063371346E+03  0.12839288356E+03  0.66176117417E+03  0.92305829029E+02 0.  0.
         13    1    3    3    0    0  0.14712881759E+03 -0.25866947368E+03  0.52663532682E+02  0.30220892319E+03  0.00000000000E+00 0.  1.
        -13    1    3    3    0    0  0.81260970442E+02 -0.34196423978E+03  0.75729350874E+02  0.35955225099E+03  0.00000000000E+00 0. -1.
         22    1    1    2    0    0 -0.22838978803E+03  0.60063371346E+03  0.78463098237E+03  0.10141836774E+04  0.00000000000E+00 0.  1.
<mgrwt>
<rscale>  0 0.14054105E+04</rscale>
<asrwt>0</asrwt>
<pdfrwt beam="1">  1        2 0.19915144E+00 0.14054105E+04</pdfrwt>
<pdfrwt beam="2">  1       -2 0.58686230E-01 0.14054105E+04</pdfrwt>
<totfact> 0.43972361E+01</totfact>
</mgrwt>
</event>
<event>
 6    1  0.5196787E-004  0.3388353E+04  0.7818608E-02  0.8140771E-01
          1   -1    0    0  501    0  0.00000000000E+00  0.00000000000E+00  0.17110296781E+04  0.17110296781E+04  0.00000000000E+00 0.  1.
         -1   -1    0    0    0  501 -0.00000000000E+00 -0.00000000000E+00 -0.16774897584E+04  0.16774897584E+04  0.00000000000E+00 0. -1.
         23    2    1    2    0    0 -0.12497758892E+04  0.72648088632E+02 -0.11229559335E+04  0.16842013393E+04  0.91030790264E+02 0.  0.
         13    1    3    3    0    0 -0.67829040483E+03  0.16167696937E+01 -0.57349470394E+03  0.88824358297E+03  0.00000000000E+00 0. -1.
        -13    1    3    3    0    0 -0.57148548440E+03  0.71031318938E+02 -0.54946122955E+03  0.79595775637E+03  0.00000000000E+00 0.  1.
         22    1    1    2    0    0  0.12497758892E+04 -0.72648088632E+02  0.11564958532E+04  0.17043180972E+04  0.00000000000E+00 0.  1.
<mgrwt>
<rscale>  0 0.33883534E+04</rscale>
<asrwt>0</asrwt>
<pdfrwt beam="1">  1        1 0.26323533E+00 0.33883534E+04</pdfrwt>
<pdfrwt beam="2">  1       -1 0.25807535E+00 0.33883534E+04</pdfrwt>
<totfact> 0.23821980E-01</totfact>
</mgrwt>
</event>
<event>
 6    1  0.5196787E-004  0.2140076E+04  0.7818608E-02  0.8543792E-01
         -2   -1    0    0    0  501 -0.00000000000E+00  0.00000000000E+00  0.11381904442E+04  0.11381904442E+04  0.00000000000E+00 0. -1.
          2   -1    0    0  501    0  0.00000000000E+00 -0.00000000000E+00 -0.10059663173E+04  0.10059663173E+04  0.00000000000E+00 0.  1.
         23    2    1    2    0    0 -0.13023158980E+03  0.28884963832E+03  0.10882308340E+04  0.11370106923E+04  0.90291671085E+02 0.  0.
         11    1    3    3    0    0  0.11988327801E+02  0.38889378708E+02  0.16968712410E+03  0.17449877898E+03  0.00000000000E+00 0.  1.
        -11    1    3    3    0    0 -0.14221991760E+03  0.24996025962E+03  0.91854370988E+03  0.96251191333E+03  0.00000000000E+00 0. -1.
         22    1    1    2    0    0  0.13023158980E+03 -0.28884963832E+03 -0.95600670715E+03  0.10071460692E+04  0.00000000000E+00 0.  1.
<mgrwt>
<rscale>  0 0.21400759E+04</rscale>
<asrwt>0</asrwt>
<pdfrwt beam="1">  1        2 0.15476405E+00 0.21400759E+04</pdfrwt>
<pdfrwt beam="2">  1       -2 0.17510622E+00 0.21400759E+04</pdfrwt>
<totfact> 0.44972900E+00</totfact>
</mgrwt>
</event>
<event>
 6    1  0.5196787E-004  0.3852501E+04  0.7818608E-02  0.8034981E-01
         -2   -1    0    0    0  501 -0.00000000000E+00  0.00000000000E+00  0.15721231101E+04  0.15721231101E+04  0.00000000000E+00 0. -1.
          2   -1    0    0  501    0  0.00000000000E+00 -0.00000000000E+00 -0.23601467659E+04  0.23601467659E+04  0.00000000000E+00 0.  1.
         23    2    1    2    0    0 -0.21043234886E+03  0.10928408713E+04 -0.19974570085E+04  0.22887030298E+04  0.98712281440E+02 0.  0.
         13    1    3    3    0    0 -0.18502322220E+03  0.87102137193E+03 -0.16664313817E+04  0.18894193217E+04  0.00000000000E+00 0.  1.
        -13    1    3    3    0    0 -0.25409126659E+02  0.22181949935E+03 -0.33102562679E+03  0.39928370816E+03  0.00000000000E+00 0. -1.
         22    1    1    2    0    0  0.21043234886E+03 -0.10928408713E+04  0.12094333526E+04  0.16435668462E+04  0.00000000000E+00 0. -1.
<mgrwt>
<rscale>  0 0.38525011E+04</rscale>
<asrwt>0</asrwt>
<pdfrwt beam="1">  1        2 0.36309950E+00 0.38525011E+04</pdfrwt>
<pdfrwt beam="2">  1       -2 0.24186509E+00 0.38525011E+04</pdfrwt>
<totfact> 0.24129684E-01</totfact>
</mgrwt>
</event>
<event>
 6    1  0.5196787E-004  0.5380853E+03  0.7818608E-02  0.1004290E+00
         -4   -1    0    0    0  501 -0.00000000000E+00  0.00000000000E+00  0.17024676425E+03  0.17024676425E+03  0.00000000000E+00 0. -1.
          4   -1    0    0  501    0  0.00000000000E+00 -0.00000000000E+00 -0.42517074979E+03  0.42517074979E+03  0.00000000000E+00 0.  1.
         23    2    1    2    0    0 -0.12380727865E+03  0.13965480811E+03  0.71099281729E+02  0.21975426260E+03  0.91679443691E+02 0.  0.
         11    1    3    3    0    0 -0.12296228358E+03  0.11455931658E+03  0.87786846588E+02  0.18960509127E+03  0.00000000000E+00 0. -1.
        -11    1    3    3    0    0 -0.84499506978E+00  0.25095491522E+02 -0.16687564859E+02  0.30149171337E+02  0.00000000000E+00 0.  1.
         22    1    1    2    0    0  0.12380727865E+03 -0.13965480811E+03 -0.32602326727E+03  0.37566325143E+03  0.00000000000E+00 0.  1.
<mgrwt>
<rscale>  0 0.53808529E+03</rscale>
<asrwt>0</asrwt>
<pdfrwt beam="1">  1        4 0.65410884E-01 0.53808529E+03</pdfrwt>
<pdfrwt beam="2">  1       -4 0.26191810E-01 0.53808529E+03</pdfrwt>
<totfact> 0.59392300E+01</totfact>
</mgrwt>
</event>
<event>
 6    1  0.5196787E-004  0.7263023E+03  0.7818608E-02  0.9673280E-01
          2   -1    0    0  501    0  0.00000000000E+00  0.00000000000E+00  0.26163555407E+04  0.26163555407E+04  0.00000000000E+00 0.  1.
         -2   -1    0    0    0  501 -0.00000000000E+00 -0.00000000000E+00 -0.50405519175E+02  0.50405519175E+02  0.00000000000E+00 0. -1.
         23    2    1    2    0    0  0.14875047881E+03  0.17367787670E+03  0.23117656901E+04  0.23248540782E+04  0.91625154737E+02 0.  0.
         13    1    3    3    0    0  0.47701858236E+02  0.26652976785E+02  0.93233399117E+03  0.93393389463E+03  0.00000000000E+00 0. -1.
        -13    1    3    3    0    0  0.10104862057E+03  0.14702489992E+03  0.13794316990E+04  0.13909201835E+04  0.00000000000E+00 0.  1.
         22    1    1    2    0    0 -0.14875047881E+03 -0.17367787670E+03  0.25418433138E+03  0.34190698168E+03  0.00000000000E+00 0. -1.
<mgrwt>
<rscale>  0 0.72630230E+03</rscale>
<asrwt>0</asrwt>
<pdfrwt beam="1">  1        2 0.40251613E+00 0.72630230E+03</pdfrwt>
<pdfrwt beam="2">  1       -2 0.77546973E-02 0.72630230E+03</pdfrwt>
<totfact> 0.32138608E+02</totfact>
</mgrwt>
</event>
<event>
 6    1  0.5196787E-004  0.1317760E+04  0.7818608E-02  0.9015599E-01
         -1   -1    0    0    0  501 -0.00000000000E+00  0.00000000000E+00  0.28499570862E+03  0.28499570862E+03  0.00000000000E+00 0. -1.
          1   -1    0    0  501    0  0.00000000000E+00 -0.00000000000E+00 -0.15232602526E+04  0.15232602526E+04  0.00000000000E+00 0.  1.
         23    2    1    2    0    0 -0.40514066185E+03 -0.30551475102E+03 -0.11908609364E+04  0.12986234259E+04  0.10389809169E+03 0.  0.
         11    1    3    3    0    0 -0.30315739316E+03 -0.21392815706E+03 -0.97166887776E+03  0.10401009900E+04  0.00000000000E+00 0. -1.
        -11    1    3    3    0    0 -0.10198326869E+03 -0.91586593957E+02 -0.21919205869E+03  0.25852243593E+03  0.00000000000E+00 0.  1.
         22    1    1    2    0    0  0.40514066185E+03  0.30551475102E+03 -0.47403607483E+02  0.50963253524E+03  0.00000000000E+00 0. -1.
<mgrwt>
<rscale>  0 0.13177597E+04</rscale>
<asrwt>0</asrwt>
<pdfrwt beam="1">  1        1 0.23434773E+00 0.13177597E+04</pdfrwt>
<pdfrwt beam="2">  1       -1 0.43845493E-01 0.13177597E+04</pdfrwt>
<totfact> 0.31792041E+01</totfact>
</mgrwt>
</event>
<event>
 6    1  0.5196787E-004  0.3091022E+04  0.7818608E-02  0.8218206E-01
          2   -1    0    0  501    0  0.00000000000E+00  0.00000000000E+00  0.26937346013E+04  0.26937346013E+04  0.00000000000E+00 0.  1.
         -2   -1    0    0    0  501 -0.00000000000E+00 -0.00000000000E+00 -0.88672586553E+03  0.88672586553E+03  0.00000000000E+00 0. -1.
         23    2    1    2    0    0 -0.96633200793E+03 -0.18939509311E+03 -0.47304957142E+03  0.10968473860E+04  0.98133788292E+02 0.  0.
         11    1    3    3    0    0 -0.77232499436E+03 -0.14984026273E+03 -0.33286322208E+03  0.85424582285E+03  0.00000000000E+00 0.  1.
        -11    1    3    3    0    0 -0.19400701357E+03 -0.39554830377E+02 -0.14018634935E+03  0.24260156320E+03  0.00000000000E+00 0. -1.
         22    1    1    2    0    0  0.96633200793E+03  0.18939509311E+03  0.22800583072E+04  0.24836130808E+04  0.00000000000E+00 0.  1.
<mgrwt>
<rscale>  0 0.30910219E+04</rscale>
<asrwt>0</asrwt>
<pdfrwt beam="1">  1        2 0.41442070E+00 0.30910219E+04</pdfrwt>
<pdfrwt beam="2">  1       -2 0.13641937E+00 0.30910219E+04</pdfrwt>
<totfact> 0.87375060E-01</totfact>
</mgrwt>
</event>
<event>
 6    1  0.5196787E-004  0.3166819E+04  0.7818608E-02  0.8197636E-01
          2   -1    0    0  501    0  0.00000000000E+00  0.00000000000E+00  0.32905179434E+04  0.32905179434E+04  0.00000000000E+00 0.  1.
         -2   -1    0    0    0  501 -0.00000000000E+00 -0.00000000000E+00 -0.76194242923E+03  0.76194242923E+03  0.00000000000E+00 0. -1.
         23    2    1    2    0    0 -0.38895041787E+03  0.12424590136E+04  0.24157289495E+04  0.27456623105E+04  0.89041212738E+02 0.  0.
         13    1    3    3    0    0 -0.32117005198E+03  0.92992351305E+03  0.17684316118E+04  0.20236744570E+04  0.00000000000E+00 0. -1.
        -13    1    3    3    0    0 -0.67780365885E+02  0.31253550059E+03  0.64729733772E+03  0.72198785346E+03  0.00000000000E+00 0.  1.
         22    1    1    2    0    0  0.38895041787E+03 -0.12424590136E+04  0.11284656470E+03  0.13067980622E+04  0.00000000000E+00 0.  1.
<mgrwt>
<rscale>  0 0.31668187E+04</rscale>
<asrwt>0</asrwt>
<pdfrwt beam="1">  1        2 0.50623352E+00 0.31668187E+04</pdfrwt>
<pdfrwt beam="2">  1       -2 0.11722191E+00 0.31668187E+04</pdfrwt>
<totfact> 0.53640297E-01</totfact>
</mgrwt>
</event>
<event>
 6    1  0.5196787E-004  0.2748804E+04  0.7818608E-02  0.8319341E-01
         -2   -1    0    0    0  501 -0.00000000000E+00  0.00000000000E+00  0.94592621621E+03  0.94592621621E+03  0.00000000000E+00 0. -1.
          2   -1    0    0  501    0  0.00000000000E+00 -0.00000000000E+00 -0.19969639553E+04  0.19969639553E+04  0.00000000000E+00 0.  1.
         23    2    1    2    0    0 -0.55544773803E+03 -0.96748493769E+03  0.33101243969E+03  0.11667674305E+04  0.85015924241E+02 0.  0.
         11    1    3    3    0    0 -0.17742430398E+03 -0.35457991781E+03  0.15296145181E+03  0.42497471396E+03  0.00000000000E+00 0.  1.
        -11    1    3    3    0    0 -0.37802343404E+03 -0.61290501988E+03  0.17805098787E+03  0.74179271657E+03  0.00000000000E+00 0. -1.
         22    1    1    2    0    0  0.55544773803E+03  0.96748493769E+03 -0.13820501787E+04  0.17761227409E+04  0.00000000000E+00 0.  1.
<mgrwt>
<rscale>  0 0.27488038E+04</rscale>
<asrwt>0</asrwt>
<pdfrwt beam="1">  1        2 0.30722522E+00 0.27488038E+04</pdfrwt>
<pdfrwt beam="2">  1       -2 0.14552711E+00 0.27488038E+04</pdfrwt>
<totfact> 0.19023580E+00</totfact>
</mgrwt>
</event>
<event>
 6    1  0.5196787E-004  0.1281957E+04  0.7818608E-02  0.9043997E-01
          2   -1    0    0  501    0  0.00000000000E+00  0.00000000000E+00  0.68078286605E+03  0.68078286605E+03  0.00000000000E+00 0.  1.
         -2   -1    0    0    0  501 -0.00000000000E+00 -0.00000000000E+00 -0.60350149189E+03  0.60350149189E+03  0.00000000000E+00 0. -1.
         23    2    1    2    0    0  0.10848377249E+03 -0.24774946738E+03 -0.53979958584E+03  0.61053556302E+03  0.90672781802E+02 0.  0.
         11    1    3    3    0    0  0.46374688081E+02 -0.58000796432E+02 -0.79434728232E+02  0.10874088528E+03  0.00000000000E+00 0. -1.
        -11    1    3    3    0    0  0.62109084410E+02 -0.18974867094E+03 -0.46036485760E+03  0.50179467774E+03  0.00000000000E+00 0.  1.
         22    1    1    2    0    0 -0.10848377249E+03  0.24774946738E+03  0.61708095999E+03  0.67374879492E+03  0.00000000000E+00 0.  1.
<mgrwt>
<rscale>  0 0.12819571E+04</rscale>
<asrwt>0</asrwt>
<pdfrwt beam="1">  1        2 0.10473582E+00 0.12819571E+04</pdfrwt>
<pdfrwt beam="2">  1       -2 0.92846384E-01 0.12819571E+04</pdfrwt>
<totfact> 0.40964966E+01</totfact>
</mgrwt>
</event>
<event>
 6    1  0.5196787E-004  0.2063335E+04  0.7818608E-02  0.8577569E-01
         -2   -1    0    0    0  501 -0.00000000000E+00  0.00000000000E+00  0.36721724969E+03  0.36721724969E+03  0.00000000000E+00 0. -1.
          2   -1    0    0  501    0  0.00000000000E+00 -0.00000000000E+00 -0.28983862408E+04  0.28983862408E+04  0.00000000000E+00 0.  1.
         23    2    1    2    0    0  0.69759464539E+03  0.51659801496E+03 -0.21445383156E+04  0.23153429591E+04  0.90866014458E+02 0.  0.
         13    1    3    3    0    0  0.41129060744E+03  0.35389318820E+03 -0.12830546313E+04  0.13930648008E+04  0.00000000000E+00 0.  1.
        -13    1    3    3    0    0  0.28630403794E+03  0.16270482677E+03 -0.86148368431E+03  0.92227815822E+03  0.00000000000E+00 0. -1.
         22    1    1    2    0    0 -0.69759464539E+03 -0.51659801496E+03 -0.38663067549E+03  0.95026053142E+03  0.00000000000E+00 0. -1.
<mgrwt>
<rscale>  0 0.20633346E+04</rscale>
<asrwt>0</asrwt>
<pdfrwt beam="1">  1        2 0.44590559E+00 0.20633346E+04</pdfrwt>
<pdfrwt beam="2">  1       -2 0.56494959E-01 0.20633346E+04</pdfrwt>
<totfact> 0.54801842E+00</totfact>
</mgrwt>
</event>
<event>
 6    1  0.5196787E-004  0.2742191E+04  0.7818608E-02  0.8321444E-01
          2   -1    0    0  501    0  0.00000000000E+00  0.00000000000E+00  0.40232008845E+04  0.40232008845E+04  0.00000000000E+00 0.  1.
         -2   -1    0    0    0  501 -0.00000000000E+00 -0.00000000000E+00 -0.46726562423E+03  0.46726562423E+03  0.00000000000E+00 0. -1.
         23    2    1    2    0    0  0.22289161519E+03 -0.10800898654E+04  0.31099007693E+04  0.33008356599E+04  0.88082172401E+02 0.  0.
         11    1    3    3    0    0  0.13944656312E+03 -0.47249728166E+03  0.13402665427E+04  0.14279402756E+04  0.00000000000E+00 0.  1.
        -11    1    3    3    0    0  0.83445052077E+02 -0.60759258372E+03  0.17696342266E+04  0.18728953843E+04  0.00000000000E+00 0. -1.
         22    1    1    2    0    0 -0.22289161519E+03  0.10800898654E+04  0.44603449094E+03  0.11896308488E+04  0.00000000000E+00 0. -1.
<mgrwt>
<rscale>  0 0.27421914E+04</rscale>
<asrwt>0</asrwt>
<pdfrwt beam="1">  1        2 0.61895396E+00 0.27421914E+04</pdfrwt>
<pdfrwt beam="2">  1       -2 0.71887022E-01 0.27421914E+04</pdfrwt>
<totfact> 0.50281097E-01</totfact>
</mgrwt>
</event>
<event>
 6    1  0.5196787E-004  0.2430497E+04  0.7818608E-02  0.8428174E-01
          2   -1    0    0  501    0  0.00000000000E+00  0.00000000000E+00  0.33990066614E+04  0.33990066614E+04  0.00000000000E+00 0.  1.
         -2   -1    0    0    0  501 -0.00000000000E+00 -0.00000000000E+00 -0.43448822738E+03  0.43448822738E+03  0.00000000000E+00 0. -1.
         23    2    1    2    0    0 -0.13640275810E+01 -0.12122751915E+04  0.13958641064E+04  0.18509991384E+04  0.90267415734E+02 0.  0.
         13    1    3    3    0    0 -0.43241780214E+02 -0.64172671956E+03  0.76143322582E+03  0.99672643766E+03  0.00000000000E+00 0.  1.
        -13    1    3    3    0    0  0.41877752633E+02 -0.57054847198E+03  0.63443088055E+03  0.85427270074E+03  0.00000000000E+00 0. -1.
         22    1    1    2    0    0  0.13640275810E+01  0.12122751915E+04  0.15686543277E+04  0.19824957504E+04  0.00000000000E+00 0. -1.
<mgrwt>
<rscale>  0 0.24304966E+04</rscale>
<asrwt>0</asrwt>
<pdfrwt beam="1">  1        2 0.52292408E+00 0.24304966E+04</pdfrwt>
<pdfrwt beam="2">  1       -2 0.66844345E-01 0.24304966E+04</pdfrwt>
<totfact> 0.17627702E+00</totfact>
</mgrwt>
</event>
<event>
 6    1  0.6481480E-004  0.5105737E+04  0.7818608E-02  0.7812400E-01
         -2   -1    0    0    0  501 -0.00000000000E+00  0.00000000000E+00  0.22319099608E+04  0.22319099608E+04  0.00000000000E+00 0. -1.
          2   -1    0    0  501    0  0.00000000000E+00 -0.00000000000E+00 -0.29199826425E+04  0.29199826425E+04  0.00000000000E+00 0.  1.
         23    2    1    2    0    0  0.56826642990E+03 -0.91594950172E+03  0.19899935691E+04  0.22650380748E+04  0.91830551521E+02 0.  0.
         13    1    3    3    0    0  0.13228534211E+03 -0.26326744178E+03  0.61049283180E+03  0.67787215263E+03  0.00000000000E+00 0.  1.
        -13    1    3    3    0    0  0.43598108780E+03 -0.65268205994E+03  0.13795007373E+04  0.15871659222E+04  0.00000000000E+00 0. -1.
         22    1    1    2    0    0 -0.56826642990E+03  0.91594950172E+03 -0.26780662508E+04  0.28868545285E+04  0.00000000000E+00 0.  1.
<mgrwt>
<rscale>  0 0.51057373E+04</rscale>
<asrwt>0</asrwt>
<pdfrwt beam="1">  1        2 0.44922810E+00 0.51057373E+04</pdfrwt>
<pdfrwt beam="2">  1       -2 0.34337076E+00 0.51057373E+04</pdfrwt>
<totfact> 0.24139350E-02</totfact>
</mgrwt>
</event>
<event>
 6    1  0.5196787E-004  0.1281303E+04  0.7818608E-02  0.9044525E-01
          2   -1    0    0  501    0  0.00000000000E+00  0.00000000000E+00  0.21070241224E+03  0.21070241224E+03  0.00000000000E+00 0.  1.
         -2   -1    0    0    0  501 -0.00000000000E+00 -0.00000000000E+00 -0.19479336121E+04  0.19479336121E+04  0.00000000000E+00 0. -1.
         23    2    1    2    0    0 -0.60837524361E+03  0.52478084430E+02 -0.56716053002E+03  0.83881036965E+03  0.95170284448E+02 0.  0.
         13    1    3    3    0    0 -0.21542239553E+03 -0.20446105818E+02 -0.16792697137E+03  0.27390567620E+03  0.00000000000E+00 0.  1.
        -13    1    3    3    0    0 -0.39295284808E+03  0.72924190248E+02 -0.39923355865E+03  0.56490469346E+03  0.00000000000E+00 0. -1.
         22    1    1    2    0    0  0.60837524361E+03 -0.52478084430E+02 -0.11700706699E+04  0.13198256547E+04  0.00000000000E+00 0. -1.
<mgrwt>
<rscale>  0 0.12813029E+04</rscale>
<asrwt>0</asrwt>
<pdfrwt beam="1">  1        2 0.32415755E-01 0.12813029E+04</pdfrwt>
<pdfrwt beam="2">  1       -2 0.29968210E+00 0.12813029E+04</pdfrwt>
<totfact> 0.51454756E+00</totfact>
</mgrwt>
</event>
<event>
 6    1  0.5196787E-004  0.1241274E+04  0.7818608E-02  0.9077478E-01
         -2   -1    0    0    0  501 -0.00000000000E+00  0.00000000000E+00  0.38251398367E+03  0.38251398367E+03  0.00000000000E+00 0. -1.
          2   -1    0    0  501    0  0.00000000000E+00 -0.00000000000E+00 -0.10069960641E+04  0.10069960641E+04  0.00000000000E+00 0.  1.
         23    2    1    2    0    0 -0.48101594413E+02  0.60457176158E+03 -0.18600871663E+03  0.64112534120E+03  0.92853013835E+02 0.  0.
         13    1    3    3    0    0  0.28151713162E+01  0.36687502085E+03 -0.14550122441E+03  0.39468444664E+03  0.00000000000E+00 0.  1.
        -13    1    3    3    0    0 -0.50916765729E+02  0.23769674073E+03 -0.40507492228E+02  0.24644089456E+03  0.00000000000E+00 0. -1.
         22    1    1    2    0    0  0.48101594413E+02 -0.60457176158E+03 -0.43847336381E+03  0.74838470659E+03  0.00000000000E+00 0. -1.
<mgrwt>
<rscale>  0 0.12412737E+04</rscale>
<asrwt>0</asrwt>
<pdfrwt beam="1">  1        2 0.15492247E+00 0.12412737E+04</pdfrwt>
<pdfrwt beam="2">  1       -2 0.58848305E-01 0.12412737E+04</pdfrwt>
<totfact> 0.66198591E+01</totfact>
</mgrwt>
</event>
<event>
 6    1  0.5196787E-004  0.2327449E+04  0.7818608E-02  0.8467176E-01
         -2   -1    0    0    0  501 -0.00000000000E+00  0.00000000000E+00  0.12997035233E+04  0.12997035233E+04  0.00000000000E+00 0. -1.
          2   -1    0    0  501    0  0.00000000000E+00 -0.00000000000E+00 -0.10419720301E+04  0.10419720301E+04  0.00000000000E+00 0.  1.
         23    2    1    2    0    0 -0.59070326876E+03 -0.76750373475E+03  0.77500159627E+03  0.12436952740E+04  0.90322343035E+02 0.  0.
         11    1    3    3    0    0 -0.91027864374E+02 -0.12429470469E+03  0.16765606752E+03  0.22769234217E+03  0.00000000000E+00 0.  1.
        -11    1    3    3    0    0 -0.49967540439E+03 -0.64320903005E+03  0.60734552875E+03  0.10160029318E+04  0.00000000000E+00 0. -1.
         22    1    1    2    0    0  0.59070326876E+03  0.76750373475E+03 -0.51727010311E+03  0.10979802795E+04  0.00000000000E+00 0.  1.
<mgrwt>
<rscale>  0 0.23274490E+04</rscale>
<asrwt>0</asrwt>
<pdfrwt beam="1">  1        2 0.16030339E+00 0.23274490E+04</pdfrwt>
<pdfrwt beam="2">  1       -2 0.19995439E+00 0.23274490E+04</pdfrwt>
<totfact> 0.28507462E+00</totfact>
</mgrwt>
</event>
<event>
 6    1  0.5196787E-004  0.5524029E+04  0.7818608E-02  0.7752391E-01
         -2   -1    0    0    0  501 -0.00000000000E+00  0.00000000000E+00  0.21333064765E+04  0.21333064765E+04  0.00000000000E+00 0. -1.
          2   -1    0    0  501    0  0.00000000000E+00 -0.00000000000E+00 -0.35760099160E+04  0.35760099160E+04  0.00000000000E+00 0.  1.
         23    2    1    2    0    0 -0.17695472819E+04  0.21163274197E+04 -0.84489697839E+03  0.28866382501E+04  0.93220987438E+02 0.  0.
         13    1    3    3    0    0 -0.37461454007E+03  0.42735222827E+03 -0.13737379355E+03  0.58466874364E+03  0.00000000000E+00 0.  1.
        -13    1    3    3    0    0 -0.13949327418E+04  0.16889751915E+04 -0.70752318484E+03  0.23019695065E+04  0.00000000000E+00 0. -1.
         22    1    1    2    0    0  0.17695472819E+04 -0.21163274197E+04 -0.59780646113E+03  0.28226781424E+04  0.00000000000E+00 0. -1.
<mgrwt>
<rscale>  0 0.55240294E+04</rscale>
<asrwt>0</asrwt>
<pdfrwt beam="1">  1        2 0.55015537E+00 0.55240294E+04</pdfrwt>
<pdfrwt beam="2">  1       -2 0.32820100E+00 0.55240294E+04</pdfrwt>
<totfact> 0.10660642E-02</totfact>
</mgrwt>
</event>
<event>
 6    1  0.5196787E-004  0.5556967E+03  0.7818608E-02  0.1000184E+00
          2   -1    0    0  501    0  0.00000000000E+00  0.00000000000E+00  0.37402953342E+03  0.37402953342E+03  0.00000000000E+00 0.  1.
         -2   -1    0    0    0  501 -0.00000000000E+00 -0.00000000000E+00 -0.20640005988E+03  0.20640005988E+03  0.00000000000E+00 0. -1.
         23    2    1    2    0    0  0.13587819133E+02  0.26910222789E+03  0.64741587190E+02  0.29200879820E+03  0.92070772951E+02 0.  0.
         11    1    3    3    0    0  0.48066938810E+02  0.95187750732E+02  0.13722313219E+02  0.10751483793E+03  0.00000000000E+00 0. -1.
        -11    1    3    3    0    0 -0.34479119678E+02  0.17391447716E+03  0.51019273971E+02  0.18449396027E+03  0.00000000000E+00 0.  1.
         22    1    1    2    0    0 -0.13587819133E+02 -0.26910222789E+03  0.10288788635E+03  0.28842079509E+03  0.00000000000E+00 0. -1.
<mgrwt>
<rscale>  0 0.55569674E+03</rscale>
<asrwt>0</asrwt>
<pdfrwt beam="1">  1        2 0.57543005E-01 0.55569674E+03</pdfrwt>
<pdfrwt beam="2">  1       -2 0.31753855E-01 0.55569674E+03</pdfrwt>
<totfact> 0.79400617E+02</totfact>
</mgrwt>
</event>
<event>
 6    1  0.5196787E-004  0.1266301E+04  0.7818608E-02  0.9056724E-01
         -2   -1    0    0    0  501 -0.00000000000E+00  0.00000000000E+00  0.32465686665E+03  0.32465686665E+03  0.00000000000E+00 0. -1.
          2   -1    0    0  501    0  0.00000000000E+00 -0.00000000000E+00 -0.12347791890E+04  0.12347791890E+04  0.00000000000E+00 0.  1.
         23    2    1    2    0    0  0.32782431646E+03 -0.42092569021E+03 -0.39098840229E+02  0.53800121900E+03  0.57178433016E+02 0.  0.
         11    1    3    3    0    0  0.12709574886E+03 -0.17239746773E+03  0.11794730616E+02  0.21450718386E+03  0.00000000000E+00 0. -1.
        -11    1    3    3    0    0  0.20072856760E+03 -0.24852822248E+03 -0.50893570845E+02  0.32349403514E+03  0.00000000000E+00 0.  1.
         22    1    1    2    0    0 -0.32782431646E+03  0.42092569021E+03 -0.87102348214E+03  0.10214348367E+04  0.00000000000E+00 0.  1.
<mgrwt>
<rscale>  0 0.12663010E+04</rscale>
<asrwt>0</asrwt>
<pdfrwt beam="1">  1        2 0.18996602E+00 0.12663010E+04</pdfrwt>
<pdfrwt beam="2">  1       -2 0.49947212E-01 0.12663010E+04</pdfrwt>
<totfact> 0.67263243E+01</totfact>
</mgrwt>
</event>
<event>
 6    1  0.5196787E-004  0.1794208E+04  0.7818608E-02  0.8709386E-01
          1   -1    0    0  501    0  0.00000000000E+00  0.00000000000E+00  0.34036037062E+03  0.34036037062E+03  0.00000000000E+00 0.  1.
         -1   -1    0    0    0  501 -0.00000000000E+00 -0.00000000000E+00 -0.23645398355E+04  0.23645398355E+04  0.00000000000E+00 0. -1.
         23    2    1    2    0    0  0.80851055396E+03 -0.19025199115E+03 -0.51229554268E+03  0.97988480612E+03  0.88557180450E+02 0.  0.
         13    1    3    3    0    0  0.29659196248E+03 -0.11260367380E+03 -0.18239067416E+03  0.36594089356E+03  0.00000000000E+00 0.  1.
        -13    1    3    3    0    0  0.51191859148E+03 -0.77648317354E+02 -0.32990486853E+03  0.61394391256E+03  0.00000000000E+00 0. -1.
         22    1    1    2    0    0 -0.80851055396E+03  0.19025199115E+03 -0.15118839222E+04  0.17250154000E+04  0.00000000000E+00 0. -1.
<mgrwt>
<rscale>  0 0.17942081E+04</rscale>
<asrwt>0</asrwt>
<pdfrwt beam="1">  1        1 0.52363133E-01 0.17942081E+04</pdfrwt>
<pdfrwt beam="2">  1       -1 0.36377537E+00 0.17942081E+04</pdfrwt>
<totfact> 0.88484006E-01</totfact>
</mgrwt>
</event>
<event>
 6    1  0.5196787E-004  0.1573240E+04  0.7818608E-02  0.8837158E-01
         -2   -1    0    0    0  501 -0.00000000000E+00  0.00000000000E+00  0.37157480681E+03  0.37157480681E+03  0.00000000000E+00 0. -1.
          2   -1    0    0  501    0  0.00000000000E+00 -0.00000000000E+00 -0.16652665154E+04  0.16652665154E+04  0.00000000000E+00 0.  1.
         23    2    1    2    0    0  0.10275827041E+03  0.40083683043E+03  0.21323190542E+03  0.47413591004E+03  0.90042150905E+02 0.  0.
         13    1    3    3    0    0  0.73187038456E+02  0.31863653779E+03  0.12511685671E+03  0.35005687202E+03  0.00000000000E+00 0.  1.
        -13    1    3    3    0    0  0.29571231951E+02  0.82200292634E+02  0.88115048705E+02  0.12407903802E+03  0.00000000000E+00 0. -1.
         22    1    1    2    0    0 -0.10275827041E+03 -0.40083683043E+03 -0.15069236140E+04  0.15627054122E+04  0.00000000000E+00 0.  1.
<mgrwt>
<rscale>  0 0.15732401E+04</rscale>
<asrwt>0</asrwt>
<pdfrwt beam="1">  1        2 0.25619485E+00 0.15732401E+04</pdfrwt>
<pdfrwt beam="2">  1       -2 0.57165355E-01 0.15732401E+04</pdfrwt>
<totfact> 0.28253470E+01</totfact>
</mgrwt>
</event>
<event>
 6    1  0.5196787E-004  0.2034382E+04  0.7818608E-02  0.8590712E-01
          1   -1    0    0  501    0  0.00000000000E+00  0.00000000000E+00  0.86973928650E+03  0.86973928650E+03  0.00000000000E+00 0.  1.
         -1   -1    0    0    0  501 -0.00000000000E+00 -0.00000000000E+00 -0.11896414573E+04  0.11896414573E+04  0.00000000000E+00 0. -1.
         23    2    1    2    0    0  0.57664124125E+03 -0.70506617727E+03  0.29338227455E+03  0.96131369376E+03  0.91746516770E+02 0.  0.
         13    1    3    3    0    0  0.40685559045E+03 -0.52646594186E+03  0.17531655263E+03  0.68806522441E+03  0.00000000000E+00 0. -1.
        -13    1    3    3    0    0  0.16978565080E+03 -0.17860023542E+03  0.11806572192E+03  0.27324846935E+03  0.00000000000E+00 0.  1.
         22    1    1    2    0    0 -0.57664124125E+03  0.70506617727E+03 -0.61328444533E+03  0.10980670500E+04  0.00000000000E+00 0.  1.
<mgrwt>
<rscale>  0 0.20343824E+04</rscale>
<asrwt>0</asrwt>
<pdfrwt beam="1">  1        1 0.13380604E+00 0.20343824E+04</pdfrwt>
<pdfrwt beam="2">  1       -1 0.18302176E+00 0.20343824E+04</pdfrwt>
<totfact> 0.35300179E+00</totfact>
</mgrwt>
</event>
<event>
 6    1  0.5196787E-004  0.4586852E+04  0.7818608E-02  0.7895606E-01
          2   -1    0    0  501    0  0.00000000000E+00  0.00000000000E+00  0.27838574717E+04  0.27838574717E+04  0.00000000000E+00 0.  1.
         -2   -1    0    0    0  501 -0.00000000000E+00 -0.00000000000E+00 -0.18893935043E+04  0.18893935043E+04  0.00000000000E+00 0. -1.
         23    2    1    2    0    0  0.16649172244E+03 -0.30559563333E+03  0.27560670804E+04  0.27793992566E+04  0.89701123648E+02 0.  0.
         11    1    3    3    0    0  0.92365724785E+02 -0.13599396252E+03  0.16241357164E+04  0.16324345654E+04  0.00000000000E+00 0. -1.
        -11    1    3    3    0    0  0.74125997660E+02 -0.16960167081E+03  0.11319313639E+04  0.11469646912E+04  0.00000000000E+00 0.  1.
         22    1    1    2    0    0 -0.16649172244E+03  0.30559563333E+03 -0.18616031129E+04  0.18938517193E+04  0.00000000000E+00 0. -1.
<mgrwt>
<rscale>  0 0.45868517E+04</rscale>
<asrwt>0</asrwt>
<pdfrwt beam="1">  1        2 0.42828577E+00 0.45868517E+04</pdfrwt>
<pdfrwt beam="2">  1       -2 0.29067592E+00 0.45868517E+04</pdfrwt>
<totfact> 0.64481097E-02</totfact>
</mgrwt>
</event>
<event>
 6    1  0.5196787E-004  0.8673921E+03  0.7818608E-02  0.9467287E-01
         -2   -1    0    0    0  501 -0.00000000000E+00  0.00000000000E+00  0.40142179060E+03  0.40142179060E+03  0.00000000000E+00 0. -1.
          2   -1    0    0  501    0  0.00000000000E+00 -0.00000000000E+00 -0.46856519703E+03  0.46856519703E+03  0.00000000000E+00 0.  1.
         23    2    1    2    0    0 -0.76640786091E+02  0.13032690138E+03  0.36846077331E+03  0.40889056308E+03  0.92570188462E+02 0.  0.
         11    1    3    3    0    0 -0.51622793579E+02  0.18682524424E+02  0.68078418144E+02  0.87456392292E+02  0.00000000000E+00 0. -1.
        -11    1    3    3    0    0 -0.25017992512E+02  0.11164437696E+03  0.30038235517E+03  0.32143417079E+03  0.00000000000E+00 0.  1.
         22    1    1    2    0    0  0.76640786091E+02 -0.13032690138E+03 -0.43560417974E+03  0.46109642454E+03  0.00000000000E+00 0.  1.
<mgrwt>
<rscale>  0 0.86739214E+03</rscale>
<asrwt>0</asrwt>
<pdfrwt beam="1">  1        2 0.72086953E-01 0.86739214E+03</pdfrwt>
<pdfrwt beam="2">  1       -2 0.61757199E-01 0.86739214E+03</pdfrwt>
<totfact> 0.16258569E+02</totfact>
</mgrwt>
</event>
<event>
 6    1  0.5196787E-004  0.6226178E+04  0.7818608E-02  0.7662974E-01
         -2   -1    0    0    0  501 -0.00000000000E+00  0.00000000000E+00  0.20142637733E+04  0.20142637733E+04  0.00000000000E+00 0. -1.
          2   -1    0    0  501    0  0.00000000000E+00 -0.00000000000E+00 -0.48113474856E+04  0.48113474856E+04  0.00000000000E+00 0.  1.
         23    2    1    2    0    0  0.29851828400E+04 -0.12531039547E+03 -0.44304469099E+03  0.30218606102E+04  0.91288914902E+02 0.  0.
         13    1    3    3    0    0  0.19344833232E+04 -0.37551206122E+02 -0.28631201365E+03  0.19559167646E+04  0.00000000000E+00 0.  1.
        -13    1    3    3    0    0  0.10506995168E+04 -0.87759189344E+02 -0.15673267734E+03  0.10659438457E+04  0.00000000000E+00 0. -1.
         22    1    1    2    0    0 -0.29851828400E+04  0.12531039547E+03 -0.23540390213E+04  0.38037506487E+04  0.00000000000E+00 0.  1.
<mgrwt>
<rscale>  0 0.62261779E+04</rscale>
<asrwt>0</asrwt>
<pdfrwt beam="1">  1        2 0.74020729E+00 0.62261779E+04</pdfrwt>
<pdfrwt beam="2">  1       -2 0.30988674E+00 0.62261779E+04</pdfrwt>
<totfact> 0.10377116E-03</totfact>
</mgrwt>
</event>
<event>
 6    1  0.5196787E-004  0.3833487E+04  0.7818608E-02  0.8039007E-01
          2   -1    0    0  501    0  0.00000000000E+00  0.00000000000E+00  0.19583246258E+04  0.19583246258E+04  0.00000000000E+00 0.  1.
         -2   -1    0    0    0  501 -0.00000000000E+00 -0.00000000000E+00 -0.18760448442E+04  0.18760448442E+04  0.00000000000E+00 0. -1.
         23    2    1    2    0    0  0.89943337567E+03 -0.18683719275E+03  0.17225683706E+04  0.19543601113E+04  0.91613970372E+02 0.  0.
         13    1    3    3    0    0  0.52888520979E+03 -0.96875740248E+02  0.10982068217E+04  0.12227684562E+04  0.00000000000E+00 0. -1.
        -13    1    3    3    0    0  0.37054816588E+03 -0.89961452502E+02  0.62436154887E+03  0.73159165514E+03  0.00000000000E+00 0.  1.
         22    1    1    2    0    0 -0.89943337567E+03  0.18683719275E+03 -0.16402885890E+04  0.18800093588E+04  0.00000000000E+00 0. -1.
<mgrwt>
<rscale>  0 0.38334866E+04</rscale>
<asrwt>0</asrwt>
<pdfrwt beam="1">  1        2 0.30128071E+00 0.38334866E+04</pdfrwt>
<pdfrwt beam="2">  1       -2 0.28862228E+00 0.38334866E+04</pdfrwt>
<totfact> 0.21023810E-01</totfact>
</mgrwt>
</event>
<event>
 6    1  0.5196787E-004  0.3001322E+04  0.7818608E-02  0.8243353E-01
         -2   -1    0    0    0  501 -0.00000000000E+00  0.00000000000E+00  0.13234970261E+04  0.13234970261E+04  0.00000000000E+00 0. -1.
          2   -1    0    0  501    0  0.00000000000E+00 -0.00000000000E+00 -0.17015407304E+04  0.17015407304E+04  0.00000000000E+00 0.  1.
         23    2    1    2    0    0 -0.14786115900E+04  0.19910010470E+03 -0.33840481133E+03  0.15325551511E+04  0.90963670036E+02 0.  0.
         11    1    3    3    0    0 -0.11746163392E+04  0.14346407271E+03 -0.23327627560E+03  0.12061191090E+04  0.00000000000E+00 0.  1.
        -11    1    3    3    0    0 -0.30399525081E+03  0.55636031988E+02 -0.10512853574E+03  0.32643604213E+03  0.00000000000E+00 0. -1.
         22    1    1    2    0    0  0.14786115900E+04 -0.19910010470E+03 -0.39638892963E+02  0.14924826054E+04  0.00000000000E+00 0. -1.
<mgrwt>
<rscale>  0 0.30013224E+04</rscale>
<asrwt>0</asrwt>
<pdfrwt beam="1">  1        2 0.26177550E+00 0.30013224E+04</pdfrwt>
<pdfrwt beam="2">  1       -2 0.20361493E+00 0.30013224E+04</pdfrwt>
<totfact> 0.10552309E+00</totfact>
</mgrwt>
</event>
<event>
 6    1  0.5196787E-004  0.1533292E+04  0.7818608E-02  0.8862611E-01
          1   -1    0    0  501    0  0.00000000000E+00  0.00000000000E+00  0.10709409133E+04  0.10709409133E+04  0.00000000000E+00 0.  1.
         -1   -1    0    0    0  501 -0.00000000000E+00 -0.00000000000E+00 -0.54881270868E+03  0.54881270868E+03  0.00000000000E+00 0. -1.
         23    2    1    2    0    0  0.15093610467E+02 -0.75036389672E+03  0.41230632171E+03  0.86124545424E+03  0.92051262568E+02 0.  0.
         13    1    3    3    0    0  0.27444526111E+02 -0.63662006910E+02  0.37391230043E+02  0.78766472699E+02  0.00000000000E+00 0. -1.
        -13    1    3    3    0    0 -0.12350915644E+02 -0.68670188981E+03  0.37491509167E+03  0.78247898154E+03  0.00000000000E+00 0.  1.
         22    1    1    2    0    0 -0.15093610467E+02  0.75036389672E+03  0.10982188292E+03  0.75850816775E+03  0.00000000000E+00 0. -1.
<mgrwt>
<rscale>  0 0.15332919E+04</rscale>
<asrwt>0</asrwt>
<pdfrwt beam="1">  1        1 0.16476014E+00 0.15332919E+04</pdfrwt>
<pdfrwt beam="2">  1       -1 0.84432725E-01 0.15332919E+04</pdfrwt>
<totfact> 0.17878704E+01</totfact>
</mgrwt>
</event>
<event>
 6    1  0.5196787E-004  0.1493843E+04  0.7818608E-02  0.8888558E-01
          2   -1    0    0  501    0  0.00000000000E+00  0.00000000000E+00  0.28988747239E+04  0.28988747239E+04  0.00000000000E+00 0.  1.
         -2   -1    0    0    0  501 -0.00000000000E+00 -0.00000000000E+00 -0.19245109489E+03  0.19245109489E+03  0.00000000000E+00 0. -1.
         23    2    1    2    0    0  0.51240010063E+03 -0.50678393507E+03  0.97347272356E+03  0.12144926720E+04  0.89215956948E+02 0.  0.
         13    1    3    3    0    0  0.65402304559E+02 -0.85455155483E+02  0.10185273624E+03  0.14816890672E+03  0.00000000000E+00 0.  1.
        -13    1    3    3    0    0  0.44699779607E+03 -0.42132877959E+03  0.87161998732E+03  0.10663237653E+04  0.00000000000E+00 0. -1.
         22    1    1    2    0    0 -0.51240010063E+03  0.50678393507E+03  0.17329509055E+04  0.18768331468E+04  0.00000000000E+00 0.  1.
<mgrwt>
<rscale>  0 0.14938428E+04</rscale>
<asrwt>0</asrwt>
<pdfrwt beam="1">  1        2 0.44598069E+00 0.14938428E+04</pdfrwt>
<pdfrwt beam="2">  1       -2 0.29607863E-01 0.14938428E+04</pdfrwt>
<totfact> 0.20572161E+01</totfact>
</mgrwt>
</event>
<event>
 6    1  0.5196787E-004  0.3408775E+04  0.7818608E-02  0.8135756E-01
         -2   -1    0    0    0  501 -0.00000000000E+00  0.00000000000E+00  0.16548123572E+04  0.16548123572E+04  0.00000000000E+00 0. -1.
          2   -1    0    0  501    0  0.00000000000E+00 -0.00000000000E+00 -0.17554476645E+04  0.17554476645E+04  0.00000000000E+00 0.  1.
         23    2    1    2    0    0  0.14156268292E+04  0.16982662392E+02  0.89680785008E+03  0.16784457756E+04  0.92887950647E+02 0.  0.
         13    1    3    3    0    0  0.33948315909E+03 -0.29096643671E+01  0.16979167667E+03  0.37958726918E+03  0.00000000000E+00 0.  1.
        -13    1    3    3    0    0  0.10761436701E+04  0.19892326759E+02  0.72701617341E+03  0.12988585065E+04  0.00000000000E+00 0. -1.
         22    1    1    2    0    0 -0.14156268292E+04 -0.16982662392E+02 -0.99744315740E+03  0.17318142460E+04  0.00000000000E+00 0.  1.
<mgrwt>
<rscale>  0 0.34087748E+04</rscale>
<asrwt>0</asrwt>
<pdfrwt beam="1">  1        2 0.27006887E+00 0.34087748E+04</pdfrwt>
<pdfrwt beam="2">  1       -2 0.25458652E+00 0.34087748E+04</pdfrwt>
<totfact> 0.45542996E-01</totfact>
</mgrwt>
</event>
<event>
 6    1  0.5196787E-004  0.5519696E+04  0.7818608E-02  0.7752985E-01
         -2   -1    0    0    0  501 -0.00000000000E+00  0.00000000000E+00  0.22822211875E+04  0.22822211875E+04  0.00000000000E+00 0. -1.
          2   -1    0    0  501    0  0.00000000000E+00 -0.00000000000E+00 -0.33374334591E+04  0.33374334591E+04  0.00000000000E+00 0.  1.
         23    2    1    2    0    0 -0.46104929626E+02  0.23578986850E+04  0.93032517365E+03  0.25367711231E+04  0.88830903013E+02 0.  0.
         11    1    3    3    0    0 -0.49906700705E+02  0.21344316425E+04  0.81510007952E+03  0.22853177580E+04  0.00000000000E+00 0. -1.
        -11    1    3    3    0    0  0.38017710788E+01  0.22346704248E+03  0.11522509413E+03  0.25145336517E+03  0.00000000000E+00 0.  1.
         22    1    1    2    0    0  0.46104929626E+02 -0.23578986850E+04 -0.19855374453E+04  0.30828835235E+04  0.00000000000E+00 0.  1.
<mgrwt>
<rscale>  0 0.55196961E+04</rscale>
<asrwt>0</asrwt>
<pdfrwt beam="1">  1        2 0.51345130E+00 0.55196961E+04</pdfrwt>
<pdfrwt beam="2">  1       -2 0.35111095E+00 0.55196961E+04</pdfrwt>
<totfact> 0.11231188E-02</totfact>
</mgrwt>
</event>
<event>
 6    1  0.5196787E-004  0.1363387E+04  0.7818608E-02  0.8980756E-01
         -2   -1    0    0    0  501 -0.00000000000E+00  0.00000000000E+00  0.37689853397E+03  0.37689853397E+03  0.00000000000E+00 0. -1.
          2   -1    0    0  501    0  0.00000000000E+00 -0.00000000000E+00 -0.12329733245E+04  0.12329733245E+04  0.00000000000E+00 0.  1.
         23    2    1    2    0    0 -0.77028175259E+02  0.58205891883E+03 -0.27303383389E+02  0.59420066658E+03  0.87195370553E+02 0.  0.
         13    1    3    3    0    0 -0.31401828766E+02  0.43700433699E+03  0.75507316141E+01  0.43819616491E+03  0.00000000000E+00 0. -1.
        -13    1    3    3    0    0 -0.45626346494E+02  0.14505458184E+03 -0.34854115003E+02  0.15600450166E+03  0.00000000000E+00 0.  1.
         22    1    1    2    0    0  0.77028175259E+02 -0.58205891883E+03 -0.82877140715E+03  0.10156711919E+04  0.00000000000E+00 0. -1.
<mgrwt>
<rscale>  0 0.13633867E+04</rscale>
<asrwt>0</asrwt>
<pdfrwt beam="1">  1        2 0.18968820E+00 0.13633867E+04</pdfrwt>
<pdfrwt beam="2">  1       -2 0.57984391E-01 0.13633867E+04</pdfrwt>
<totfact> 0.49170932E+01</totfact>
</mgrwt>
</event>
<event>
 6    1  0.5196787E-004  0.1617453E+04  0.7818608E-02  0.8809897E-01
         -1   -1    0    0    0  501 -0.00000000000E+00  0.00000000000E+00  0.31675346030E+03  0.31675346030E+03  0.00000000000E+00 0.  1.
          1   -1    0    0  501    0  0.00000000000E+00 -0.00000000000E+00 -0.20648199966E+04  0.20648199966E+04  0.00000000000E+00 0. -1.
         23    2    1    2    0    0 -0.57560359809E+03  0.49880414179E+03 -0.48868860712E+03  0.90978616163E+03  0.93644173155E+02 0.  0.
         11    1    3    3    0    0 -0.32691368774E+03  0.24872276504E+03 -0.21687428772E+03  0.46451052706E+03  0.00000000000E+00 0.  1.
        -11    1    3    3    0    0 -0.24868991036E+03  0.25008137675E+03 -0.27181431940E+03  0.44527563457E+03  0.00000000000E+00 0. -1.
         22    1    1    2    0    0  0.57560359809E+03 -0.49880414179E+03 -0.12593779292E+04  0.14717872953E+04  0.00000000000E+00 0. -1.
<mgrwt>
<rscale>  0 0.16174534E+04</rscale>
<asrwt>0</asrwt>
<pdfrwt beam="1">  1        1 0.31766462E+00 0.16174534E+04</pdfrwt>
<pdfrwt beam="2">  1       -1 0.48731301E-01 0.16174534E+04</pdfrwt>
<totfact> 0.10880724E+01</totfact>
</mgrwt>
</event>
<event>
 6    1  0.5196787E-004  0.1852126E+04  0.7818608E-02  0.8679060E-01
          2   -1    0    0  501    0  0.00000000000E+00  0.00000000000E+00  0.29080727393E+04  0.29080727393E+04  0.00000000000E+00 0.  1.
         -2   -1    0    0    0  501 -0.00000000000E+00 -0.00000000000E+00 -0.29490057027E+03  0.29490057027E+03  0.00000000000E+00 0. -1.
         23    2    1    2    0    0 -0.62435825731E+03 -0.66072970045E+03  0.10258891492E+04  0.13738056422E+04  0.92230284630E+02 0.  0.
         13    1    3    3    0    0 -0.36506437287E+03 -0.45056124032E+03  0.64363939715E+03  0.86634236950E+03  0.00000000000E+00 0. -1.
        -13    1    3    3    0    0 -0.25929388445E+03 -0.21016846013E+03  0.38224975206E+03  0.50746327266E+03  0.00000000000E+00 0.  1.
         22    1    1    2    0    0  0.62435825731E+03  0.66072970045E+03  0.15872830198E+04  0.18291676674E+04  0.00000000000E+00 0.  1.
<mgrwt>
<rscale>  0 0.18521256E+04</rscale>
<asrwt>0</asrwt>
<pdfrwt beam="1">  1        2 0.44739579E+00 0.18521256E+04</pdfrwt>
<pdfrwt beam="2">  1       -2 0.45369320E-01 0.18521256E+04</pdfrwt>
<totfact> 0.86273115E+00</totfact>
</mgrwt>
</event>
<event>
 6    1  0.5196787E-004  0.2246357E+04  0.7818608E-02  0.8499377E-01
         -2   -1    0    0    0  501 -0.00000000000E+00  0.00000000000E+00  0.46368287805E+03  0.46368287805E+03  0.00000000000E+00 0. -1.
          2   -1    0    0  501    0  0.00000000000E+00 -0.00000000000E+00 -0.27206731583E+04  0.27206731583E+04  0.00000000000E+00 0.  1.
         23    2    1    2    0    0  0.58609138178E+03  0.40326598714E+03 -0.23592173716E+04  0.24656231635E+04  0.85231530919E+02 0.  0.
         11    1    3    3    0    0  0.91011426494E+02  0.10268079238E+03 -0.43446096556E+03  0.45561250584E+03  0.00000000000E+00 0.  1.
        -11    1    3    3    0    0  0.49507995528E+03  0.30058519476E+03 -0.19247564061E+04  0.20100106577E+04  0.00000000000E+00 0. -1.
         22    1    1    2    0    0 -0.58609138178E+03 -0.40326598714E+03  0.10222709141E+03  0.71873287277E+03  0.00000000000E+00 0. -1.
<mgrwt>
<rscale>  0 0.22463567E+04</rscale>
<asrwt>0</asrwt>
<pdfrwt beam="1">  1        2 0.41856509E+00 0.22463567E+04</pdfrwt>
<pdfrwt beam="2">  1       -2 0.71335830E-01 0.22463567E+04</pdfrwt>
<totfact> 0.41932163E+00</totfact>
</mgrwt>
</event>
<event>
 6    1  0.5196787E-004  0.2234679E+04  0.7818608E-02  0.8504131E-01
         -2   -1    0    0    0  501 -0.00000000000E+00  0.00000000000E+00  0.77617086711E+03  0.77617086711E+03  0.00000000000E+00 0.  1.
          2   -1    0    0  501    0  0.00000000000E+00 -0.00000000000E+00 -0.16084704653E+04  0.16084704653E+04  0.00000000000E+00 0. -1.
         23    2    1    2    0    0 -0.49988300966E+03  0.41036105399E+03  0.55288124028E+03  0.85591468149E+03  0.92914251602E+02 0.  0.
         11    1    3    3    0    0 -0.28331556714E+03  0.17990818561E+03  0.31388038433E+03  0.45951666074E+03  0.00000000000E+00 0.  1.
        -11    1    3    3    0    0 -0.21656744252E+03  0.23045286838E+03  0.23900085596E+03  0.39639802075E+03  0.00000000000E+00 0. -1.
         22    1    1    2    0    0  0.49988300966E+03 -0.41036105399E+03 -0.13851808385E+04  0.15287266510E+04  0.00000000000E+00 0. -1.
<mgrwt>
<rscale>  0 0.22346793E+04</rscale>
<asrwt>0</asrwt>
<pdfrwt beam="1">  1        2 0.24745699E+00 0.22346793E+04</pdfrwt>
<pdfrwt beam="2">  1       -2 0.11941090E+00 0.22346793E+04</pdfrwt>
<totfact> 0.54051987E+00</totfact>
</mgrwt>
</event>
<event>
 6    1  0.5196787E-004  0.2103266E+04  0.7818608E-02  0.8559806E-01
         -2   -1    0    0    0  501 -0.00000000000E+00  0.00000000000E+00  0.33599611348E+03  0.33599611348E+03  0.00000000000E+00 0. -1.
          2   -1    0    0  501    0  0.00000000000E+00 -0.00000000000E+00 -0.32915033932E+04  0.32915033932E+04  0.00000000000E+00 0.  1.
         23    2    1    2    0    0  0.11485814543E+03 -0.84537098982E+03 -0.42557485351E+03  0.95759265714E+03  0.89583687459E+02 0.  0.
         13    1    3    3    0    0  0.60075853622E+02 -0.66963904986E+03 -0.31100025043E+03  0.74077440632E+03  0.00000000000E+00 0. -1.
        -13    1    3    3    0    0  0.54782291805E+02 -0.17573193997E+03 -0.11457460308E+03  0.21681825082E+03  0.00000000000E+00 0.  1.
         22    1    1    2    0    0 -0.11485814543E+03  0.84537098982E+03 -0.25299324262E+04  0.26699068495E+04  0.00000000000E+00 0.  1.
<mgrwt>
<rscale>  0 0.21032664E+04</rscale>
<asrwt>0</asrwt>
<pdfrwt beam="1">  1        2 0.50638511E+00 0.21032664E+04</pdfrwt>
<pdfrwt beam="2">  1       -2 0.51691712E-01 0.21032664E+04</pdfrwt>
<totfact> 0.36867658E+00</totfact>
</mgrwt>
</event>
<event>
 6    1  0.5196787E-004  0.3510657E+04  0.7818608E-02  0.8111269E-01
          2   -1    0    0  501    0  0.00000000000E+00  0.00000000000E+00  0.17122956647E+04  0.17122956647E+04  0.00000000000E+00 0.  1.
         -2   -1    0    0    0  501 -0.00000000000E+00 -0.00000000000E+00 -0.17994425538E+04  0.17994425538E+04  0.00000000000E+00 0. -1.
         23    2    1    2    0    0  0.70794234335E+03 -0.12969836260E+04 -0.98949896040E+03  0.17803837926E+04  0.85494846680E+02 0.  0.
         11    1    3    3    0    0  0.72396001244E+02 -0.10344392304E+03 -0.10874701880E+03  0.16663655154E+03  0.00000000000E+00 0.  1.
        -11    1    3    3    0    0  0.63554634210E+03 -0.11935397030E+04 -0.88075194160E+03  0.16137472411E+04  0.00000000000E+00 0. -1.
         22    1    1    2    0    0 -0.70794234335E+03  0.12969836260E+04  0.90235207128E+03  0.17313544259E+04  0.00000000000E+00 0.  1.
<mgrwt>
<rscale>  0 0.35106567E+04</rscale>
<asrwt>0</asrwt>
<pdfrwt beam="1">  1        2 0.26343010E+00 0.35106567E+04</pdfrwt>
<pdfrwt beam="2">  1       -2 0.27683732E+00 0.35106567E+04</pdfrwt>
<totfact> 0.34892760E-01</totfact>
</mgrwt>
</event>
<event>
 6    1  0.5196787E-004  0.4623273E+04  0.7818608E-02  0.7889404E-01
          2   -1    0    0  501    0  0.00000000000E+00  0.00000000000E+00  0.24176858698E+04  0.24176858698E+04  0.00000000000E+00 0.  1.
         -2   -1    0    0    0  501 -0.00000000000E+00 -0.00000000000E+00 -0.22102385333E+04  0.22102385333E+04  0.00000000000E+00 0. -1.
         23    2    1    2    0    0 -0.18050274181E+04 -0.69075319620E+03 -0.11640816972E+04  0.22580392058E+04  0.91601850103E+02 0.  0.
         13    1    3    3    0    0 -0.42212969759E+03 -0.12726191791E+03 -0.24077933153E+03  0.50235820271E+03  0.00000000000E+00 0.  1.
        -13    1    3    3    0    0 -0.13828977205E+04 -0.56349127829E+03 -0.92330236563E+03  0.17556810031E+04  0.00000000000E+00 0. -1.
         22    1    1    2    0    0  0.18050274181E+04  0.69075319620E+03  0.13715290337E+04  0.23698851973E+04  0.00000000000E+00 0.  1.
<mgrwt>
<rscale>  0 0.46232726E+04</rscale>
<asrwt>0</asrwt>
<pdfrwt beam="1">  1        2 0.37195167E+00 0.46232726E+04</pdfrwt>
<pdfrwt beam="2">  1       -2 0.34003670E+00 0.46232726E+04</pdfrwt>
<totfact> 0.52361240E-02</totfact>
</mgrwt>
</event>
<event>
 6    1  0.5196787E-004  0.3989344E+04  0.7818608E-02  0.8006700E-01
          2   -1    0    0  501    0  0.00000000000E+00  0.00000000000E+00  0.33850493165E+04  0.33850493165E+04  0.00000000000E+00 0.  1.
         -2   -1    0    0    0  501 -0.00000000000E+00 -0.00000000000E+00 -0.11753790604E+04  0.11753790604E+04  0.00000000000E+00 0. -1.
         23    2    1    2    0    0 -0.13757541135E+04 -0.48925878185E+03 -0.44626179149E+03  0.15295788958E+04  0.91588619991E+02 0.  0.
         13    1    3    3    0    0 -0.26641024173E+03 -0.70421350070E+02 -0.11327405419E+03  0.29793387655E+03  0.00000000000E+00 0.  1.
        -13    1    3    3    0    0 -0.11093438718E+04 -0.41883743178E+03 -0.33298773730E+03  0.12316450192E+04  0.00000000000E+00 0. -1.
         22    1    1    2    0    0  0.13757541135E+04  0.48925878185E+03  0.26559320476E+04  0.30308494812E+04  0.00000000000E+00 0.  1.
<mgrwt>
<rscale>  0 0.39893438E+04</rscale>
<asrwt>0</asrwt>
<pdfrwt beam="1">  1        2 0.52077681E+00 0.39893438E+04</pdfrwt>
<pdfrwt beam="2">  1       -2 0.18082755E+00 0.39893438E+04</pdfrwt>
<totfact> 0.13770962E-01</totfact>
</mgrwt>
</event>
<event>
 6    1  0.5196787E-004  0.5212098E+04  0.7818608E-02  0.7796597E-01
         -2   -1    0    0    0  501 -0.00000000000E+00  0.00000000000E+00  0.18101579572E+04  0.18101579572E+04  0.00000000000E+00 0. -1.
          2   -1    0    0  501    0  0.00000000000E+00 -0.00000000000E+00 -0.37518781308E+04  0.37518781308E+04  0.00000000000E+00 0.  1.
         23    2    1    2    0    0 -0.11539165636E+04  0.18186251612E+04  0.59309853670E+03  0.22357428347E+04  0.88652332299E+02 0.  0.
         11    1    3    3    0    0 -0.81723431840E+03  0.12108712526E+04  0.39886038497E+03  0.15143218707E+04  0.00000000000E+00 0.  1.
        -11    1    3    3    0    0 -0.33668224523E+03  0.60775390859E+03  0.19423815173E+03  0.72142096396E+03  0.00000000000E+00 0. -1.
         22    1    1    2    0    0  0.11539165636E+04 -0.18186251612E+04 -0.25348187103E+04  0.33262932532E+04  0.00000000000E+00 0.  1.
<mgrwt>
<rscale>  0 0.52120983E+04</rscale>
<asrwt>0</asrwt>
<pdfrwt beam="1">  1        2 0.57721202E+00 0.52120983E+04</pdfrwt>
<pdfrwt beam="2">  1       -2 0.27848584E+00 0.52120983E+04</pdfrwt>
<totfact> 0.16392383E-02</totfact>
</mgrwt>
</event>
<event>
 6    1  0.5196787E-004  0.6057679E+03  0.7818608E-02  0.9893511E-01
         -2   -1    0    0    0  501 -0.00000000000E+00  0.00000000000E+00  0.12186385613E+03  0.12186385613E+03  0.00000000000E+00 0. -1.
          2   -1    0    0  501    0  0.00000000000E+00 -0.00000000000E+00 -0.75279664004E+03  0.75279664004E+03  0.00000000000E+00 0.  1.
         23    2    1    2    0    0 -0.56412729093E+02  0.82345277085E+02 -0.72514518558E+03  0.73740483221E+03  0.89259205321E+02 0.  0.
         13    1    3    3    0    0 -0.57689493534E+01  0.73709966371E+02 -0.29163639050E+03  0.30086246722E+03  0.00000000000E+00 0.  1.
        -13    1    3    3    0    0 -0.50643779739E+02  0.86353107140E+01 -0.43350879507E+03  0.43654236498E+03  0.00000000000E+00 0. -1.
         22    1    1    2    0    0  0.56412729093E+02 -0.82345277085E+02  0.94212401670E+02  0.13725566396E+03  0.00000000000E+00 0. -1.
<mgrwt>
<rscale>  0 0.60576795E+03</rscale>
<asrwt>0</asrwt>
<pdfrwt beam="1">  1        2 0.11581487E+00 0.60576795E+03</pdfrwt>
<pdfrwt beam="2">  1       -2 0.18748285E-01 0.60576795E+03</pdfrwt>
<totfact> 0.89626123E+02</totfact>
</mgrwt>
</event>
<event>
 6    1  0.5196787E-004  0.8251884E+03  0.7818608E-02  0.9524257E-01
         -2   -1    0    0    0  501 -0.00000000000E+00  0.00000000000E+00  0.44632330817E+03  0.44632330817E+03  0.00000000000E+00 0. -1.
          2   -1    0    0  501    0  0.00000000000E+00 -0.00000000000E+00 -0.38141403449E+03  0.38141403449E+03  0.00000000000E+00 0.  1.
         23    2    1    2    0    0 -0.25399851436E+03 -0.30217548027E+03  0.13411852532E+03  0.42696909705E+03  0.92138834506E+02 0.  0.
         11    1    3    3    0    0 -0.12238078964E+03 -0.15016611667E+03  0.11429295228E+03  0.22492176242E+03  0.00000000000E+00 0. -1.
        -11    1    3    3    0    0 -0.13161772473E+03 -0.15200936361E+03  0.19825573037E+02  0.20204733463E+03  0.00000000000E+00 0.  1.
         22    1    1    2    0    0  0.25399851436E+03  0.30217548027E+03 -0.69209251635E+02  0.40076824561E+03  0.00000000000E+00 0.  1.
<mgrwt>
<rscale>  0 0.82518840E+03</rscale>
<asrwt>0</asrwt>
<pdfrwt beam="1">  1        2 0.58679082E-01 0.82518840E+03</pdfrwt>
<pdfrwt beam="2">  1       -2 0.68665124E-01 0.82518840E+03</pdfrwt>
<totfact> 0.16379128E+02</totfact>
</mgrwt>
</event>
<event>
 6    1  0.5196787E-004  0.1754374E+04  0.7818608E-02  0.8730947E-01
          2   -1    0    0  501    0  0.00000000000E+00  0.00000000000E+00  0.20032526966E+04  0.20032526966E+04  0.00000000000E+00 0.  1.
         -2   -1    0    0    0  501 -0.00000000000E+00 -0.00000000000E+00 -0.38410368693E+03  0.38410368693E+03  0.00000000000E+00 0. -1.
         23    2    1    2    0    0  0.32308064728E+02  0.67797783015E+03  0.60731520283E+02  0.68754379961E+03  0.91271077605E+02 0.  0.
         13    1    3    3    0    0 -0.16264029118E+02  0.36795696016E+03  0.21653955173E+01  0.36832259245E+03  0.00000000000E+00 0. -1.
        -13    1    3    3    0    0  0.48572093846E+02  0.31002086999E+03  0.58566124766E+02  0.31922120716E+03  0.00000000000E+00 0.  1.
         22    1    1    2    0    0 -0.32308064728E+02 -0.67797783015E+03  0.15584174894E+04  0.16998125839E+04  0.00000000000E+00 0.  1.
<mgrwt>
<rscale>  0 0.17543737E+04</rscale>
<asrwt>0</asrwt>
<pdfrwt beam="1">  1        2 0.30819272E+00 0.17543737E+04</pdfrwt>
<pdfrwt beam="2">  1       -2 0.59092876E-01 0.17543737E+04</pdfrwt>
<totfact> 0.16862319E+01</totfact>
</mgrwt>
</event>
<event>
 6    1  0.5196787E-004  0.6694457E+03  0.7818608E-02  0.9770960E-01
          2   -1    0    0  501    0  0.00000000000E+00  0.00000000000E+00  0.56017906787E+03  0.56017906787E+03  0.00000000000E+00 0.  1.
         -2   -1    0    0    0  501 -0.00000000000E+00 -0.00000000000E+00 -0.20000635564E+03  0.20000635564E+03  0.00000000000E+00 0. -1.
         23    2    1    2    0    0  0.55295703356E+02  0.84425175822E+02  0.53863497796E+03  0.55516346026E+03  0.88845950993E+02 0.  0.
         11    1    3    3    0    0 -0.23941397710E+02  0.21714733097E+02  0.10251489511E+03  0.10748964544E+03  0.00000000000E+00 0. -1.
        -11    1    3    3    0    0  0.79237101066E+02  0.62710442725E+02  0.43612008285E+03  0.44767381482E+03  0.00000000000E+00 0.  1.
         22    1    1    2    0    0 -0.55295703356E+02 -0.84425175822E+02 -0.17846226574E+03  0.20502196325E+03  0.00000000000E+00 0. -1.
<mgrwt>
<rscale>  0 0.66944566E+03</rscale>
<asrwt>0</asrwt>
<pdfrwt beam="1">  1        2 0.86181394E-01 0.66944566E+03</pdfrwt>
<pdfrwt beam="2">  1       -2 0.30770209E-01 0.66944566E+03</pdfrwt>
<totfact> 0.53003277E+02</totfact>
</mgrwt>
</event>
<event>
 6    1  0.5196787E-004  0.2231093E+04  0.7818608E-02  0.8505597E-01
         -2   -1    0    0    0  501 -0.00000000000E+00  0.00000000000E+00  0.33087958633E+04  0.33087958633E+04  0.00000000000E+00 0. -1.
          2   -1    0    0  501    0  0.00000000000E+00 -0.00000000000E+00 -0.37610171379E+03  0.37610171379E+03  0.00000000000E+00 0.  1.
         23    2    1    2    0    0 -0.44448799359E+01  0.57434869140E+03  0.30446803694E+04  0.30997163319E+04  0.90920899530E+02 0.  0.
         11    1    3    3    0    0 -0.24468773692E+02  0.29992529259E+03  0.18005154053E+04  0.18254888733E+04  0.00000000000E+00 0. -1.
        -11    1    3    3    0    0  0.20023893757E+02  0.27442339881E+03  0.12441649642E+04  0.12742274586E+04  0.00000000000E+00 0.  1.
         22    1    1    2    0    0  0.44448799359E+01 -0.57434869140E+03 -0.11198621992E+03  0.58518124519E+03  0.00000000000E+00 0.  1.
<mgrwt>
<rscale>  0 0.22310928E+04</rscale>
<asrwt>0</asrwt>
<pdfrwt beam="1">  1        2 0.57861804E-01 0.22310928E+04</pdfrwt>
<pdfrwt beam="2">  1       -2 0.50904550E+00 0.22310928E+04</pdfrwt>
<totfact> 0.11222982E-01</totfact>
</mgrwt>
</event>
<event>
 6    1  0.5196787E-004  0.3428930E+04  0.7818608E-02  0.8130842E-01
         -2   -1    0    0    0  501 -0.00000000000E+00  0.00000000000E+00  0.96782233563E+03  0.96782233563E+03  0.00000000000E+00 0. -1.
          2   -1    0    0  501    0  0.00000000000E+00 -0.00000000000E+00 -0.30371184099E+04  0.30371184099E+04  0.00000000000E+00 0.  1.
         23    2    1    2    0    0 -0.10582230529E+03  0.15526336430E+04 -0.18722607017E+04  0.24362812771E+04  0.90756468898E+02 0.  0.
         13    1    3    3    0    0  0.66489153268E+01  0.29474058330E+03 -0.39192039265E+03  0.49042615519E+03  0.00000000000E+00 0. -1.
        -13    1    3    3    0    0 -0.11247122061E+03  0.12578930597E+04 -0.14803403090E+04  0.19458551220E+04  0.00000000000E+00 0.  1.
         22    1    1    2    0    0  0.10582230529E+03 -0.15526336430E+04 -0.19703537254E+03  0.15686594683E+04  0.00000000000E+00 0. -1.
<mgrwt>
<rscale>  0 0.34289305E+04</rscale>
<asrwt>0</asrwt>
<pdfrwt beam="1">  1        2 0.46724898E+00 0.34289305E+04</pdfrwt>
<pdfrwt beam="2">  1       -2 0.14889574E+00 0.34289305E+04</pdfrwt>
<totfact> 0.41633295E-01</totfact>
</mgrwt>
</event>
<event>
 6    1  0.5196787E-004  0.2883717E+04  0.7818608E-02  0.8277739E-01
         -2   -1    0    0    0  501 -0.00000000000E+00  0.00000000000E+00  0.12536992790E+04  0.12536992790E+04  0.00000000000E+00 0. -1.
          2   -1    0    0  501    0  0.00000000000E+00 -0.00000000000E+00 -0.16582568631E+04  0.16582568631E+04  0.00000000000E+00 0.  1.
         23    2    1    2    0    0 -0.14066637293E+04  0.35253835854E+02 -0.51012188542E+03  0.15008964332E+04  0.11189318497E+03 0.  0.
         11    1    3    3    0    0 -0.14954926125E+03  0.11554298987E+02 -0.19630009996E+02  0.15127399201E+03  0.00000000000E+00 0. -1.
        -11    1    3    3    0    0 -0.12571144681E+04  0.23699536867E+02 -0.49049187543E+03  0.13496224412E+04  0.00000000000E+00 0.  1.
         22    1    1    2    0    0  0.14066637293E+04 -0.35253835854E+02  0.10556430136E+03  0.14110597089E+04  0.00000000000E+00 0.  1.
<mgrwt>
<rscale>  0 0.28837167E+04</rscale>
<asrwt>0</asrwt>
<pdfrwt beam="1">  1        2 0.25511644E+00 0.28837167E+04</pdfrwt>
<pdfrwt beam="2">  1       -2 0.19287681E+00 0.28837167E+04</pdfrwt>
<totfact> 0.13259781E+00</totfact>
</mgrwt>
</event>
<event>
 6    1  0.5196787E-004  0.1531719E+04  0.7818608E-02  0.8863630E-01
          2   -1    0    0  501    0  0.00000000000E+00  0.00000000000E+00  0.20378343448E+04  0.20378343448E+04  0.00000000000E+00 0.  1.
         -2   -1    0    0    0  501 -0.00000000000E+00 -0.00000000000E+00 -0.28782537827E+03  0.28782537827E+03  0.00000000000E+00 0. -1.
         23    2    1    2    0    0  0.43438946644E+03  0.28496735416E+03  0.17269134837E+04  0.18056270291E+04  0.90322679825E+02 0.  0.
         11    1    3    3    0    0  0.23362485819E+03  0.20631798706E+03  0.10253890853E+04  0.10717137969E+04  0.00000000000E+00 0.  1.
        -11    1    3    3    0    0  0.20076460825E+03  0.78649367095E+02  0.70152439835E+03  0.73391323217E+03  0.00000000000E+00 0. -1.
         22    1    1    2    0    0 -0.43438946644E+03 -0.28496735416E+03  0.23095482828E+02  0.52003269399E+03  0.00000000000E+00 0. -1.
<mgrwt>
<rscale>  0 0.15317186E+04</rscale>
<asrwt>0</asrwt>
<pdfrwt beam="1">  1        2 0.31351297E+00 0.15317186E+04</pdfrwt>
<pdfrwt beam="2">  1       -2 0.44280829E-01 0.15317186E+04</pdfrwt>
<totfact> 0.29684199E+01</totfact>
</mgrwt>
</event>
<event>
 6    1  0.5196787E-004  0.2139862E+04  0.7818608E-02  0.8543884E-01
          2   -1    0    0  501    0  0.00000000000E+00  0.00000000000E+00  0.23877697593E+04  0.23877697593E+04  0.00000000000E+00 0.  1.
         -2   -1    0    0    0  501 -0.00000000000E+00 -0.00000000000E+00 -0.47942307942E+03  0.47942307942E+03  0.00000000000E+00 0. -1.
         23    2    1    2    0    0  0.28008388522E+03 -0.42514245180E+03  0.22138559024E+04  0.22734513360E+04  0.90718979958E+02 0.  0.
         13    1    3    3    0    0  0.16132291119E+03 -0.31212081467E+03  0.14174030076E+04  0.14602998907E+04  0.00000000000E+00 0. -1.
        -13    1    3    3    0    0  0.11876097403E+03 -0.11302163713E+03  0.79645289476E+03  0.81315144530E+03  0.00000000000E+00 0.  1.
         22    1    1    2    0    0 -0.28008388522E+03  0.42514245180E+03 -0.30550922250E+03  0.59374150277E+03  0.00000000000E+00 0. -1.
<mgrwt>
<rscale>  0 0.21398616E+04</rscale>
<asrwt>0</asrwt>
<pdfrwt beam="1">  1        2 0.36734919E+00 0.21398616E+04</pdfrwt>
<pdfrwt beam="2">  1       -2 0.73757398E-01 0.21398616E+04</pdfrwt>
<totfact> 0.61497930E+00</totfact>
</mgrwt>
</event>
<event>
 6    1  0.5196787E-004  0.2010340E+04  0.7818608E-02  0.8601802E-01
          2   -1    0    0  501    0  0.00000000000E+00  0.00000000000E+00  0.19376976199E+04  0.19376976199E+04  0.00000000000E+00 0.  1.
         -2   -1    0    0    0  501 -0.00000000000E+00 -0.00000000000E+00 -0.52142643426E+03  0.52142643426E+03  0.00000000000E+00 0. -1.
         23    2    1    2    0    0 -0.33394362789E+03 -0.19947156830E+01 -0.44740734248E+03  0.56576197002E+03  0.91602134923E+02 0.  0.
         13    1    3    3    0    0 -0.23768045245E+03  0.19980016464E+02 -0.25294070369E+03  0.34766391547E+03  0.00000000000E+00 0.  1.
        -13    1    3    3    0    0 -0.96263175432E+02 -0.21974732147E+02 -0.19446663879E+03  0.21809805456E+03  0.00000000000E+00 0. -1.
         22    1    1    2    0    0  0.33394362789E+03  0.19947156830E+01  0.18636785281E+04  0.18933620841E+04  0.00000000000E+00 0.  1.
<mgrwt>
<rscale>  0 0.20103400E+04</rscale>
<asrwt>0</asrwt>
<pdfrwt beam="1">  1        2 0.29810732E+00 0.20103400E+04</pdfrwt>
<pdfrwt beam="2">  1       -2 0.80219452E-01 0.20103400E+04</pdfrwt>
<totfact> 0.92271391E+00</totfact>
</mgrwt>
</event>
<event>
 6    1  0.5196787E-004  0.2785983E+04  0.7818608E-02  0.8307633E-01
         -2   -1    0    0    0  501 -0.00000000000E+00  0.00000000000E+00  0.65867530097E+03  0.65867530097E+03  0.00000000000E+00 0. -1.
          2   -1    0    0  501    0  0.00000000000E+00 -0.00000000000E+00 -0.29459514283E+04  0.29459514283E+04  0.00000000000E+00 0.  1.
         23    2    1    2    0    0 -0.88861328989E+03  0.21378879273E+03 -0.25024575790E+04  0.26656686450E+04  0.90311479984E+02 0.  0.
         11    1    3    3    0    0 -0.19964440557E+03  0.19608319318E+02 -0.62372593168E+03  0.65519188999E+03  0.00000000000E+00 0. -1.
        -11    1    3    3    0    0 -0.68896888432E+03  0.19418047341E+03 -0.18787316473E+04  0.20104767550E+04  0.00000000000E+00 0.  1.
         22    1    1    2    0    0  0.88861328989E+03 -0.21378879273E+03  0.21518145167E+03  0.93895808427E+03  0.00000000000E+00 0. -1.
<mgrwt>
<rscale>  0 0.27859831E+04</rscale>
<asrwt>0</asrwt>
<pdfrwt beam="1">  1        2 0.45322329E+00 0.27859831E+04</pdfrwt>
<pdfrwt beam="2">  1       -2 0.10133466E+00 0.27859831E+04</pdfrwt>
<totfact> 0.13115193E+00</totfact>
</mgrwt>
</event>
<event>
 6    1  0.5196787E-004  0.2943411E+04  0.7818608E-02  0.8260077E-01
          2   -1    0    0  501    0  0.00000000000E+00  0.00000000000E+00  0.16869074626E+04  0.16869074626E+04  0.00000000000E+00 0.  1.
         -2   -1    0    0    0  501 -0.00000000000E+00 -0.00000000000E+00 -0.12839574719E+04  0.12839574719E+04  0.00000000000E+00 0. -1.
         23    2    1    2    0    0 -0.73452625947E+03 -0.44367568164E+03 -0.10034080869E+04  0.13233759425E+04  0.90106381262E+02 0.  0.
         11    1    3    3    0    0 -0.31652097751E+03 -0.13981586379E+03 -0.40852241150E+03  0.53537329563E+03  0.00000000000E+00 0.  1.
        -11    1    3    3    0    0 -0.41800528195E+03 -0.30385981785E+03 -0.59488567544E+03  0.78800264688E+03  0.00000000000E+00 0. -1.
         22    1    1    2    0    0  0.73452625947E+03  0.44367568164E+03  0.14063580776E+04  0.16474889920E+04  0.00000000000E+00 0.  1.
<mgrwt>
<rscale>  0 0.29434112E+04</rscale>
<asrwt>0</asrwt>
<pdfrwt beam="1">  1        2 0.25952423E+00 0.29434112E+04</pdfrwt>
<pdfrwt beam="2">  1       -2 0.19753192E+00 0.29434112E+04</pdfrwt>
<totfact> 0.11843828E+00</totfact>
</mgrwt>
</event>
<event>
 6    1  0.5196787E-004  0.3144008E+04  0.7818608E-02  0.8203763E-01
         -2   -1    0    0    0  501 -0.00000000000E+00  0.00000000000E+00  0.72959107632E+03  0.72959107632E+03  0.00000000000E+00 0.  1.
          2   -1    0    0  501    0  0.00000000000E+00 -0.00000000000E+00 -0.33870971854E+04  0.33870971854E+04  0.00000000000E+00 0. -1.
         23    2    1    2    0    0  0.89286021317E+03  0.88101347431E+03 -0.25675450062E+04  0.28591203302E+04  0.94327100613E+02 0.  0.
         13    1    3    3    0    0  0.13059454818E+03  0.14834005658E+03 -0.48009641442E+03  0.51918424046E+03  0.00000000000E+00 0. -1.
        -13    1    3    3    0    0  0.76226566499E+03  0.73267341773E+03 -0.20874485918E+04  0.23399360898E+04  0.00000000000E+00 0.  1.
         22    1    1    2    0    0 -0.89286021317E+03 -0.88101347431E+03 -0.89961102888E+02  0.12575679314E+04  0.00000000000E+00 0.  1.
<mgrwt>
<rscale>  0 0.31440076E+04</rscale>
<asrwt>0</asrwt>
<pdfrwt beam="1">  1        2 0.52109187E+00 0.31440076E+04</pdfrwt>
<pdfrwt beam="2">  1       -2 0.11224478E+00 0.31440076E+04</pdfrwt>
<totfact> 0.51432163E-01</totfact>
</mgrwt>
</event>
<event>
 6    1  0.5196787E-004  0.1186836E+04  0.7818608E-02  0.9124458E-01
         -2   -1    0    0    0  501 -0.00000000000E+00  0.00000000000E+00  0.18928463824E+03  0.18928463824E+03  0.00000000000E+00 0. -1.
          2   -1    0    0  501    0  0.00000000000E+00 -0.00000000000E+00 -0.18603981994E+04  0.18603981994E+04  0.00000000000E+00 0.  1.
         23    2    1    2    0    0  0.37467730286E+03 -0.33379972272E+03 -0.13760063672E+04  0.14675371582E+04  0.92013325265E+02 0.  0.
         11    1    3    3    0    0  0.27742743268E+03 -0.28594050531E+03 -0.11458350960E+04  0.12131224259E+04  0.00000000000E+00 0. -1.
        -11    1    3    3    0    0  0.97249870176E+02 -0.47859217404E+02 -0.23017127120E+03  0.25441473233E+03  0.00000000000E+00 0.  1.
         22    1    1    2    0    0 -0.37467730286E+03  0.33379972272E+03 -0.29510719402E+03  0.58214567947E+03  0.00000000000E+00 0. -1.
<mgrwt>
<rscale>  0 0.11868358E+04</rscale>
<asrwt>0</asrwt>
<pdfrwt beam="1">  1        2 0.28621511E+00 0.11868358E+04</pdfrwt>
<pdfrwt beam="2">  1       -2 0.29120713E-01 0.11868358E+04</pdfrwt>
<totfact> 0.85552602E+01</totfact>
</mgrwt>
</event>
<event>
 6    1  0.5196787E-004  0.3682284E+04  0.7818608E-02  0.8071899E-01
         -2   -1    0    0    0  501 -0.00000000000E+00  0.00000000000E+00  0.21348127271E+04  0.21348127271E+04  0.00000000000E+00 0.  1.
          2   -1    0    0  501    0  0.00000000000E+00 -0.00000000000E+00 -0.15878694830E+04  0.15878694830E+04  0.00000000000E+00 0. -1.
         23    2    1    2    0    0  0.15813470611E+03  0.48013463230E+03  0.20622327605E+04  0.21252974196E+04  0.92462494004E+02 0.  0.
         13    1    3    3    0    0  0.64056187066E+02  0.11670585004E+03  0.41512234887E+03  0.43594726180E+03  0.00000000000E+00 0. -1.
        -13    1    3    3    0    0  0.94078519045E+02  0.36342878226E+03  0.16471104116E+04  0.16893501578E+04  0.00000000000E+00 0.  1.
         22    1    1    2    0    0 -0.15813470611E+03 -0.48013463230E+03 -0.15152895164E+04  0.15973847905E+04  0.00000000000E+00 0. -1.
<mgrwt>
<rscale>  0 0.36822841E+04</rscale>
<asrwt>0</asrwt>
<pdfrwt beam="1">  1        2 0.24428761E+00 0.36822841E+04</pdfrwt>
<pdfrwt beam="2">  1       -2 0.32843273E+00 0.36822841E+04</pdfrwt>
<totfact> 0.19464430E-01</totfact>
</mgrwt>
</event>
<event>
 6    1  0.5196787E-004  0.1405424E+04  0.7818608E-02  0.8949902E-01
          2   -1    0    0  501    0  0.00000000000E+00  0.00000000000E+00  0.13510367184E+04  0.13510367184E+04  0.00000000000E+00 0.  1.
         -2   -1    0    0    0  501 -0.00000000000E+00 -0.00000000000E+00 -0.36550027683E+03  0.36550027683E+03  0.00000000000E+00 0. -1.
         23    2    1    2    0    0 -0.90631845846E+02 -0.47640493210E+03  0.11109662575E+04  0.12156293895E+04  0.91285247427E+02 0.  0.
         13    1    3    3    0    0 -0.24404474747E+02 -0.12878814768E+03  0.20869639388E+03  0.24644705352E+03  0.00000000000E+00 0. -1.
        -13    1    3    3    0    0 -0.66227371099E+02 -0.34761678442E+03  0.90226986366E+03  0.96918233597E+03  0.00000000000E+00 0.  1.
         22    1    1    2    0    0  0.90631845846E+02  0.47640493210E+03 -0.12542981592E+03  0.50090760579E+03  0.00000000000E+00 0. -1.
<mgrwt>
<rscale>  0 0.14054242E+04</rscale>
<asrwt>0</asrwt>
<pdfrwt beam="1">  1        2 0.20785180E+00 0.14054242E+04</pdfrwt>
<pdfrwt beam="2">  1       -2 0.56230812E-01 0.14054242E+04</pdfrwt>
<totfact> 0.44591285E+01</totfact>
</mgrwt>
</event>
<event>
 6    1  0.5196787E-004  0.1921384E+04  0.7818608E-02  0.8644285E-01
          2   -1    0    0  501    0  0.00000000000E+00  0.00000000000E+00  0.18231748772E+04  0.18231748772E+04  0.00000000000E+00 0.  1.
         -2   -1    0    0    0  501 -0.00000000000E+00 -0.00000000000E+00 -0.50622109758E+03  0.50622109758E+03  0.00000000000E+00 0. -1.
         23    2    1    2    0    0  0.25240815293E+03 -0.14554879968E+03  0.17673366100E+04  0.17929828666E+04  0.80090811147E+02 0.  0.
         11    1    3    3    0    0  0.17124375333E+03 -0.10017066341E+03  0.95832163412E+03  0.97864137419E+03  0.00000000000E+00 0.  1.
        -11    1    3    3    0    0  0.81164399601E+02 -0.45378136270E+02  0.80901497590E+03  0.81434149240E+03  0.00000000000E+00 0. -1.
         22    1    1    2    0    0 -0.25240815293E+03  0.14554879968E+03 -0.45038283038E+03  0.53641310820E+03  0.00000000000E+00 0. -1.
<mgrwt>
<rscale>  0 0.19213845E+04</rscale>
<asrwt>0</asrwt>
<pdfrwt beam="1">  1        2 0.28048844E+00 0.19213845E+04</pdfrwt>
<pdfrwt beam="2">  1       -2 0.77880170E-01 0.19213845E+04</pdfrwt>
<totfact> 0.11497909E+01</totfact>
</mgrwt>
</event>
<event>
 6    1  0.5196787E-004  0.2070837E+04  0.7818608E-02  0.8574200E-01
          2   -1    0    0  501    0  0.00000000000E+00  0.00000000000E+00  0.15560590349E+04  0.15560590349E+04  0.00000000000E+00 0.  1.
         -2   -1    0    0    0  501 -0.00000000000E+00 -0.00000000000E+00 -0.68897869542E+03  0.68897869542E+03  0.00000000000E+00 0. -1.
         23    2    1    2    0    0  0.72296875537E+03  0.70621002310E+03  0.20167709865E+03  0.10350055444E+04  0.95636848978E+02 0.  0.
         13    1    3    3    0    0  0.32323741553E+03  0.36795589830E+03  0.67079684434E+02  0.49434163688E+03  0.00000000000E+00 0. -1.
        -13    1    3    3    0    0  0.39973133984E+03  0.33825412480E+03  0.13459741422E+03  0.54066390753E+03  0.00000000000E+00 0.  1.
         22    1    1    2    0    0 -0.72296875537E+03 -0.70621002310E+03  0.66540324080E+03  0.12100321859E+04  0.00000000000E+00 0.  1.
<mgrwt>
<rscale>  0 0.20708371E+04</rscale>
<asrwt>0</asrwt>
<pdfrwt beam="1">  1        2 0.23939370E+00 0.20708371E+04</pdfrwt>
<pdfrwt beam="2">  1       -2 0.10599672E+00 0.20708371E+04</pdfrwt>
<totfact> 0.78355052E+00</totfact>
</mgrwt>
</event>
<event>
 6    1  0.5196787E-004  0.3541752E+04  0.7818608E-02  0.8103966E-01
         -2   -1    0    0    0  501 -0.00000000000E+00  0.00000000000E+00  0.22408479842E+04  0.22408479842E+04  0.00000000000E+00 0. -1.
          2   -1    0    0  501    0  0.00000000000E+00 -0.00000000000E+00 -0.13994708034E+04  0.13994708034E+04  0.00000000000E+00 0.  1.
         23    2    1    2    0    0  0.38851106503E+03 -0.12320031706E+03  0.21910855583E+04  0.22304138724E+04  0.88153008740E+02 0.  0.
         11    1    3    3    0    0  0.28195794134E+03 -0.98738489622E+02  0.17870364483E+04  0.18118357645E+04  0.00000000000E+00 0.  1.
        -11    1    3    3    0    0  0.10655312369E+03 -0.24461827435E+02  0.40404910995E+03  0.41857810791E+03  0.00000000000E+00 0. -1.
         22    1    1    2    0    0 -0.38851106503E+03  0.12320031706E+03 -0.13497083775E+04  0.14099049152E+04  0.00000000000E+00 0.  1.
<mgrwt>
<rscale>  0 0.35417517E+04</rscale>
<asrwt>0</asrwt>
<pdfrwt beam="1">  1        2 0.21530320E+00 0.35417517E+04</pdfrwt>
<pdfrwt beam="2">  1       -2 0.34474584E+00 0.35417517E+04</pdfrwt>
<totfact> 0.19902293E-01</totfact>
</mgrwt>
</event>
<event>
 6    1  0.5196787E-004  0.2222018E+04  0.7818608E-02  0.8509319E-01
          2   -1    0    0  501    0  0.00000000000E+00  0.00000000000E+00  0.20848383396E+04  0.20848383396E+04  0.00000000000E+00 0.  1.
         -2   -1    0    0    0  501 -0.00000000000E+00 -0.00000000000E+00 -0.59205609515E+03  0.59205609515E+03  0.00000000000E+00 0. -1.
         23    2    1    2    0    0  0.95497664452E+03 -0.32476901185E+03  0.19212963838E+03  0.10309441001E+04  0.92068653061E+02 0.  0.
         13    1    3    3    0    0  0.51185952408E+03 -0.17773825431E+03  0.56552621220E+02  0.54478368037E+03  0.00000000000E+00 0.  1.
        -13    1    3    3    0    0  0.44311712044E+03 -0.14703075755E+03  0.13557701716E+03  0.48616041969E+03  0.00000000000E+00 0. -1.
         22    1    1    2    0    0 -0.95497664452E+03  0.32476901185E+03  0.13006526061E+04  0.16459503347E+04  0.00000000000E+00 0.  1.
<mgrwt>
<rscale>  0 0.22220182E+04</rscale>
<asrwt>0</asrwt>
<pdfrwt beam="1">  1        2 0.32074436E+00 0.22220182E+04</pdfrwt>
<pdfrwt beam="2">  1       -2 0.91085554E-01 0.22220182E+04</pdfrwt>
<totfact> 0.56186409E+00</totfact>
</mgrwt>
</event>
<event>
 6    1  0.5196787E-004  0.1930944E+04  0.7818608E-02  0.8639605E-01
          2   -1    0    0  501    0  0.00000000000E+00  0.00000000000E+00  0.22772325322E+04  0.22772325322E+04  0.00000000000E+00 0.  1.
         -2   -1    0    0    0  501 -0.00000000000E+00 -0.00000000000E+00 -0.40932862896E+03  0.40932862896E+03  0.00000000000E+00 0. -1.
         23    2    1    2    0    0  0.75767181986E+03 -0.25933509592E+03  0.16815830718E+04  0.18643466327E+04  0.82130754956E+02 0.  0.
         13    1    3    3    0    0  0.59176626777E+03 -0.21871743960E+03  0.13888216969E+04  0.15254016979E+04  0.00000000000E+00 0.  1.
        -13    1    3    3    0    0  0.16590555209E+03 -0.40617656317E+02  0.29276137488E+03  0.33894493482E+03  0.00000000000E+00 0. -1.
         22    1    1    2    0    0 -0.75767181986E+03  0.25933509592E+03  0.18632083145E+03  0.82221452847E+03  0.00000000000E+00 0. -1.
<mgrwt>
<rscale>  0 0.19309443E+04</rscale>
<asrwt>0</asrwt>
<pdfrwt beam="1">  1        2 0.35034346E+00 0.19309443E+04</pdfrwt>
<pdfrwt beam="2">  1       -2 0.62973637E-01 0.19309443E+04</pdfrwt>
<totfact> 0.10197759E+01</totfact>
</mgrwt>
</event>
<event>
 6    1  0.5196787E-004  0.1652901E+04  0.7818608E-02  0.8788692E-01
          2   -1    0    0  501    0  0.00000000000E+00  0.00000000000E+00  0.18619576108E+04  0.18619576108E+04  0.00000000000E+00 0.  1.
         -2   -1    0    0    0  501 -0.00000000000E+00 -0.00000000000E+00 -0.36682916044E+03  0.36682916044E+03  0.00000000000E+00 0. -1.
         23    2    1    2    0    0 -0.39440139257E+03  0.57298425947E+03  0.15435130662E+03  0.71830778456E+03  0.90985314385E+02 0.  0.
         13    1    3    3    0    0 -0.26205444247E+03  0.31058347594E+03  0.11087420945E+03  0.42122169539E+03  0.00000000000E+00 0. -1.
        -13    1    3    3    0    0 -0.13234695011E+03  0.26240078353E+03  0.43477097174E+02  0.29708608917E+03  0.00000000000E+00 0.  1.
         22    1    1    2    0    0  0.39440139257E+03 -0.57298425947E+03  0.13407771438E+04  0.15104789867E+04  0.00000000000E+00 0.  1.
<mgrwt>
<rscale>  0 0.16529009E+04</rscale>
<asrwt>0</asrwt>
<pdfrwt beam="1">  1        2 0.28645501E+00 0.16529009E+04</pdfrwt>
<pdfrwt beam="2">  1       -2 0.56435257E-01 0.16529009E+04</pdfrwt>
<totfact> 0.22430423E+01</totfact>
</mgrwt>
</event>
<event>
 6    1  0.5196787E-004  0.1750962E+04  0.7818608E-02  0.8732821E-01
         -2   -1    0    0    0  501 -0.00000000000E+00  0.00000000000E+00  0.42460038140E+03  0.42460038140E+03  0.00000000000E+00 0. -1.
          2   -1    0    0  501    0  0.00000000000E+00 -0.00000000000E+00 -0.18051495084E+04  0.18051495084E+04  0.00000000000E+00 0.  1.
         23    2    1    2    0    0  0.37309947544E+03 -0.74616488844E+03 -0.10198300209E+04  0.13208585141E+04  0.92998298035E+02 0.  0.
         13    1    3    3    0    0  0.10196220150E+03 -0.29288460401E+03 -0.34493508175E+03  0.46385115330E+03  0.00000000000E+00 0.  1.
        -13    1    3    3    0    0  0.27113727394E+03 -0.45328028443E+03 -0.67489493913E+03  0.85700736078E+03  0.00000000000E+00 0. -1.
         22    1    1    2    0    0 -0.37309947544E+03  0.74616488844E+03 -0.36071910610E+03  0.90889137570E+03  0.00000000000E+00 0. -1.
<mgrwt>
<rscale>  0 0.17509622E+04</rscale>
<asrwt>0</asrwt>
<pdfrwt beam="1">  1        2 0.27771532E+00 0.17509622E+04</pdfrwt>
<pdfrwt beam="2">  1       -2 0.65323134E-01 0.17509622E+04</pdfrwt>
<totfact> 0.17546364E+01</totfact>
</mgrwt>
</event>
<event>
 6    1  0.5196787E-004  0.2254504E+04  0.7818608E-02  0.8496079E-01
          2   -1    0    0  501    0  0.00000000000E+00  0.00000000000E+00  0.97848656370E+03  0.97848656370E+03  0.00000000000E+00 0.  1.
         -2   -1    0    0    0  501 -0.00000000000E+00 -0.00000000000E+00 -0.12986346123E+04  0.12986346123E+04  0.00000000000E+00 0. -1.
         23    2    1    2    0    0 -0.13691872123E+03 -0.94664076198E+03 -0.75935995061E+03  0.12246086757E+04  0.90351566404E+02 0.  0.
         13    1    3    3    0    0 -0.98729377678E+02 -0.48709135176E+03 -0.34866367736E+03  0.60710117352E+03  0.00000000000E+00 0. -1.
        -13    1    3    3    0    0 -0.38189343550E+02 -0.45954941022E+03 -0.41069627324E+03  0.61750750218E+03  0.00000000000E+00 0.  1.
         22    1    1    2    0    0  0.13691872123E+03  0.94664076198E+03  0.43921190200E+03  0.10525125003E+04  0.00000000000E+00 0.  1.
<mgrwt>
<rscale>  0 0.22545035E+04</rscale>
<asrwt>0</asrwt>
<pdfrwt beam="1">  1        2 0.15053639E+00 0.22545035E+04</pdfrwt>
<pdfrwt beam="2">  1       -2 0.19978994E+00 0.22545035E+04</pdfrwt>
<totfact> 0.31569835E+00</totfact>
</mgrwt>
</event>
<event>
 6    1  0.5196787E-004  0.3258415E+04  0.7818608E-02  0.8173558E-01
         -2   -1    0    0    0  501 -0.00000000000E+00  0.00000000000E+00  0.11153755894E+04  0.11153755894E+04  0.00000000000E+00 0. -1.
          2   -1    0    0  501    0  0.00000000000E+00 -0.00000000000E+00 -0.23797521911E+04  0.23797521911E+04  0.00000000000E+00 0.  1.
         23    2    1    2    0    0 -0.14244002627E+04  0.78346398568E+03 -0.72543592417E+03  0.17824722463E+04  0.90653755355E+02 0.  0.
         13    1    3    3    0    0 -0.63969442320E+03  0.33354217702E+03 -0.27590694042E+03  0.77238848949E+03  0.00000000000E+00 0.  1.
        -13    1    3    3    0    0 -0.78470583951E+03  0.44992180866E+03 -0.44952898375E+03  0.10100837568E+04  0.00000000000E+00 0. -1.
         22    1    1    2    0    0  0.14244002627E+04 -0.78346398568E+03 -0.53894067753E+03  0.17126555343E+04  0.00000000000E+00 0.  1.
<mgrwt>
<rscale>  0 0.32584153E+04</rscale>
<asrwt>0</asrwt>
<pdfrwt beam="1">  1        2 0.36611572E+00 0.32584153E+04</pdfrwt>
<pdfrwt beam="2">  1       -2 0.17159625E+00 0.32584153E+04</pdfrwt>
<totfact> 0.71044682E-01</totfact>
</mgrwt>
</event>
<event>
 6    1  0.5196787E-004  0.3269262E+04  0.7818608E-02  0.8170761E-01
          2   -1    0    0  501    0  0.00000000000E+00  0.00000000000E+00  0.24019993143E+04  0.24019993143E+04  0.00000000000E+00 0.  1.
         -2   -1    0    0    0  501 -0.00000000000E+00 -0.00000000000E+00 -0.11124144026E+04  0.11124144026E+04  0.00000000000E+00 0. -1.
         23    2    1    2    0    0 -0.13277912935E+04 -0.94304352735E+03  0.77820138555E+03  0.18074064163E+04  0.93593502062E+02 0.  0.
         11    1    3    3    0    0 -0.55850720800E+03 -0.41215492045E+03  0.38114489401E+03  0.79187966894E+03  0.00000000000E+00 0. -1.
        -11    1    3    3    0    0 -0.76928408547E+03 -0.53088860689E+03  0.39705649154E+03  0.10155267473E+04  0.00000000000E+00 0.  1.
         22    1    1    2    0    0  0.13277912935E+04  0.94304352735E+03  0.51138352621E+03  0.17070073006E+04  0.00000000000E+00 0. -1.
<mgrwt>
<rscale>  0 0.32692621E+04</rscale>
<asrwt>0</asrwt>
<pdfrwt beam="1">  1        2 0.36953835E+00 0.32692621E+04</pdfrwt>
<pdfrwt beam="2">  1       -2 0.17114068E+00 0.32692621E+04</pdfrwt>
<totfact> 0.69442537E-01</totfact>
</mgrwt>
</event>
<event>
 6    1  0.5196787E-004  0.2485391E+04  0.7818608E-02  0.8408209E-01
         -2   -1    0    0    0  501 -0.00000000000E+00  0.00000000000E+00  0.83012941630E+03  0.83012941630E+03  0.00000000000E+00 0. -1.
          2   -1    0    0  501    0  0.00000000000E+00 -0.00000000000E+00 -0.18603023739E+04  0.18603023739E+04  0.00000000000E+00 0.  1.
         23    2    1    2    0    0  0.10133362586E+04  0.48869826043E+03  0.51379406771E+02  0.11298447597E+04  0.90735741848E+02 0.  0.
         11    1    3    3    0    0  0.29129158634E+03  0.10366792805E+03  0.37337980420E+02  0.31143531007E+03  0.00000000000E+00 0.  1.
        -11    1    3    3    0    0  0.72204467230E+03  0.38503033238E+03  0.14041426351E+02  0.81840944967E+03  0.00000000000E+00 0. -1.
         22    1    1    2    0    0 -0.10133362586E+04 -0.48869826043E+03 -0.10815523644E+04  0.15605870305E+04  0.00000000000E+00 0.  1.
<mgrwt>
<rscale>  0 0.24853907E+04</rscale>
<asrwt>0</asrwt>
<pdfrwt beam="1">  1        2 0.28620036E+00 0.24853907E+04</pdfrwt>
<pdfrwt beam="2">  1       -2 0.12771222E+00 0.24853907E+04</pdfrwt>
<totfact> 0.32406652E+00</totfact>
</mgrwt>
</event>
<event>
 6    1  0.5196787E-004  0.1295758E+04  0.7818608E-02  0.9032936E-01
          2   -1    0    0  501    0  0.00000000000E+00  0.00000000000E+00  0.41973250271E+04  0.41973250271E+04  0.00000000000E+00 0. -1.
         -2   -1    0    0    0  501 -0.00000000000E+00 -0.00000000000E+00 -0.10000352221E+03  0.10000352221E+03  0.00000000000E+00 0.  1.
         23    2    1    2    0    0 -0.61414756258E+03 -0.12452222625E+03  0.25613258472E+04  0.26384235870E+04  0.90586508687E+02 0.  0.
         13    1    3    3    0    0 -0.14394113594E+03  0.35438308510E+01  0.67260666446E+03  0.68784542916E+03  0.00000000000E+00 0. -1.
        -13    1    3    3    0    0 -0.47020642664E+03 -0.12806605710E+03  0.18887191827E+04  0.19505781579E+04  0.00000000000E+00 0.  1.
         22    1    1    2    0    0  0.61414756258E+03  0.12452222625E+03  0.15359956577E+04  0.16589049623E+04  0.00000000000E+00 0. -1.
<mgrwt>
<rscale>  0 0.12957581E+04</rscale>
<asrwt>0</asrwt>
<pdfrwt beam="1">  1        2 0.64574218E+00 0.12957581E+04</pdfrwt>
<pdfrwt beam="2">  1       -2 0.15385161E-01 0.12957581E+04</pdfrwt>
<totfact> 0.80208890E+00</totfact>
</mgrwt>
</event>
<event>
 6    1  0.5196787E-004  0.6944374E+03  0.7818608E-02  0.9726793E-01
         -2   -1    0    0    0  501 -0.00000000000E+00  0.00000000000E+00  0.44788582227E+02  0.44788582227E+02  0.00000000000E+00 0. -1.
          2   -1    0    0  501    0  0.00000000000E+00 -0.00000000000E+00 -0.26917756327E+04  0.26917756327E+04  0.00000000000E+00 0.  1.
         23    2    1    2    0    0 -0.13349676214E+03 -0.18317808068E+03 -0.23514875872E+04  0.23641457305E+04  0.91189733977E+02 0.  0.
         11    1    3    3    0    0 -0.34830254363E+02 -0.92881341235E+02 -0.66434885153E+03  0.67171384287E+03  0.00000000000E+00 0.  1.
        -11    1    3    3    0    0 -0.98666507780E+02 -0.90296739447E+02 -0.16871387357E+04  0.16924318877E+04  0.00000000000E+00 0. -1.
         22    1    1    2    0    0  0.13349676214E+03  0.18317808068E+03 -0.29549946329E+03  0.37241848444E+03  0.00000000000E+00 0. -1.
<mgrwt>
<rscale>  0 0.69443737E+03</rscale>
<asrwt>0</asrwt>
<pdfrwt beam="1">  1        2 0.41411928E+00 0.69443737E+03</pdfrwt>
<pdfrwt beam="2">  1       -2 0.68905519E-02 0.69443737E+03</pdfrwt>
<totfact> 0.35190837E+02</totfact>
</mgrwt>
</event>
<event>
 6    1  0.5196787E-004  0.3005345E+04  0.7818608E-02  0.8242206E-01
         -2   -1    0    0    0  501 -0.00000000000E+00  0.00000000000E+00  0.11937069112E+04  0.11937069112E+04  0.00000000000E+00 0. -1.
          2   -1    0    0  501    0  0.00000000000E+00 -0.00000000000E+00 -0.18916066446E+04  0.18916066446E+04  0.00000000000E+00 0.  1.
         23    2    1    2    0    0 -0.11116662034E+04 -0.82709003539E+03  0.24401358482E+03  0.14098791723E+04  0.91307044929E+02 0.  0.
         13    1    3    3    0    0 -0.18761313761E+03 -0.12209296030E+03  0.86600239530E+01  0.22400976848E+03  0.00000000000E+00 0.  1.
        -13    1    3    3    0    0 -0.92405306577E+03 -0.70499707509E+03  0.23535356087E+03  0.11858694038E+04  0.00000000000E+00 0. -1.
         22    1    1    2    0    0  0.11116662034E+04  0.82709003539E+03 -0.94191331825E+03  0.16754343835E+04  0.00000000000E+00 0. -1.
<mgrwt>
<rscale>  0 0.30053445E+04</rscale>
<asrwt>0</asrwt>
<pdfrwt beam="1">  1        2 0.29101640E+00 0.30053445E+04</pdfrwt>
<pdfrwt beam="2">  1       -2 0.18364722E+00 0.30053445E+04</pdfrwt>
<totfact> 0.11241443E+00</totfact>
</mgrwt>
</event>
<event>
 6    1  0.5196787E-004  0.1633221E+04  0.7818608E-02  0.8800395E-01
         -2   -1    0    0    0  501 -0.00000000000E+00  0.00000000000E+00  0.19872583248E+03  0.19872583248E+03  0.00000000000E+00 0. -1.
          2   -1    0    0  501    0  0.00000000000E+00 -0.00000000000E+00 -0.33556434645E+04  0.33556434645E+04  0.00000000000E+00 0.  1.
         23    2    1    2    0    0 -0.51655836363E+03  0.62892860051E+03 -0.15414306550E+04  0.17454519687E+04  0.90611165650E+02 0.  0.
         11    1    3    3    0    0 -0.48702948990E+03  0.58121751524E+03 -0.13809840440E+04  0.15754772146E+04  0.00000000000E+00 0. -1.
        -11    1    3    3    0    0 -0.29528873724E+02  0.47711085270E+02 -0.16044661105E+03  0.16997475412E+03  0.00000000000E+00 0.  1.
         22    1    1    2    0    0  0.51655836363E+03 -0.62892860051E+03 -0.16154869770E+04  0.18089173282E+04  0.00000000000E+00 0. -1.
<mgrwt>
<rscale>  0 0.16332214E+04</rscale>
<asrwt>0</asrwt>
<pdfrwt beam="1">  1        2 0.51625288E+00 0.16332214E+04</pdfrwt>
<pdfrwt beam="2">  1       -2 0.30573203E-01 0.16332214E+04</pdfrwt>
<totfact> 0.97660196E+00</totfact>
</mgrwt>
</event>
<event>
 6    1  0.5196787E-004  0.2189344E+04  0.7818608E-02  0.8522876E-01
          2   -1    0    0  501    0  0.00000000000E+00  0.00000000000E+00  0.10435175705E+04  0.10435175705E+04  0.00000000000E+00 0.  1.
         -2   -1    0    0    0  501 -0.00000000000E+00 -0.00000000000E+00 -0.11483344035E+04  0.11483344035E+04  0.00000000000E+00 0. -1.
         23    2    1    2    0    0 -0.20441281401E+03  0.31751777675E+03  0.97416611047E+03  0.10486956727E+04  0.90337511499E+02 0.  0.
         11    1    3    3    0    0 -0.29432362965E+02  0.11901901452E+03  0.27330492477E+03  0.29954527489E+03  0.00000000000E+00 0.  1.
        -11    1    3    3    0    0 -0.17498045104E+03  0.19849876223E+03  0.70086118570E+03  0.74915039777E+03  0.00000000000E+00 0. -1.
         22    1    1    2    0    0  0.20441281401E+03 -0.31751777675E+03 -0.10789829435E+04  0.11431563014E+04  0.00000000000E+00 0. -1.
<mgrwt>
<rscale>  0 0.21893443E+04</rscale>
<asrwt>0</asrwt>
<pdfrwt beam="1">  1        2 0.16054116E+00 0.21893443E+04</pdfrwt>
<pdfrwt beam="2">  1       -2 0.17666683E+00 0.21893443E+04</pdfrwt>
<totfact> 0.41340729E+00</totfact>
</mgrwt>
</event>
<event>
 6    1  0.5196787E-004  0.1411939E+04  0.7818608E-02  0.8945221E-01
         -1   -1    0    0    0  501 -0.00000000000E+00  0.00000000000E+00  0.42276722449E+03  0.42276722449E+03  0.00000000000E+00 0. -1.
          1   -1    0    0  501    0  0.00000000000E+00 -0.00000000000E+00 -0.11788834219E+04  0.11788834219E+04  0.00000000000E+00 0.  1.
         23    2    1    2    0    0 -0.23419670133E+02 -0.68692765678E+03 -0.54356234133E+03  0.88220834269E+03  0.10204633458E+03 0.  0.
         13    1    3    3    0    0 -0.13940784829E+01 -0.57300762962E+03 -0.49194630356E+03  0.75521576562E+03  0.00000000000E+00 0.  1.
        -13    1    3    3    0    0 -0.22025591651E+02 -0.11392002716E+03 -0.51616037774E+02  0.12699257707E+03  0.00000000000E+00 0. -1.
         22    1    1    2    0    0  0.23419670133E+02  0.68692765678E+03 -0.21255385605E+03  0.71944230367E+03  0.00000000000E+00 0. -1.
<mgrwt>
<rscale>  0 0.14119395E+04</rscale>
<asrwt>0</asrwt>
<pdfrwt beam="1">  1        1 0.18136668E+00 0.14119395E+04</pdfrwt>
<pdfrwt beam="2">  1       -1 0.65041112E-01 0.14119395E+04</pdfrwt>
<totfact> 0.25855019E+01</totfact>
</mgrwt>
</event>
<event>
 6    1  0.5196787E-004  0.4165696E+04  0.7818608E-02  0.7971930E-01
         -2   -1    0    0    0  501 -0.00000000000E+00  0.00000000000E+00  0.19032249561E+04  0.19032249561E+04  0.00000000000E+00 0. -1.
          2   -1    0    0  501    0  0.00000000000E+00 -0.00000000000E+00 -0.22794236129E+04  0.22794236129E+04  0.00000000000E+00 0.  1.
         23    2    1    2    0    0  0.13205772003E+04 -0.14274149979E+04 -0.93465681882E+03  0.21594547482E+04  0.90684743083E+02 0.  0.
         13    1    3    3    0    0  0.10749344334E+04 -0.11099704318E+04 -0.75303892368E+03  0.17188909261E+04  0.00000000000E+00 0.  1.
        -13    1    3    3    0    0  0.24564276692E+03 -0.31744456610E+03 -0.18161789514E+03  0.44056382208E+03  0.00000000000E+00 0. -1.
         22    1    1    2    0    0 -0.13205772003E+04  0.14274149979E+04  0.55845816198E+03  0.20231938208E+04  0.00000000000E+00 0. -1.
<mgrwt>
<rscale>  0 0.41656961E+04</rscale>
<asrwt>0</asrwt>
<pdfrwt beam="1">  1        2 0.35068056E+00 0.41656961E+04</pdfrwt>
<pdfrwt beam="2">  1       -2 0.29280384E+00 0.41656961E+04</pdfrwt>
<totfact> 0.12751782E-01</totfact>
</mgrwt>
</event>
<event>
 6    1  0.5196787E-004  0.1477378E+04  0.7818608E-02  0.8899637E-01
         -2   -1    0    0    0  501 -0.00000000000E+00  0.00000000000E+00  0.17787376832E+03  0.17787376832E+03  0.00000000000E+00 0. -1.
          2   -1    0    0  501    0  0.00000000000E+00 -0.00000000000E+00 -0.30676879316E+04  0.30676879316E+04  0.00000000000E+00 0.  1.
         23    2    1    2    0    0  0.60622150752E+03 -0.16046298006E+03 -0.22965737792E+04  0.23823195337E+04  0.89119882980E+02 0.  0.
         13    1    3    3    0    0  0.10450889365E+03 -0.22160615373E+02 -0.53107989831E+03  0.54171861710E+03  0.00000000000E+00 0. -1.
        -13    1    3    3    0    0  0.50171261387E+03 -0.13830236468E+03 -0.17654938809E+04  0.18406009166E+04  0.00000000000E+00 0.  1.
         22    1    1    2    0    0 -0.60622150752E+03  0.16046298006E+03 -0.59324038413E+03  0.86324216620E+03  0.00000000000E+00 0. -1.
<mgrwt>
<rscale>  0 0.14773777E+04</rscale>
<asrwt>0</asrwt>
<pdfrwt beam="1">  1        2 0.47195200E+00 0.14773777E+04</pdfrwt>
<pdfrwt beam="2">  1       -2 0.27365194E-01 0.14773777E+04</pdfrwt>
<totfact> 0.18731144E+01</totfact>
</mgrwt>
</event>
<event>
 6    1  0.5196787E-004  0.3276314E+04  0.7818608E-02  0.8168948E-01
          2   -1    0    0  501    0  0.00000000000E+00  0.00000000000E+00  0.14616031123E+04  0.14616031123E+04  0.00000000000E+00 0.  1.
         -2   -1    0    0    0  501 -0.00000000000E+00 -0.00000000000E+00 -0.18360379836E+04  0.18360379836E+04  0.00000000000E+00 0. -1.
         23    2    1    2    0    0 -0.13793474417E+03 -0.26832201025E+03  0.14320042446E+04  0.14661813026E+04  0.89603351970E+02 0.  0.
         11    1    3    3    0    0 -0.12501665776E+03 -0.23552880236E+03  0.10805888456E+04  0.11130028009E+04  0.00000000000E+00 0.  1.
        -11    1    3    3    0    0 -0.12918086408E+02 -0.32793207887E+02  0.35141539899E+03  0.35317850174E+03  0.00000000000E+00 0. -1.
         22    1    1    2    0    0  0.13793474417E+03  0.26832201025E+03 -0.18064391159E+04  0.18314597933E+04  0.00000000000E+00 0. -1.
<mgrwt>
<rscale>  0 0.32763143E+04</rscale>
<asrwt>0</asrwt>
<pdfrwt beam="1">  1        2 0.22486202E+00 0.32763143E+04</pdfrwt>
<pdfrwt beam="2">  1       -2 0.28246738E+00 0.32763143E+04</pdfrwt>
<totfact> 0.45427332E-01</totfact>
</mgrwt>
</event>
<event>
 6    1  0.5196787E-004  0.5033138E+04  0.7818608E-02  0.7823416E-01
         -2   -1    0    0    0  501 -0.00000000000E+00  0.00000000000E+00  0.16509345871E+04  0.16509345871E+04  0.00000000000E+00 0. -1.
          2   -1    0    0  501    0  0.00000000000E+00 -0.00000000000E+00 -0.38360819397E+04  0.38360819397E+04  0.00000000000E+00 0.  1.
         23    2    1    2    0    0 -0.68181622138E+03  0.14869980185E+04 -0.31765499105E+04  0.35741873399E+04  0.91155581033E+02 0.  0.
         13    1    3    3    0    0 -0.35500311466E+03  0.67100068349E+03 -0.14401127433E+04  0.16279415966E+04  0.00000000000E+00 0. -1.
        -13    1    3    3    0    0 -0.32681310672E+03  0.81599733496E+03 -0.17364371672E+04  0.19462457433E+04  0.00000000000E+00 0.  1.
         22    1    1    2    0    0  0.68181622138E+03 -0.14869980185E+04  0.99140255791E+03  0.19128291869E+04  0.00000000000E+00 0. -1.
<mgrwt>
<rscale>  0 0.50331383E+04</rscale>
<asrwt>0</asrwt>
<pdfrwt beam="1">  1        2 0.59016645E+00 0.50331383E+04</pdfrwt>
<pdfrwt beam="2">  1       -2 0.25398994E+00 0.50331383E+04</pdfrwt>
<totfact> 0.20250157E-02</totfact>
</mgrwt>
</event>
<event>
 6    1  0.5196787E-004  0.1769605E+04  0.7818608E-02  0.8722632E-01
         -2   -1    0    0    0  501 -0.00000000000E+00  0.00000000000E+00  0.12879772509E+04  0.12879772509E+04  0.00000000000E+00 0. -1.
          2   -1    0    0  501    0  0.00000000000E+00 -0.00000000000E+00 -0.60783322601E+03  0.60783322601E+03  0.00000000000E+00 0.  1.
         23    2    1    2    0    0  0.69273621540E+03  0.37461902927E+03  0.76734066123E+03  0.11034556735E+04  0.92627489010E+02 0.  0.
         11    1    3    3    0    0  0.56382774534E+02  0.61452595521E+02  0.71169955479E+02  0.10963850292E+03  0.00000000000E+00 0. -1.
        -11    1    3    3    0    0  0.63635344087E+03  0.31316643375E+03  0.69617070575E+03  0.99381717055E+03  0.00000000000E+00 0.  1.
         22    1    1    2    0    0 -0.69273621540E+03 -0.37461902927E+03 -0.87196636287E+02  0.79235480348E+03  0.00000000000E+00 0.  1.
<mgrwt>
<rscale>  0 0.17696049E+04</rscale>
<asrwt>0</asrwt>
<pdfrwt beam="1">  1        2 0.93512805E-01 0.17696049E+04</pdfrwt>
<pdfrwt beam="2">  1       -2 0.19815035E+00 0.17696049E+04</pdfrwt>
<totfact> 0.63143112E+00</totfact>
</mgrwt>
</event>
<event>
 6    1  0.5196787E-004  0.1329989E+04  0.7818608E-02  0.9006116E-01
          1   -1    0    0  501    0  0.00000000000E+00  0.00000000000E+00  0.11815321962E+04  0.11815321962E+04  0.00000000000E+00 0.  1.
         -1   -1    0    0    0  501 -0.00000000000E+00 -0.00000000000E+00 -0.37427462242E+03  0.37427462242E+03  0.00000000000E+00 0. -1.
         23    2    1    2    0    0  0.56195462951E+03  0.55314946130E+02  0.80972550476E+03  0.99113094734E+03  0.88500919844E+02 0.  0.
         13    1    3    3    0    0  0.20332940632E+03  0.25929868175E+02  0.36962597933E+03  0.42265656286E+03  0.00000000000E+00 0.  1.
        -13    1    3    3    0    0  0.35862522319E+03  0.29385077955E+02  0.44009952544E+03  0.56847438448E+03  0.00000000000E+00 0. -1.
         22    1    1    2    0    0 -0.56195462951E+03 -0.55314946130E+02 -0.24679309959E+01  0.56467587126E+03  0.00000000000E+00 0. -1.
<mgrwt>
<rscale>  0 0.13299887E+04</rscale>
<asrwt>0</asrwt>
<pdfrwt beam="1">  1        1 0.18177418E+00 0.13299887E+04</pdfrwt>
<pdfrwt beam="2">  1       -1 0.57580712E-01 0.13299887E+04</pdfrwt>
<totfact> 0.33012588E+01</totfact>
</mgrwt>
</event>
<event>
 6    1  0.5196787E-004  0.1964356E+04  0.7818608E-02  0.8623469E-01
          2   -1    0    0  501    0  0.00000000000E+00  0.00000000000E+00  0.23148442035E+04  0.23148442035E+04  0.00000000000E+00 0.  1.
         -2   -1    0    0    0  501 -0.00000000000E+00 -0.00000000000E+00 -0.41673381812E+03  0.41673381812E+03  0.00000000000E+00 0. -1.
         23    2    1    2    0    0 -0.66761772853E+02 -0.97718820572E+03  0.90597519159E+03  0.13374165653E+04  0.92401826437E+02 0.  0.
         13    1    3    3    0    0 -0.37728579619E+02 -0.53339461353E+03  0.43171851318E+03  0.68725114338E+03  0.00000000000E+00 0. -1.
        -13    1    3    3    0    0 -0.29033193234E+02 -0.44379359219E+03  0.47425667841E+03  0.65016542187E+03  0.00000000000E+00 0.  1.
         22    1    1    2    0    0  0.66761772853E+02  0.97718820572E+03  0.99213519382E+03  0.13941614564E+04  0.00000000000E+00 0. -1.
<mgrwt>
<rscale>  0 0.19643562E+04</rscale>
<asrwt>0</asrwt>
<pdfrwt beam="1">  1        2 0.35612987E+00 0.19643562E+04</pdfrwt>
<pdfrwt beam="2">  1       -2 0.64112897E-01 0.19643562E+04</pdfrwt>
<totfact> 0.93178446E+00</totfact>
</mgrwt>
</event>
<event>
 6    1  0.5196787E-004  0.1578240E+04  0.7818608E-02  0.8834028E-01
         -2   -1    0    0    0  501 -0.00000000000E+00  0.00000000000E+00  0.65017557109E+03  0.65017557109E+03  0.00000000000E+00 0. -1.
          2   -1    0    0  501    0  0.00000000000E+00 -0.00000000000E+00 -0.95775778950E+03  0.95775778950E+03  0.00000000000E+00 0.  1.
         23    2    1    2    0    0  0.16602656340E+03  0.66407853156E+03 -0.54891144184E+03  0.88212008576E+03  0.90922818275E+02 0.  0.
         13    1    3    3    0    0  0.27047609468E+01  0.61875938846E+02 -0.82229721927E+02  0.10294500817E+03  0.00000000000E+00 0.  1.
        -13    1    3    3    0    0  0.16332180245E+03  0.60220259271E+03 -0.46668171992E+03  0.77917507759E+03  0.00000000000E+00 0. -1.
         22    1    1    2    0    0 -0.16602656340E+03 -0.66407853156E+03  0.24132922344E+03  0.72581327483E+03  0.00000000000E+00 0.  1.
<mgrwt>
<rscale>  0 0.15782404E+04</rscale>
<asrwt>0</asrwt>
<pdfrwt beam="1">  1        2 0.14734735E+00 0.15782404E+04</pdfrwt>
<pdfrwt beam="2">  1       -2 0.10002701E+00 0.15782404E+04</pdfrwt>
<totfact> 0.21279731E+01</totfact>
</mgrwt>
</event>
<event>
 6    1  0.5196787E-004  0.3970689E+04  0.7818608E-02  0.8010486E-01
          2   -1    0    0  501    0  0.00000000000E+00  0.00000000000E+00  0.27957077284E+04  0.27957077284E+04  0.00000000000E+00 0.  1.
         -2   -1    0    0    0  501 -0.00000000000E+00 -0.00000000000E+00 -0.14098727501E+04  0.14098727501E+04  0.00000000000E+00 0. -1.
         23    2    1    2    0    0 -0.14420061154E+04 -0.25919932354E+03  0.21106650670E+04  0.25709720900E+04  0.91785272788E+02 0.  0.
         13    1    3    3    0    0 -0.12979604525E+04 -0.20629556814E+03  0.18742213109E+04  0.22890969223E+04  0.00000000000E+00 0.  1.
        -13    1    3    3    0    0 -0.14404566293E+03 -0.52903755399E+02  0.23644375613E+03  0.28187516769E+03  0.00000000000E+00 0. -1.
         22    1    1    2    0    0  0.14420061154E+04  0.25919932354E+03 -0.72483008869E+03  0.16346083885E+04  0.00000000000E+00 0. -1.
<mgrwt>
<rscale>  0 0.39706887E+04</rscale>
<asrwt>0</asrwt>
<pdfrwt beam="1">  1        2 0.43010888E+00 0.39706887E+04</pdfrwt>
<pdfrwt beam="2">  1       -2 0.21690350E+00 0.39706887E+04</pdfrwt>
<totfact> 0.19018292E-01</totfact>
</mgrwt>
</event>
<event>
 6    1  0.5196787E-004  0.1696425E+04  0.7818608E-02  0.8763406E-01
         -2   -1    0    0    0  501 -0.00000000000E+00  0.00000000000E+00  0.26020778459E+03  0.26020778459E+03  0.00000000000E+00 0. -1.
          2   -1    0    0  501    0  0.00000000000E+00 -0.00000000000E+00 -0.27649605502E+04  0.27649605502E+04  0.00000000000E+00 0.  1.
         23    2    1    2    0    0  0.41691665563E+03  0.15572952146E+03 -0.25386088897E+04  0.25788305494E+04  0.88094981854E+02 0.  0.
         13    1    3    3    0    0  0.18806651781E+03  0.62247208654E+02 -0.88922604571E+03  0.91102507675E+03  0.00000000000E+00 0. -1.
        -13    1    3    3    0    0  0.22885013782E+03  0.93482312806E+02 -0.16493828440E+04  0.16678054726E+04  0.00000000000E+00 0.  1.
         22    1    1    2    0    0 -0.41691665563E+03 -0.15572952146E+03  0.33856124058E+02  0.44633778546E+03  0.00000000000E+00 0. -1.
<mgrwt>
<rscale>  0 0.16964248E+04</rscale>
<asrwt>0</asrwt>
<pdfrwt beam="1">  1        2 0.42537853E+00 0.16964248E+04</pdfrwt>
<pdfrwt beam="2">  1       -2 0.40031968E-01 0.16964248E+04</pdfrwt>
<totfact> 0.13688810E+01</totfact>
</mgrwt>
</event>
<event>
 6    1  0.5196787E-004  0.2782434E+04  0.7818608E-02  0.8308743E-01
         -2   -1    0    0    0  501 -0.00000000000E+00  0.00000000000E+00  0.14971831219E+04  0.14971831219E+04  0.00000000000E+00 0. -1.
          2   -1    0    0  501    0  0.00000000000E+00 -0.00000000000E+00 -0.12927508184E+04  0.12927508184E+04  0.00000000000E+00 0.  1.
         23    2    1    2    0    0  0.36858694643E+03 -0.26771793227E+03  0.14188173028E+04  0.14929142200E+04  0.90670287881E+02 0.  0.
         13    1    3    3    0    0  0.29986119915E+03 -0.16958310722E+03  0.10711069241E+04  0.11251423074E+04  0.00000000000E+00 0.  1.
        -13    1    3    3    0    0  0.68725747281E+02 -0.98134825043E+02  0.34771037872E+03  0.36777191259E+03  0.00000000000E+00 0. -1.
         22    1    1    2    0    0 -0.36858694643E+03  0.26771793227E+03 -0.12143849993E+04  0.12970197203E+04  0.00000000000E+00 0.  1.
<mgrwt>
<rscale>  0 0.27824340E+04</rscale>
<asrwt>0</asrwt>
<pdfrwt beam="1">  1        2 0.19888474E+00 0.27824340E+04</pdfrwt>
<pdfrwt beam="2">  1       -2 0.23033586E+00 0.27824340E+04</pdfrwt>
<totfact> 0.12377420E+00</totfact>
</mgrwt>
</event>
<event>
 6    1  0.9539419E-004  0.3808585E+04  0.7818608E-02  0.8044315E-01
          2   -1    0    0  501    0  0.00000000000E+00  0.00000000000E+00  0.22860698494E+04  0.22860698494E+04  0.00000000000E+00 0.  1.
         -2   -1    0    0    0  501 -0.00000000000E+00 -0.00000000000E+00 -0.15862728485E+04  0.15862728485E+04  0.00000000000E+00 0. -1.
         23    2    1    2    0    0 -0.84712212086E+03  0.45492032300E+03  0.20200775665E+04  0.22390303702E+04  0.89304176478E+02 0.  0.
         11    1    3    3    0    0 -0.46526153915E+03  0.20016261652E+03  0.10399291319E+04  0.11567134357E+04  0.00000000000E+00 0.  1.
        -11    1    3    3    0    0 -0.38186058170E+03  0.25475770648E+03  0.98014843458E+03  0.10823169345E+04  0.00000000000E+00 0. -1.
         22    1    1    2    0    0  0.84712212086E+03 -0.45492032300E+03 -0.13202805656E+04  0.16333123277E+04  0.00000000000E+00 0. -1.
<mgrwt>
<rscale>  0 0.38085853E+04</rscale>
<asrwt>0</asrwt>
<pdfrwt beam="1">  1        2 0.35170305E+00 0.38085853E+04</pdfrwt>
<pdfrwt beam="2">  1       -2 0.24404198E+00 0.38085853E+04</pdfrwt>
<totfact> 0.25871258E-01</totfact>
</mgrwt>
</event>
<event>
 6    1  0.5196787E-004  0.2327132E+04  0.7818608E-02  0.8467300E-01
         -2   -1    0    0    0  501 -0.00000000000E+00  0.00000000000E+00  0.38812264503E+04  0.38812264503E+04  0.00000000000E+00 0. -1.
          2   -1    0    0  501    0  0.00000000000E+00 -0.00000000000E+00 -0.34882923721E+03  0.34882923721E+03  0.00000000000E+00 0.  1.
         23    2    1    2    0    0 -0.14483448474E+03 -0.40654960433E+03  0.37295684702E+04  0.37555705841E+04  0.91486773513E+02 0.  0.
         11    1    3    3    0    0 -0.44655435541E+02 -0.20323519384E+03  0.21065673047E+04  0.21168194210E+04  0.00000000000E+00 0.  1.
        -11    1    3    3    0    0 -0.10017904920E+03 -0.20331441050E+03  0.16230011655E+04  0.16387511631E+04  0.00000000000E+00 0. -1.
         22    1    1    2    0    0  0.14483448474E+03  0.40654960433E+03 -0.19717125707E+03  0.47448510342E+03  0.00000000000E+00 0.  1.
<mgrwt>
<rscale>  0 0.23271315E+04</rscale>
<asrwt>0</asrwt>
<pdfrwt beam="1">  1        2 0.53666039E-01 0.23271315E+04</pdfrwt>
<pdfrwt beam="2">  1       -2 0.59711173E+00 0.23271315E+04</pdfrwt>
<totfact> 0.42919908E-02</totfact>
</mgrwt>
</event>
<event>
 6    1  0.5196787E-004  0.3389197E+04  0.7818608E-02  0.8140563E-01
          2   -1    0    0  501    0  0.00000000000E+00  0.00000000000E+00  0.13176559633E+04  0.13176559633E+04  0.00000000000E+00 0.  1.
         -2   -1    0    0    0  501 -0.00000000000E+00 -0.00000000000E+00 -0.21793733077E+04  0.21793733077E+04  0.00000000000E+00 0. -1.
         23    2    1    2    0    0  0.26327796906E+03 -0.10835421223E+04  0.88406046670E+03  0.14255276453E+04  0.84778174278E+02 0.  0.
         13    1    3    3    0    0  0.23113635738E+03 -0.10145869792E+04  0.80326800461E+03  0.13145532478E+04  0.00000000000E+00 0. -1.
        -13    1    3    3    0    0  0.32141611683E+02 -0.68955143081E+02  0.80792462092E+02  0.11097439745E+03  0.00000000000E+00 0.  1.
         22    1    1    2    0    0 -0.26327796906E+03  0.10835421223E+04 -0.17457778111E+04  0.20715016258E+04  0.00000000000E+00 0. -1.
<mgrwt>
<rscale>  0 0.33891971E+04</rscale>
<asrwt>0</asrwt>
<pdfrwt beam="1">  1        2 0.20271631E+00 0.33891971E+04</pdfrwt>
<pdfrwt beam="2">  1       -2 0.33528820E+00 0.33891971E+04</pdfrwt>
<totfact> 0.25750315E-01</totfact>
</mgrwt>
</event>
<event>
 6    1  0.5196787E-004  0.1079603E+04  0.7818608E-02  0.9225304E-01
          2   -1    0    0  501    0  0.00000000000E+00  0.00000000000E+00  0.71582321435E+03  0.71582321435E+03  0.00000000000E+00 0. -1.
         -2   -1    0    0    0  501 -0.00000000000E+00 -0.00000000000E+00 -0.40706354662E+03  0.40706354662E+03  0.00000000000E+00 0.  1.
         23    2    1    2    0    0  0.13190742531E+03 -0.29425016664E+03 -0.29000293511E+03  0.44281368843E+03  0.89440096547E+02 0.  0.
         11    1    3    3    0    0  0.11134279014E+03 -0.15479839341E+03 -0.19558264748E+03  0.27315257918E+03  0.00000000000E+00 0.  1.
        -11    1    3    3    0    0  0.20564635175E+02 -0.13945177322E+03 -0.94420287636E+02  0.16966110925E+03  0.00000000000E+00 0. -1.
         22    1    1    2    0    0 -0.13190742531E+03  0.29425016664E+03  0.59876260285E+03  0.68007307254E+03  0.00000000000E+00 0. -1.
<mgrwt>
<rscale>  0 0.10796028E+04</rscale>
<asrwt>0</asrwt>
<pdfrwt beam="1">  1        2 0.11012665E+00 0.10796028E+04</pdfrwt>
<pdfrwt beam="2">  1       -2 0.62625161E-01 0.10796028E+04</pdfrwt>
<totfact> 0.93649173E+01</totfact>
</mgrwt>
</event>
<event>
 6    1  0.5196787E-004  0.3199512E+04  0.7818608E-02  0.8188946E-01
          2   -1    0    0  501    0  0.00000000000E+00  0.00000000000E+00  0.36440596152E+04  0.36440596152E+04  0.00000000000E+00 0.  1.
         -2   -1    0    0    0  501 -0.00000000000E+00 -0.00000000000E+00 -0.70229912514E+03  0.70229912514E+03  0.00000000000E+00 0. -1.
         23    2    1    2    0    0  0.15519033430E+04 -0.35977917506E+03  0.12934743296E+04  0.20540471761E+04  0.90492647292E+02 0.  0.
         13    1    3    3    0    0  0.42516826045E+03 -0.60033975906E+02  0.36650251053E+03  0.56453185755E+03  0.00000000000E+00 0.  1.
        -13    1    3    3    0    0  0.11267350826E+04 -0.29974519915E+03  0.92697181910E+03  0.14895153185E+04  0.00000000000E+00 0. -1.
         22    1    1    2    0    0 -0.15519033430E+04  0.35977917506E+03  0.16482861604E+04  0.22923115642E+04  0.00000000000E+00 0. -1.
<mgrwt>
<rscale>  0 0.31995124E+04</rscale>
<asrwt>0</asrwt>
<pdfrwt beam="1">  1        2 0.56062455E+00 0.31995124E+04</pdfrwt>
<pdfrwt beam="2">  1       -2 0.10804602E+00 0.31995124E+04</pdfrwt>
<totfact> 0.37015363E-01</totfact>
</mgrwt>
</event>
<event>
 6    1  0.5196787E-004  0.9965297E+03  0.7818608E-02  0.9312359E-01
          2   -1    0    0  501    0  0.00000000000E+00  0.00000000000E+00  0.11337041002E+04  0.11337041002E+04  0.00000000000E+00 0.  1.
         -2   -1    0    0    0  501 -0.00000000000E+00 -0.00000000000E+00 -0.21898822964E+03  0.21898822964E+03  0.00000000000E+00 0. -1.
         23    2    1    2    0    0 -0.19759994180E+03  0.23994162506E+03 -0.60482855155E+02  0.32915421376E+03  0.89814254091E+02 0.  0.
         11    1    3    3    0    0 -0.10703075330E+03  0.19307167506E+03 -0.30439840744E+02  0.22284263005E+03  0.00000000000E+00 0. -1.
        -11    1    3    3    0    0 -0.90569188495E+02  0.46869950001E+02 -0.30043014411E+02  0.10631158372E+03  0.00000000000E+00 0.  1.
         22    1    1    2    0    0  0.19759994180E+03 -0.23994162506E+03  0.97519872573E+03  0.10235381161E+04  0.00000000000E+00 0.  1.
<mgrwt>
<rscale>  0 0.99652969E+03</rscale>
<asrwt>0</asrwt>
<pdfrwt beam="1">  1        2 0.17441601E+00 0.99652969E+03</pdfrwt>
<pdfrwt beam="2">  1       -2 0.33690498E-01 0.99652969E+03</pdfrwt>
<totfact> 0.17066982E+02</totfact>
</mgrwt>
</event>
<event>
 6    1  0.5196787E-004  0.1892476E+04  0.7818608E-02  0.8658611E-01
         -1   -1    0    0    0  501 -0.00000000000E+00  0.00000000000E+00  0.18588692294E+04  0.18588692294E+04  0.00000000000E+00 0.  1.
          1   -1    0    0  501    0  0.00000000000E+00 -0.00000000000E+00 -0.48167263471E+03  0.48167263471E+03  0.00000000000E+00 0. -1.
         23    2    1    2    0    0  0.83905390642E+03  0.10875654003E+03  0.17218375017E+03  0.86816439948E+03  0.90679313085E+02 0.  0.
         11    1    3    3    0    0  0.32421352007E+03  0.81885919353E+02  0.47407043578E+02  0.33773826873E+03  0.00000000000E+00 0.  1.
        -11    1    3    3    0    0  0.51484038635E+03  0.26870620681E+02  0.12477670659E+03  0.53042613075E+03  0.00000000000E+00 0. -1.
         22    1    1    2    0    0 -0.83905390642E+03 -0.10875654003E+03  0.12050128445E+04  0.14723774646E+04  0.00000000000E+00 0.  1.
<mgrwt>
<rscale>  0 0.18924761E+04</rscale>
<asrwt>0</asrwt>
<pdfrwt beam="1">  1        1 0.74103483E-01 0.18924761E+04</pdfrwt>
<pdfrwt beam="2">  1       -1 0.28597988E+00 0.18924761E+04</pdfrwt>
<totfact> 0.17796089E+00</totfact>
</mgrwt>
</event>
<event>
 6    1  0.5196787E-004  0.5554250E+03  0.7818608E-02  0.1000246E+00
         -2   -1    0    0    0  501 -0.00000000000E+00  0.00000000000E+00  0.24608499226E+03  0.24608499226E+03  0.00000000000E+00 0. -1.
          2   -1    0    0  501    0  0.00000000000E+00 -0.00000000000E+00 -0.31340486132E+03  0.31340486132E+03  0.00000000000E+00 0.  1.
         23    2    1    2    0    0  0.16167291553E+03  0.15830760074E+03 -0.18225837023E+03  0.30569803511E+03  0.95046026130E+02 0.  0.
         13    1    3    3    0    0  0.15499782329E+03  0.10036580824E+03 -0.11912228736E+03  0.21974471560E+03  0.00000000000E+00 0. -1.
        -13    1    3    3    0    0  0.66750922392E+01  0.57941792498E+02 -0.63136082875E+02  0.85953319512E+02  0.00000000000E+00 0.  1.
         22    1    1    2    0    0 -0.16167291553E+03 -0.15830760074E+03  0.11493850117E+03  0.25379181846E+03  0.00000000000E+00 0. -1.
<mgrwt>
<rscale>  0 0.55542500E+03</rscale>
<asrwt>0</asrwt>
<pdfrwt beam="1">  1        2 0.48216133E-01 0.55542500E+03</pdfrwt>
<pdfrwt beam="2">  1       -2 0.37859230E-01 0.55542500E+03</pdfrwt>
<totfact> 0.69244428E+02</totfact>
</mgrwt>
</event>
<event>
 6    1  0.5196787E-004  0.2619782E+04  0.7818608E-02  0.8361513E-01
          2   -1    0    0  501    0  0.00000000000E+00  0.00000000000E+00  0.24726689965E+04  0.24726689965E+04  0.00000000000E+00 0.  1.
         -2   -1    0    0    0  501 -0.00000000000E+00 -0.00000000000E+00 -0.69391204280E+03  0.69391204280E+03  0.00000000000E+00 0. -1.
         23    2    1    2    0    0 -0.42791534567E+03  0.10199482499E+04  0.45881141342E+02  0.11107929771E+04  0.91378243201E+02 0.  0.
         13    1    3    3    0    0 -0.24839425633E+03  0.53583893534E+03 -0.15626162229E+02  0.59081913320E+03  0.00000000000E+00 0.  1.
        -13    1    3    3    0    0 -0.17952108934E+03  0.48410931457E+03  0.61507303570E+02  0.51997384392E+03  0.00000000000E+00 0. -1.
         22    1    1    2    0    0  0.42791534567E+03 -0.10199482499E+04  0.17328758123E+04  0.20557880622E+04  0.00000000000E+00 0.  1.
<mgrwt>
<rscale>  0 0.26197823E+04</rscale>
<asrwt>0</asrwt>
<pdfrwt beam="1">  1        2 0.38041061E+00 0.26197823E+04</pdfrwt>
<pdfrwt beam="2">  1       -2 0.10675570E+00 0.26197823E+04</pdfrwt>
<totfact> 0.22515223E+00</totfact>
</mgrwt>
</event>
<event>
 6    1  0.5196787E-004  0.1206915E+04  0.7818608E-02  0.9106825E-01
         -2   -1    0    0    0  501 -0.00000000000E+00  0.00000000000E+00  0.22667322623E+03  0.22667322623E+03  0.00000000000E+00 0. -1.
          2   -1    0    0  501    0  0.00000000000E+00 -0.00000000000E+00 -0.16065455099E+04  0.16065455099E+04  0.00000000000E+00 0.  1.
         23    2    1    2    0    0 -0.49371448177E+03  0.33105469284E+03 -0.81731079728E+03  0.10147893713E+04  0.91920235344E+02 0.  0.
         13    1    3    3    0    0 -0.32407119553E+03  0.16320225951E+03 -0.49480742018E+03  0.61358903212E+03  0.00000000000E+00 0. -1.
        -13    1    3    3    0    0 -0.16964328625E+03  0.16785243333E+03 -0.32250337710E+03  0.40120033921E+03  0.00000000000E+00 0.  1.
         22    1    1    2    0    0  0.49371448177E+03 -0.33105469284E+03 -0.56256148636E+03  0.81842936476E+03  0.00000000000E+00 0.  1.
<mgrwt>
<rscale>  0 0.12069148E+04</rscale>
<asrwt>0</asrwt>
<pdfrwt beam="1">  1        2 0.24716085E+00 0.12069148E+04</pdfrwt>
<pdfrwt beam="2">  1       -2 0.34872804E-01 0.12069148E+04</pdfrwt>
<totfact> 0.84105497E+01</totfact>
</mgrwt>
</event>
<event>
 6    1  0.5196787E-004  0.2339790E+04  0.7818608E-02  0.8462396E-01
         -2   -1    0    0    0  501 -0.00000000000E+00  0.00000000000E+00  0.38979000967E+03  0.38979000967E+03  0.00000000000E+00 0. -1.
          2   -1    0    0  501    0  0.00000000000E+00 -0.00000000000E+00 -0.35112616633E+04  0.35112616633E+04  0.00000000000E+00 0.  1.
         23    2    1    2    0    0 -0.78629789059E+03 -0.85338665843E+03 -0.13348294619E+04  0.17706471380E+04  0.82996585830E+02 0.  0.
         13    1    3    3    0    0 -0.29878391489E+03 -0.29067060840E+03 -0.43004047832E+03  0.59891238372E+03  0.00000000000E+00 0.  1.
        -13    1    3    3    0    0 -0.48751397570E+03 -0.56271605003E+03 -0.90478898359E+03  0.11717347542E+04  0.00000000000E+00 0. -1.
         22    1    1    2    0    0  0.78629789059E+03  0.85338665843E+03 -0.17866421918E+04  0.21304045350E+04  0.00000000000E+00 0. -1.
<mgrwt>
<rscale>  0 0.23397903E+04</rscale>
<asrwt>0</asrwt>
<pdfrwt beam="1">  1        2 0.54019409E+00 0.23397903E+04</pdfrwt>
<pdfrwt beam="2">  1       -2 0.59967696E-01 0.23397903E+04</pdfrwt>
<totfact> 0.18751446E+00</totfact>
</mgrwt>
</event>
<event>
 6    1  0.5196787E-004  0.1206762E+04  0.7818608E-02  0.9106958E-01
         -4   -1    0    0    0  501 -0.00000000000E+00  0.00000000000E+00  0.88185785743E+03  0.88185785743E+03  0.00000000000E+00 0. -1.
          4   -1    0    0  501    0  0.00000000000E+00 -0.00000000000E+00 -0.41284274737E+03  0.41284274737E+03  0.00000000000E+00 0.  1.
         23    2    1    2    0    0  0.24472852570E+03  0.26945205886E+03 -0.27553200962E+03  0.46593834894E+03  0.93189019609E+02 0.  0.
         13    1    3    3    0    0  0.16561061313E+03  0.18301564223E+03 -0.23804383820E+03  0.34290883539E+03  0.00000000000E+00 0.  1.
        -13    1    3    3    0    0  0.79117912566E+02  0.86436416631E+02 -0.37488171418E+02  0.12302951355E+03  0.00000000000E+00 0. -1.
         22    1    1    2    0    0 -0.24472852570E+03 -0.26945205886E+03  0.74454711968E+03  0.82876225586E+03  0.00000000000E+00 0. -1.
<mgrwt>
<rscale>  0 0.12067620E+04</rscale>
<asrwt>0</asrwt>
<pdfrwt beam="1">  1        4 0.63514269E-01 0.12067620E+04</pdfrwt>
<pdfrwt beam="2">  1       -4 0.13567044E+00 0.12067620E+04</pdfrwt>
<totfact> 0.17679702E+00</totfact>
</mgrwt>
</event>
<event>
 6    1  0.5196787E-004  0.1896991E+04  0.7818608E-02  0.8656356E-01
         -2   -1    0    0    0  501 -0.00000000000E+00  0.00000000000E+00  0.43331805127E+03  0.43331805127E+03  0.00000000000E+00 0. -1.
          2   -1    0    0  501    0  0.00000000000E+00 -0.00000000000E+00 -0.20761732121E+04  0.20761732121E+04  0.00000000000E+00 0.  1.
         23    2    1    2    0    0 -0.43569538277E+02  0.55424444158E+03  0.18962692854E+03  0.59453021584E+03  0.91774723240E+02 0.  0.
         13    1    3    3    0    0  0.59764175750E+01  0.11257656505E+03  0.37767466607E+01  0.11279833501E+03  0.00000000000E+00 0. -1.
        -13    1    3    3    0    0 -0.49545955852E+02  0.44166787653E+03  0.18585018188E+03  0.48173188083E+03  0.00000000000E+00 0.  1.
         22    1    1    2    0    0  0.43569538277E+02 -0.55424444158E+03 -0.18324820894E+04  0.19149610476E+04  0.00000000000E+00 0.  1.
<mgrwt>
<rscale>  0 0.18969906E+04</rscale>
<asrwt>0</asrwt>
<pdfrwt beam="1">  1        2 0.31941126E+00 0.18969906E+04</pdfrwt>
<pdfrwt beam="2">  1       -2 0.66664315E-01 0.18969906E+04</pdfrwt>
<totfact> 0.11733097E+01</totfact>
</mgrwt>
</event>
<event>
 6    1  0.5196787E-004  0.2165528E+04  0.7818608E-02  0.8532915E-01
          2   -1    0    0  501    0  0.00000000000E+00  0.00000000000E+00  0.23042863488E+04  0.23042863488E+04  0.00000000000E+00 0.  1.
         -2   -1    0    0    0  501 -0.00000000000E+00 -0.00000000000E+00 -0.50878139995E+03  0.50878139995E+03  0.00000000000E+00 0. -1.
         23    2    1    2    0    0 -0.69909690985E+03  0.29558431229E+02  0.19694423383E+04  0.20920515175E+04  0.91467139389E+02 0.  0.
         13    1    3    3    0    0 -0.32959555011E+03 -0.79452935160E+01  0.80807988631E+03  0.87274822085E+03  0.00000000000E+00 0.  1.
        -13    1    3    3    0    0 -0.36950135974E+03  0.37503724745E+02  0.11613624520E+04  0.12193032966E+04  0.00000000000E+00 0. -1.
         22    1    1    2    0    0  0.69909690985E+03 -0.29558431229E+02 -0.17393738952E+03  0.72101623123E+03  0.00000000000E+00 0. -1.
<mgrwt>
<rscale>  0 0.21655281E+04</rscale>
<asrwt>0</asrwt>
<pdfrwt beam="1">  1        2 0.35450559E+00 0.21655281E+04</pdfrwt>
<pdfrwt beam="2">  1       -2 0.78274063E-01 0.21655281E+04</pdfrwt>
<totfact> 0.59986877E+00</totfact>
</mgrwt>
</event>
<event>
 6    1  0.5196787E-004  0.9240523E+03  0.7818608E-02  0.9396004E-01
          2   -1    0    0  501    0  0.00000000000E+00  0.00000000000E+00  0.20043230966E+04  0.20043230966E+04  0.00000000000E+00 0.  1.
         -2   -1    0    0    0  501 -0.00000000000E+00 -0.00000000000E+00 -0.10650386865E+03  0.10650386865E+03  0.00000000000E+00 0. -1.
         23    2    1    2    0    0 -0.37867570485E+03 -0.17336216518E+03  0.13909527344E+04  0.14548061027E+04  0.90893110318E+02 0.  0.
         11    1    3    3    0    0 -0.20310526590E+03 -0.13785642293E+03  0.86702869951E+03  0.90110760077E+03  0.00000000000E+00 0.  1.
        -11    1    3    3    0    0 -0.17557043895E+03 -0.35505742249E+02  0.52392403484E+03  0.55369850194E+03  0.00000000000E+00 0. -1.
         22    1    1    2    0    0  0.37867570485E+03  0.17336216518E+03  0.50686649359E+03  0.65602086254E+03  0.00000000000E+00 0.  1.
<mgrwt>
<rscale>  0 0.92405230E+03</rscale>
<asrwt>0</asrwt>
<pdfrwt beam="1">  1        2 0.30835737E+00 0.92405230E+03</pdfrwt>
<pdfrwt beam="2">  1       -2 0.16385212E-01 0.92405230E+03</pdfrwt>
<totfact> 0.20227648E+02</totfact>
</mgrwt>
</event>
<event>
 6    1  0.5196787E-004  0.1995083E+04  0.7818608E-02  0.8608923E-01
         -2   -1    0    0    0  501 -0.00000000000E+00  0.00000000000E+00  0.20873645741E+03  0.20873645741E+03  0.00000000000E+00 0. -1.
          2   -1    0    0  501    0  0.00000000000E+00 -0.00000000000E+00 -0.47672005457E+04  0.47672005457E+04  0.00000000000E+00 0.  1.
         23    2    1    2    0    0 -0.91061260237E+02  0.46995393686E+03 -0.44608540973E+04  0.44873916457E+04  0.91190177371E+02 0.  0.
         13    1    3    3    0    0 -0.56165692080E+02  0.15171772928E+03 -0.18280024845E+04  0.18351473885E+04  0.00000000000E+00 0.  1.
        -13    1    3    3    0    0 -0.34895568157E+02  0.31823620758E+03 -0.26328516129E+04  0.26522442572E+04  0.00000000000E+00 0. -1.
         22    1    1    2    0    0  0.91061260237E+02 -0.46995393686E+03 -0.97609990932E+02  0.48854535738E+03  0.00000000000E+00 0. -1.
<mgrwt>
<rscale>  0 0.19950825E+04</rscale>
<asrwt>0</asrwt>
<pdfrwt beam="1">  1        2 0.73341547E+00 0.19950825E+04</pdfrwt>
<pdfrwt beam="2">  1       -2 0.32113301E-01 0.19950825E+04</pdfrwt>
<totfact> 0.55492200E-01</totfact>
</mgrwt>
</event>
<event>
 6    1  0.5196787E-004  0.2965498E+04  0.7818608E-02  0.8253652E-01
          2   -1    0    0  501    0  0.00000000000E+00  0.00000000000E+00  0.20774714403E+04  0.20774714403E+04  0.00000000000E+00 0.  1.
         -2   -1    0    0    0  501 -0.00000000000E+00 -0.00000000000E+00 -0.10582794231E+04  0.10582794231E+04  0.00000000000E+00 0. -1.
         23    2    1    2    0    0  0.76696012634E+03  0.22486010180E+03 -0.80876834774E+03  0.11406997371E+04  0.91102959038E+02 0.  0.
         11    1    3    3    0    0  0.22173877866E+03  0.10130572177E+03 -0.27917510630E+03  0.37063415277E+03  0.00000000000E+00 0. -1.
        -11    1    3    3    0    0  0.54522134768E+03  0.12355438003E+03 -0.52959324144E+03  0.77006558433E+03  0.00000000000E+00 0.  1.
         22    1    1    2    0    0 -0.76696012634E+03 -0.22486010180E+03  0.18279603649E+04  0.19950511263E+04  0.00000000000E+00 0.  1.
<mgrwt>
<rscale>  0 0.29654985E+04</rscale>
<asrwt>0</asrwt>
<pdfrwt beam="1">  1        2 0.31961099E+00 0.29654985E+04</pdfrwt>
<pdfrwt beam="2">  1       -2 0.16281222E+00 0.29654985E+04</pdfrwt>
<totfact> 0.12471475E+00</totfact>
</mgrwt>
</event>
<event>
 6    1  0.5196787E-004  0.1741839E+04  0.7818608E-02  0.8737855E-01
          2   -1    0    0  501    0  0.00000000000E+00  0.00000000000E+00  0.19887154958E+04  0.19887154958E+04  0.00000000000E+00 0.  1.
         -2   -1    0    0    0  501 -0.00000000000E+00 -0.00000000000E+00 -0.38140243982E+03  0.38140243982E+03  0.00000000000E+00 0. -1.
         23    2    1    2    0    0 -0.32465074709E+03 -0.67183004945E+03  0.20155055662E+03  0.77860232856E+03  0.94049116097E+02 0.  0.
         11    1    3    3    0    0 -0.32487005699E+03 -0.62284803775E+03  0.18058407756E+03  0.72532119859E+03  0.00000000000E+00 0. -1.
        -11    1    3    3    0    0  0.21930989405E+00 -0.48982011700E+02  0.20966479065E+02  0.53281129974E+02  0.00000000000E+00 0.  1.
         22    1    1    2    0    0  0.32465074709E+03  0.67183004945E+03  0.14057624994E+04  0.15915156071E+04  0.00000000000E+00 0.  1.
<mgrwt>
<rscale>  0 0.17418392E+04</rscale>
<asrwt>0</asrwt>
<pdfrwt beam="1">  1        2 0.30595623E+00 0.17418392E+04</pdfrwt>
<pdfrwt beam="2">  1       -2 0.58677299E-01 0.17418392E+04</pdfrwt>
<totfact> 0.17454203E+01</totfact>
</mgrwt>
</event>
<event>
 6    1  0.5515971E-004  0.1687387E+04  0.7818608E-02  0.8768591E-01
         -2   -1    0    0    0  501 -0.00000000000E+00  0.00000000000E+00  0.65963724958E+03  0.65963724958E+03  0.00000000000E+00 0. -1.
          2   -1    0    0  501    0  0.00000000000E+00 -0.00000000000E+00 -0.10791057484E+04  0.10791057484E+04  0.00000000000E+00 0.  1.
         23    2    1    2    0    0  0.58049537298E+03 -0.51404665428E+03 -0.54652443258E+03  0.95301909533E+03  0.91310458547E+02 0.  0.
         13    1    3    3    0    0  0.23897985670E+03 -0.27163120157E+03 -0.24426669052E+03  0.43653304305E+03  0.00000000000E+00 0. -1.
        -13    1    3    3    0    0  0.34151551628E+03 -0.24241545270E+03 -0.30225774206E+03  0.51648605228E+03  0.00000000000E+00 0.  1.
         22    1    1    2    0    0 -0.58049537298E+03  0.51404665428E+03  0.12705593380E+03  0.78572390261E+03  0.00000000000E+00 0. -1.
<mgrwt>
<rscale>  0 0.16873866E+04</rscale>
<asrwt>0</asrwt>
<pdfrwt beam="1">  1        2 0.16601627E+00 0.16873866E+04</pdfrwt>
<pdfrwt beam="2">  1       -2 0.10148266E+00 0.16873866E+04</pdfrwt>
<totfact> 0.17054791E+01</totfact>
</mgrwt>
</event>
<event>
 6    1  0.5196787E-004  0.4139609E+04  0.7818608E-02  0.7976960E-01
          2   -1    0    0  501    0  0.00000000000E+00  0.00000000000E+00  0.13599408728E+04  0.13599408728E+04  0.00000000000E+00 0.  1.
         -2   -1    0    0    0  501 -0.00000000000E+00 -0.00000000000E+00 -0.31502036493E+04  0.31502036493E+04  0.00000000000E+00 0. -1.
         23    2    1    2    0    0 -0.29371609847E+03 -0.15737370091E+04 -0.23232620907E+04  0.28228373215E+04  0.89143038087E+02 0.  0.
         13    1    3    3    0    0 -0.10415520146E+03 -0.35375802052E+03 -0.53314485770E+03  0.64825649427E+03  0.00000000000E+00 0. -1.
        -13    1    3    3    0    0 -0.18956089701E+03 -0.12199789886E+04 -0.17901172330E+04  0.21745808272E+04  0.00000000000E+00 0.  1.
         22    1    1    2    0    0  0.29371609847E+03  0.15737370091E+04  0.53299931414E+03  0.16873072006E+04  0.00000000000E+00 0.  1.
<mgrwt>
<rscale>  0 0.41396090E+04</rscale>
<asrwt>0</asrwt>
<pdfrwt beam="1">  1        2 0.20922168E+00 0.41396090E+04</pdfrwt>
<pdfrwt beam="2">  1       -2 0.48464670E+00 0.41396090E+04</pdfrwt>
<totfact> 0.24574308E-02</totfact>
</mgrwt>
</event>
<event>
 6    1  0.5196787E-004  0.4101978E+04  0.7818608E-02  0.7984285E-01
         -2   -1    0    0    0  501 -0.00000000000E+00  0.00000000000E+00  0.11725974599E+04  0.11725974599E+04  0.00000000000E+00 0. -1.
          2   -1    0    0  501    0  0.00000000000E+00 -0.00000000000E+00 -0.35873818702E+04  0.35873818702E+04  0.00000000000E+00 0.  1.
         23    2    1    2    0    0 -0.20056402160E+04 -0.42422136622E+03 -0.11988715953E+04  0.23764943990E+04  0.88747297797E+02 0.  0.
         11    1    3    3    0    0 -0.10780130659E+04 -0.18313059640E+03 -0.64544216127E+03  0.12697419302E+04  0.00000000000E+00 0. -1.
        -11    1    3    3    0    0 -0.92762715004E+03 -0.24109076981E+03 -0.55342943402E+03  0.11067524688E+04  0.00000000000E+00 0.  1.
         22    1    1    2    0    0  0.20056402160E+04  0.42422136622E+03 -0.12159128150E+04  0.23834849312E+04  0.00000000000E+00 0. -1.
<mgrwt>
<rscale>  0 0.41019775E+04</rscale>
<asrwt>0</asrwt>
<pdfrwt beam="1">  1        2 0.55190489E+00 0.41019775E+04</pdfrwt>
<pdfrwt beam="2">  1       -2 0.18039961E+00 0.41019775E+04</pdfrwt>
<totfact> 0.99169729E-02</totfact>
</mgrwt>
</event>
<event>
 6    1  0.5196787E-004  0.2521830E+04  0.7818608E-02  0.8395250E-01
          2   -1    0    0  501    0  0.00000000000E+00  0.00000000000E+00  0.14946884203E+04  0.14946884203E+04  0.00000000000E+00 0.  1.
         -2   -1    0    0    0  501 -0.00000000000E+00 -0.00000000000E+00 -0.10637044270E+04  0.10637044270E+04  0.00000000000E+00 0. -1.
         23    2    1    2    0    0  0.42319571410E+03 -0.98349535708E+03  0.88819352113E+03  0.13941771104E+04  0.92110554352E+02 0.  0.
         11    1    3    3    0    0  0.19879303376E+03 -0.40023735138E+03  0.42039970440E+03  0.61355074702E+03  0.00000000000E+00 0. -1.
        -11    1    3    3    0    0  0.22440268035E+03 -0.58325800570E+03  0.46779381673E+03  0.78062636333E+03  0.00000000000E+00 0.  1.
         22    1    1    2    0    0 -0.42319571410E+03  0.98349535708E+03 -0.45720952778E+03  0.11642157369E+04  0.00000000000E+00 0. -1.
<mgrwt>
<rscale>  0 0.25218300E+04</rscale>
<asrwt>0</asrwt>
<pdfrwt beam="1">  1        2 0.22995207E+00 0.25218300E+04</pdfrwt>
<pdfrwt beam="2">  1       -2 0.16364683E+00 0.25218300E+04</pdfrwt>
<totfact> 0.26953583E+00</totfact>
</mgrwt>
</event>
<event>
 6    1  0.5196787E-004  0.1460445E+04  0.7818608E-02  0.8911191E-01
         -2   -1    0    0    0  501 -0.00000000000E+00  0.00000000000E+00  0.37663690527E+03  0.37663690527E+03  0.00000000000E+00 0. -1.
          2   -1    0    0  501    0  0.00000000000E+00 -0.00000000000E+00 -0.14157523235E+04  0.14157523235E+04  0.00000000000E+00 0.  1.
         23    2    1    2    0    0  0.62192024590E+03  0.25560361491E+03 -0.86197556843E+03  0.10970500838E+04  0.91646088398E+02 0.  0.
         11    1    3    3    0    0  0.23438405241E+03  0.49254022805E+02 -0.31130932019E+03  0.39277899082E+03  0.00000000000E+00 0.  1.
        -11    1    3    3    0    0  0.38753619348E+03  0.20634959211E+03 -0.55066624824E+03  0.70427109296E+03  0.00000000000E+00 0. -1.
         22    1    1    2    0    0 -0.62192024590E+03 -0.25560361491E+03 -0.17713984982E+03  0.69533914503E+03  0.00000000000E+00 0.  1.
<mgrwt>
<rscale>  0 0.14604446E+04</rscale>
<asrwt>0</asrwt>
<pdfrwt beam="1">  1        2 0.21780805E+00 0.14604446E+04</pdfrwt>
<pdfrwt beam="2">  1       -2 0.57944138E-01 0.14604446E+04</pdfrwt>
<totfact> 0.38281421E+01</totfact>
</mgrwt>
</event>
<event>
 6    1  0.5196787E-004  0.4072501E+04  0.7818608E-02  0.7990078E-01
          4   -1    0    0  501    0  0.00000000000E+00  0.00000000000E+00  0.27095032611E+04  0.27095032611E+04  0.00000000000E+00 0.  1.
         -4   -1    0    0    0  501 -0.00000000000E+00 -0.00000000000E+00 -0.15302862113E+04  0.15302862113E+04  0.00000000000E+00 0. -1.
         23    2    1    2    0    0 -0.19053074372E+04  0.64416650172E+02  0.13316905524E+04  0.23273057198E+04  0.92769883807E+02 0.  0.
         13    1    3    3    0    0 -0.46952152020E+03  0.10998429026E+02  0.37724615022E+03  0.60240026662E+03  0.00000000000E+00 0.  1.
        -13    1    3    3    0    0 -0.14357859170E+04  0.53418221146E+02  0.95444440218E+03  0.17249054532E+04  0.00000000000E+00 0. -1.
         22    1    1    2    0    0  0.19053074372E+04 -0.64416650172E+02 -0.15247350260E+03  0.19124837526E+04  0.00000000000E+00 0. -1.
<mgrwt>
<rscale>  0 0.40725007E+04</rscale>
<asrwt>0</asrwt>
<pdfrwt beam="1">  1        4 0.41684665E+00 0.40725007E+04</pdfrwt>
<pdfrwt beam="2">  1       -4 0.23542865E+00 0.40725007E+04</pdfrwt>
<totfact> 0.61827837E-04</totfact>
</mgrwt>
</event>
<event>
 6    1  0.5196787E-004  0.9986137E+03  0.7818608E-02  0.9310067E-01
          2   -1    0    0  501    0  0.00000000000E+00  0.00000000000E+00  0.12400245571E+04  0.12400245571E+04  0.00000000000E+00 0.  1.
         -2   -1    0    0    0  501 -0.00000000000E+00 -0.00000000000E+00 -0.20105030146E+03  0.20105030146E+03  0.00000000000E+00 0. -1.
         23    2    1    2    0    0  0.10427392486E+03 -0.48341402994E+03  0.48642832647E+03  0.69954321419E+03  0.90476604656E+02 0.  0.
         11    1    3    3    0    0  0.12311295923E+02 -0.21478747557E+03  0.25195882721E+03  0.33131326306E+03  0.00000000000E+00 0. -1.
        -11    1    3    3    0    0  0.91962628935E+02 -0.26862655437E+03  0.23446949925E+03  0.36822995113E+03  0.00000000000E+00 0.  1.
         22    1    1    2    0    0 -0.10427392486E+03  0.48341402994E+03  0.55254592919E+03  0.74153164438E+03  0.00000000000E+00 0. -1.
<mgrwt>
<rscale>  0 0.99861366E+03</rscale>
<asrwt>0</asrwt>
<pdfrwt beam="1">  1        2 0.19077300E+00 0.99861366E+03</pdfrwt>
<pdfrwt beam="2">  1       -2 0.30930816E-01 0.99861366E+03</pdfrwt>
<totfact> 0.17311693E+02</totfact>
</mgrwt>
</event>
<event>
 6    1  0.5196787E-004  0.2197472E+04  0.7818608E-02  0.8519481E-01
         -2   -1    0    0    0  501 -0.00000000000E+00  0.00000000000E+00  0.17418921443E+04  0.17418921443E+04  0.00000000000E+00 0. -1.
          2   -1    0    0  501    0  0.00000000000E+00 -0.00000000000E+00 -0.69305157538E+03  0.69305157538E+03  0.00000000000E+00 0.  1.
         23    2    1    2    0    0 -0.87032565497E+03  0.71285202920E+02 -0.21009517596E+03  0.90279896946E+03  0.91420295630E+02 0.  0.
         11    1    3    3    0    0 -0.67416776762E+03  0.91155918481E+02 -0.17613264782E+03  0.70273344164E+03  0.00000000000E+00 0. -1.
        -11    1    3    3    0    0 -0.19615788735E+03 -0.19870715561E+02 -0.33962528141E+02  0.20006552782E+03  0.00000000000E+00 0.  1.
         22    1    1    2    0    0  0.87032565497E+03 -0.71285202920E+02  0.12589357449E+04  0.15321447502E+04  0.00000000000E+00 0. -1.
<mgrwt>
<rscale>  0 0.21974723E+04</rscale>
<asrwt>0</asrwt>
<pdfrwt beam="1">  1        2 0.10662332E+00 0.21974723E+04</pdfrwt>
<pdfrwt beam="2">  1       -2 0.26798340E+00 0.21974723E+04</pdfrwt>
<totfact> 0.18915394E+00</totfact>
</mgrwt>
</event>
<event>
 6    1  0.5196787E-004  0.1784890E+04  0.7818608E-02  0.8714376E-01
         -2   -1    0    0    0  501 -0.00000000000E+00  0.00000000000E+00  0.45603371785E+03  0.45603371785E+03  0.00000000000E+00 0. -1.
          2   -1    0    0  501    0  0.00000000000E+00 -0.00000000000E+00 -0.17464889329E+04  0.17464889329E+04  0.00000000000E+00 0.  1.
         23    2    1    2    0    0 -0.55670534005E+03 -0.30142083619E+02 -0.15031437107E+04  0.16058101764E+04  0.91410758454E+02 0.  0.
         11    1    3    3    0    0 -0.19635564231E+03 -0.42115471576E+02 -0.45369739778E+03  0.49615580210E+03  0.00000000000E+00 0. -1.
        -11    1    3    3    0    0 -0.36034969774E+03  0.11973387957E+02 -0.10494463129E+04  0.11096543743E+04  0.00000000000E+00 0.  1.
         22    1    1    2    0    0  0.55670534005E+03  0.30142083619E+02  0.21268849565E+03  0.59671247434E+03  0.00000000000E+00 0. -1.
<mgrwt>
<rscale>  0 0.17848897E+04</rscale>
<asrwt>0</asrwt>
<pdfrwt beam="1">  1        2 0.26869061E+00 0.17848897E+04</pdfrwt>
<pdfrwt beam="2">  1       -2 0.70159033E-01 0.17848897E+04</pdfrwt>
<totfact> 0.16153196E+01</totfact>
</mgrwt>
</event>
<event>
 6    1  0.5196787E-004  0.1355287E+04  0.7818608E-02  0.8986835E-01
          2   -1    0    0  501    0  0.00000000000E+00  0.00000000000E+00  0.17504922307E+04  0.17504922307E+04  0.00000000000E+00 0.  1.
         -2   -1    0    0    0  501 -0.00000000000E+00 -0.00000000000E+00 -0.26232670682E+03  0.26232670682E+03  0.00000000000E+00 0. -1.
         23    2    1    2    0    0 -0.31606025569E+03  0.27656445592E+03  0.15323629288E+04  0.15905211823E+04  0.72384405870E+02 0.  0.
         13    1    3    3    0    0 -0.25437369414E+03  0.21005362256E+03  0.10845387160E+04  0.11336016615E+04  0.00000000000E+00 0.  1.
        -13    1    3    3    0    0 -0.61686561549E+02  0.66510833354E+02  0.44782421285E+03  0.45691952075E+03  0.00000000000E+00 0. -1.
         22    1    1    2    0    0  0.31606025569E+03 -0.27656445592E+03 -0.44197404899E+02  0.42229775527E+03  0.00000000000E+00 0. -1.
<mgrwt>
<rscale>  0 0.13552872E+04</rscale>
<asrwt>0</asrwt>
<pdfrwt beam="1">  1        2 0.26930649E+00 0.13552872E+04</pdfrwt>
<pdfrwt beam="2">  1       -2 0.40357956E-01 0.13552872E+04</pdfrwt>
<totfact> 0.52163885E+01</totfact>
</mgrwt>
</event>
<event>
 6    1  0.5196787E-004  0.2027229E+04  0.7818608E-02  0.8593995E-01
         -2   -1    0    0    0  501 -0.00000000000E+00  0.00000000000E+00  0.40481513768E+03  0.40481513768E+03  0.00000000000E+00 0. -1.
          2   -1    0    0  501    0  0.00000000000E+00 -0.00000000000E+00 -0.25379849715E+04  0.25379849715E+04  0.00000000000E+00 0.  1.
         23    2    1    2    0    0  0.58205424546E+03  0.56603893904E+03 -0.19446607597E+04  0.21092997215E+04  0.90843930875E+02 0.  0.
         13    1    3    3    0    0  0.48913202127E+03  0.42452487060E+03 -0.15456334728E+04  0.16758443639E+04  0.00000000000E+00 0. -1.
        -13    1    3    3    0    0  0.92922224187E+02  0.14151406844E+03 -0.39902728692E+03  0.43345535759E+03  0.00000000000E+00 0.  1.
         22    1    1    2    0    0 -0.58205424546E+03 -0.56603893904E+03 -0.18850907412E+03  0.83350038764E+03  0.00000000000E+00 0. -1.
<mgrwt>
<rscale>  0 0.20272294E+04</rscale>
<asrwt>0</asrwt>
<pdfrwt beam="1">  1        2 0.39045923E+00 0.20272294E+04</pdfrwt>
<pdfrwt beam="2">  1       -2 0.62279252E-01 0.20272294E+04</pdfrwt>
<totfact> 0.73424824E+00</totfact>
</mgrwt>
</event>
<event>
 6    1  0.5196787E-004  0.2919825E+04  0.7818608E-02  0.8267003E-01
          2   -1    0    0  501    0  0.00000000000E+00  0.00000000000E+00  0.16634503639E+04  0.16634503639E+04  0.00000000000E+00 0. -1.
         -2   -1    0    0    0  501 -0.00000000000E+00 -0.00000000000E+00 -0.12812793086E+04  0.12812793086E+04  0.00000000000E+00 0.  1.
         23    2    1    2    0    0 -0.83714318951E+03  0.11132452463E+04 -0.24502562016E+03  0.14171500942E+04  0.90294722175E+02 0.  0.
         13    1    3    3    0    0 -0.34909198545E+03  0.41829183777E+03 -0.60968948036E+02  0.54822485211E+03  0.00000000000E+00 0. -1.
        -13    1    3    3    0    0 -0.48805120406E+03  0.69495340855E+03 -0.18405667212E+03  0.86892524212E+03  0.00000000000E+00 0.  1.
         22    1    1    2    0    0  0.83714318951E+03 -0.11132452463E+04  0.62719667548E+03  0.15275795783E+04  0.00000000000E+00 0. -1.
<mgrwt>
<rscale>  0 0.29198250E+04</rscale>
<asrwt>0</asrwt>
<pdfrwt beam="1">  1        2 0.25591544E+00 0.29198250E+04</pdfrwt>
<pdfrwt beam="2">  1       -2 0.19711989E+00 0.29198250E+04</pdfrwt>
<totfact> 0.12306395E+00</totfact>
</mgrwt>
</event>
<event>
 6    1  0.5196787E-004  0.3443385E+04  0.7818608E-02  0.8127339E-01
          2   -1    0    0  501    0  0.00000000000E+00  0.00000000000E+00  0.38035588782E+04  0.38035588782E+04  0.00000000000E+00 0. -1.
         -2   -1    0    0    0  501 -0.00000000000E+00 -0.00000000000E+00 -0.77932950657E+03  0.77932950657E+03  0.00000000000E+00 0.  1.
         23    2    1    2    0    0 -0.12137050395E+03  0.13754304346E+04  0.28795681631E+04  0.31945560957E+04  0.82074129710E+02 0.  0.
         13    1    3    3    0    0 -0.28177308903E+02  0.18120215280E+03  0.44329701465E+03  0.47972953225E+03  0.00000000000E+00 0. -1.
        -13    1    3    3    0    0 -0.93193195045E+02  0.11942282818E+04  0.24362711484E+04  0.27148265634E+04  0.00000000000E+00 0.  1.
         22    1    1    2    0    0  0.12137050395E+03 -0.13754304346E+04  0.14466120851E+03  0.13883322891E+04  0.00000000000E+00 0.  1.
<mgrwt>
<rscale>  0 0.34433853E+04</rscale>
<asrwt>0</asrwt>
<pdfrwt beam="1">  1        2 0.58516290E+00 0.34433853E+04</pdfrwt>
<pdfrwt beam="2">  1       -2 0.11989685E+00 0.34433853E+04</pdfrwt>
<totfact> 0.21394832E-01</totfact>
</mgrwt>
</event>
<event>
 6    1  0.5196787E-004  0.1083450E+04  0.7818608E-02  0.9221475E-01
         -2   -1    0    0    0  501 -0.00000000000E+00  0.00000000000E+00  0.45894718396E+03  0.45894718396E+03  0.00000000000E+00 0. -1.
          2   -1    0    0  501    0  0.00000000000E+00 -0.00000000000E+00 -0.63943279952E+03  0.63943279952E+03  0.00000000000E+00 0.  1.
         23    2    1    2    0    0 -0.40131580562E+03  0.40340798920E+02 -0.45117004127E+03  0.61263126839E+03  0.95293803470E+02 0.  0.
         11    1    3    3    0    0 -0.28047708736E+03  0.50539158303E+02 -0.36857694739E+03  0.46590832704E+03  0.00000000000E+00 0. -1.
        -11    1    3    3    0    0 -0.12083871825E+03 -0.10198359383E+02 -0.82593093880E+02  0.14672294135E+03  0.00000000000E+00 0.  1.
         22    1    1    2    0    0  0.40131580562E+03 -0.40340798920E+02  0.27068442570E+03  0.48574871509E+03  0.00000000000E+00 0. -1.
<mgrwt>
<rscale>  0 0.10834498E+04</rscale>
<asrwt>0</asrwt>
<pdfrwt beam="1">  1        2 0.98374277E-01 0.10834498E+04</pdfrwt>
<pdfrwt beam="2">  1       -2 0.70607259E-01 0.10834498E+04</pdfrwt>
<totfact> 0.83232846E+01</totfact>
</mgrwt>
</event>
<event>
 6    1  0.5196787E-004  0.3884519E+03  0.7818608E-02  0.1047853E+00
          2   -1    0    0  501    0  0.00000000000E+00  0.00000000000E+00  0.31713374653E+03  0.31713374653E+03  0.00000000000E+00 0.  1.
         -2   -1    0    0    0  501 -0.00000000000E+00 -0.00000000000E+00 -0.11895206831E+03  0.11895206831E+03  0.00000000000E+00 0. -1.
         23    2    1    2    0    0  0.89698204529E+01 -0.94893726883E+02  0.28037543435E+03  0.31022442034E+03  0.92431216069E+02 0.  0.
         13    1    3    3    0    0  0.47844865213E+02 -0.50754851273E+02  0.18996231244E+03  0.20236320368E+03  0.00000000000E+00 0.  1.
        -13    1    3    3    0    0 -0.38875044760E+02 -0.44138875610E+02  0.90413121914E+02  0.10786121666E+03  0.00000000000E+00 0. -1.
         22    1    1    2    0    0 -0.89698204529E+01  0.94893726883E+02 -0.82193756126E+02  0.12586139451E+03  0.00000000000E+00 0. -1.
<mgrwt>
<rscale>  0 0.38845188E+03</rscale>
<asrwt>0</asrwt>
<pdfrwt beam="1">  1        2 0.48789807E-01 0.38845188E+03</pdfrwt>
<pdfrwt beam="2">  1       -2 0.18300318E-01 0.38845188E+03</pdfrwt>
<totfact> 0.25343992E+03</totfact>
</mgrwt>
</event>
<event>
 6    1  0.5196787E-004  0.1122231E+04  0.7818608E-02  0.9183790E-01
         -2   -1    0    0    0  501 -0.00000000000E+00  0.00000000000E+00  0.15054417266E+03  0.15054417266E+03  0.00000000000E+00 0. -1.
          2   -1    0    0  501    0  0.00000000000E+00 -0.00000000000E+00 -0.20914183477E+04  0.20914183477E+04  0.00000000000E+00 0.  1.
         23    2    1    2    0    0  0.15989155835E+03  0.37872838947E+03 -0.17288784021E+04  0.17794231046E+04  0.91244464515E+02 0.  0.
         11    1    3    3    0    0  0.19648160472E+02  0.16801968081E+02 -0.21618141579E+03  0.21772175103E+03  0.00000000000E+00 0.  1.
        -11    1    3    3    0    0  0.14024339788E+03  0.36192642139E+03 -0.15126969864E+04  0.15617013535E+04  0.00000000000E+00 0. -1.
         22    1    1    2    0    0 -0.15989155835E+03 -0.37872838947E+03 -0.21199577290E+03  0.46253941578E+03  0.00000000000E+00 0. -1.
<mgrwt>
<rscale>  0 0.11222314E+04</rscale>
<asrwt>0</asrwt>
<pdfrwt beam="1">  1        2 0.32175666E+00 0.11222314E+04</pdfrwt>
<pdfrwt beam="2">  1       -2 0.23160643E-01 0.11222314E+04</pdfrwt>
<totfact> 0.97292105E+01</totfact>
</mgrwt>
</event>
<event>
 6    1  0.5196787E-004  0.4373409E+04  0.7818608E-02  0.7933182E-01
          2   -1    0    0  501    0  0.00000000000E+00  0.00000000000E+00  0.27005860367E+04  0.27005860367E+04  0.00000000000E+00 0.  1.
         -2   -1    0    0    0  501 -0.00000000000E+00 -0.00000000000E+00 -0.17706066154E+04  0.17706066154E+04  0.00000000000E+00 0. -1.
         23    2    1    2    0    0 -0.18249377867E+04 -0.81736292783E+03 -0.43716715734E+03  0.20488859315E+04  0.91314597926E+02 0.  0.
         11    1    3    3    0    0 -0.13266460159E+04 -0.61109450776E+03 -0.35746450526E+03  0.15037310336E+04  0.00000000000E+00 0.  1.
        -11    1    3    3    0    0 -0.49829177076E+03 -0.20626842007E+03 -0.79702652073E+02  0.54515489788E+03  0.00000000000E+00 0. -1.
         22    1    1    2    0    0  0.18249377867E+04  0.81736292783E+03  0.13671465786E+04  0.24223067206E+04  0.00000000000E+00 0.  1.
<mgrwt>
<rscale>  0 0.43734085E+04</rscale>
<asrwt>0</asrwt>
<pdfrwt beam="1">  1        2 0.41547478E+00 0.43734085E+04</pdfrwt>
<pdfrwt beam="2">  1       -2 0.27240102E+00 0.43734085E+04</pdfrwt>
<totfact> 0.95162489E-02</totfact>
</mgrwt>
</event>
<event>
 6    1  0.5196787E-004  0.3828166E+04  0.7818608E-02  0.8040137E-01
         -2   -1    0    0    0  501 -0.00000000000E+00  0.00000000000E+00  0.29587402413E+04  0.29587402413E+04  0.00000000000E+00 0. -1.
          2   -1    0    0  501    0  0.00000000000E+00 -0.00000000000E+00 -0.12382679684E+04  0.12382679684E+04  0.00000000000E+00 0.  1.
         23    2    1    2    0    0 -0.51777442772E+03  0.79804234592E+03 -0.95877942582E+03  0.13538846442E+04  0.93721388327E+02 0.  0.
         13    1    3    3    0    0 -0.22635595063E+03  0.43429923326E+03 -0.49940268481E+03  0.69946828520E+03  0.00000000000E+00 0.  1.
        -13    1    3    3    0    0 -0.29141847709E+03  0.36374311266E+03 -0.45937674101E+03  0.65441635904E+03  0.00000000000E+00 0. -1.
         22    1    1    2    0    0  0.51777442772E+03 -0.79804234592E+03  0.26792516986E+04  0.28431235655E+04  0.00000000000E+00 0. -1.
<mgrwt>
<rscale>  0 0.38281658E+04</rscale>
<asrwt>0</asrwt>
<pdfrwt beam="1">  1        2 0.19050277E+00 0.38281658E+04</pdfrwt>
<pdfrwt beam="2">  1       -2 0.45519080E+00 0.38281658E+04</pdfrwt>
<totfact> 0.46096375E-02</totfact>
</mgrwt>
</event>
<event>
 6    1  0.5196787E-004  0.1085887E+04  0.7818608E-02  0.9219057E-01
         -2   -1    0    0    0  501 -0.00000000000E+00  0.00000000000E+00  0.15116810560E+03  0.15116810560E+03  0.00000000000E+00 0. -1.
          2   -1    0    0  501    0  0.00000000000E+00 -0.00000000000E+00 -0.19500655002E+04  0.19500655002E+04  0.00000000000E+00 0.  1.
         23    2    1    2    0    0  0.39751224672E+03 -0.77265239698E+02 -0.15947112612E+04  0.16477163728E+04  0.88765618538E+02 0.  0.
         11    1    3    3    0    0  0.33141899885E+03 -0.32089259898E+02 -0.13382007182E+04  0.13790030586E+04  0.00000000000E+00 0. -1.
        -11    1    3    3    0    0  0.66093247869E+02 -0.45175979800E+02 -0.25651054298E+03  0.26871331419E+03  0.00000000000E+00 0.  1.
         22    1    1    2    0    0 -0.39751224672E+03  0.77265239698E+02 -0.20418613340E+03  0.45351723300E+03  0.00000000000E+00 0. -1.
<mgrwt>
<rscale>  0 0.10858871E+04</rscale>
<asrwt>0</asrwt>
<pdfrwt beam="1">  1        2 0.30001003E+00 0.10858871E+04</pdfrwt>
<pdfrwt beam="2">  1       -2 0.23256635E-01 0.10858871E+04</pdfrwt>
<totfact> 0.11590959E+02</totfact>
</mgrwt>
</event>
<event>
 6    1  0.5196787E-004  0.2407254E+03  0.7818608E-02  0.1119310E+00
         -2   -1    0    0    0  501 -0.00000000000E+00  0.00000000000E+00  0.35208341966E+03  0.35208341966E+03  0.00000000000E+00 0.  1.
          2   -1    0    0  501    0  0.00000000000E+00 -0.00000000000E+00 -0.41147022508E+02  0.41147022508E+02  0.00000000000E+00 0. -1.
         23    2    1    2    0    0 -0.10002773287E+03  0.31280613430E+02  0.18339913417E+03  0.22815537570E+03  0.86229976972E+02 0.  0.
         13    1    3    3    0    0 -0.36217607391E+02 -0.26504594760E+02  0.93345020100E+02  0.10357365208E+03  0.00000000000E+00 0.  1.
        -13    1    3    3    0    0 -0.63810125478E+02  0.57785208190E+02  0.90054114069E+02  0.12458172362E+03  0.00000000000E+00 0. -1.
         22    1    1    2    0    0  0.10002773287E+03 -0.31280613430E+02  0.12753726298E+03  0.16507506647E+03  0.00000000000E+00 0.  1.
<mgrwt>
<rscale>  0 0.24072544E+03</rscale>
<asrwt>0</asrwt>
<pdfrwt beam="1">  1        2 0.63303114E-02 0.24072544E+03</pdfrwt>
<pdfrwt beam="2">  1       -2 0.54166678E-01 0.24072544E+03</pdfrwt>
<totfact> 0.37195948E+03</totfact>
</mgrwt>
</event>
<event>
 6    1  0.5196787E-004  0.2387450E+04  0.7818608E-02  0.8444217E-01
          2   -1    0    0  501    0  0.00000000000E+00  0.00000000000E+00  0.72027081754E+03  0.72027081754E+03  0.00000000000E+00 0.  1.
         -2   -1    0    0    0  501 -0.00000000000E+00 -0.00000000000E+00 -0.19783936267E+04  0.19783936267E+04  0.00000000000E+00 0. -1.
         23    2    1    2    0    0  0.46952645799E+03  0.99187285671E+03 -0.11560421623E+04  0.15965359050E+04  0.90700364897E+02 0.  0.
         13    1    3    3    0    0  0.27739665845E+03  0.64780177853E+03 -0.69063767068E+03  0.98669977326E+03  0.00000000000E+00 0. -1.
        -13    1    3    3    0    0  0.19212979955E+03  0.34407107818E+03 -0.46540449165E+03  0.60983613173E+03  0.00000000000E+00 0.  1.
         22    1    1    2    0    0 -0.46952645799E+03 -0.99187285671E+03 -0.10208064686E+03  0.11021285393E+04  0.00000000000E+00 0.  1.
<mgrwt>
<rscale>  0 0.23874498E+04</rscale>
<asrwt>0</asrwt>
<pdfrwt beam="1">  1        2 0.11081090E+00 0.23874498E+04</pdfrwt>
<pdfrwt beam="2">  1       -2 0.30436825E+00 0.23874498E+04</pdfrwt>
<totfact> 0.10631353E+00</totfact>
</mgrwt>
</event>
<event>
 6    1  0.5196787E-004  0.2087603E+04  0.7818608E-02  0.8566724E-01
         -2   -1    0    0    0  501 -0.00000000000E+00  0.00000000000E+00  0.29980419661E+03  0.29980419661E+03  0.00000000000E+00 0. -1.
          2   -1    0    0  501    0  0.00000000000E+00 -0.00000000000E+00 -0.36341096439E+04  0.36341096439E+04  0.00000000000E+00 0.  1.
         23    2    1    2    0    0 -0.55213428034E+03 -0.88341121847E+03 -0.16650312077E+04  0.19662390372E+04  0.92192106345E+02 0.  0.
         13    1    3    3    0    0 -0.48873567356E+03 -0.76429482125E+03 -0.13893895257E+04  0.16593409495E+04  0.00000000000E+00 0. -1.
        -13    1    3    3    0    0 -0.63398606773E+02 -0.11911639723E+03 -0.27564168197E+03  0.30689808776E+03  0.00000000000E+00 0.  1.
         22    1    1    2    0    0  0.55213428034E+03  0.88341121847E+03 -0.16692742396E+04  0.19676748033E+04  0.00000000000E+00 0. -1.
<mgrwt>
<rscale>  0 0.20876028E+04</rscale>
<asrwt>0</asrwt>
<pdfrwt beam="1">  1        2 0.55909380E+00 0.20876028E+04</pdfrwt>
<pdfrwt beam="2">  1       -2 0.46123722E-01 0.20876028E+04</pdfrwt>
<totfact> 0.26971992E+00</totfact>
</mgrwt>
</event>
<event>
 6    1  0.5196787E-004  0.1921837E+04  0.7818608E-02  0.8644062E-01
          2   -1    0    0  501    0  0.00000000000E+00  0.00000000000E+00  0.20303527228E+04  0.20303527228E+04  0.00000000000E+00 0.  1.
         -2   -1    0    0    0  501 -0.00000000000E+00 -0.00000000000E+00 -0.45478021355E+03  0.45478021355E+03  0.00000000000E+00 0. -1.
         23    2    1    2    0    0  0.74648062059E+03 -0.41353717061E+03  0.22435016619E+03  0.88699397845E+03  0.90437892250E+02 0.  0.
         13    1    3    3    0    0  0.57150168197E+03 -0.27145229460E+03  0.16087640612E+03  0.65282596363E+03  0.00000000000E+00 0. -1.
        -13    1    3    3    0    0  0.17497893862E+03 -0.14208487601E+03  0.63473760073E+02  0.23416801483E+03  0.00000000000E+00 0.  1.
         22    1    1    2    0    0 -0.74648062059E+03  0.41353717061E+03  0.13512223431E+04  0.15981389579E+04  0.00000000000E+00 0.  1.
<mgrwt>
<rscale>  0 0.19218369E+04</rscale>
<asrwt>0</asrwt>
<pdfrwt beam="1">  1        2 0.31236195E+00 0.19218369E+04</pdfrwt>
<pdfrwt beam="2">  1       -2 0.69966188E-01 0.19218369E+04</pdfrwt>
<totfact> 0.11179575E+01</totfact>
</mgrwt>
</event>
<event>
 6    1  0.5196787E-004  0.1958845E+04  0.7818608E-02  0.8626107E-01
          2   -1    0    0  501    0  0.00000000000E+00  0.00000000000E+00  0.71755530688E+03  0.71755530688E+03  0.00000000000E+00 0.  1.
         -2   -1    0    0    0  501 -0.00000000000E+00 -0.00000000000E+00 -0.13368569875E+04  0.13368569875E+04  0.00000000000E+00 0. -1.
         23    2    1    2    0    0  0.89497698992E+03  0.12336413439E+03 -0.70128407443E+03  0.11472609095E+04  0.90585425471E+02 0.  0.
         13    1    3    3    0    0  0.57511695242E+03  0.67754428444E+02 -0.39543595159E+03  0.70122732644E+03  0.00000000000E+00 0.  1.
        -13    1    3    3    0    0  0.31986003750E+03  0.55609705947E+02 -0.30584812284E+03  0.44603358307E+03  0.00000000000E+00 0. -1.
         22    1    1    2    0    0 -0.89497698992E+03 -0.12336413439E+03  0.81982393836E+02  0.90715138485E+03  0.00000000000E+00 0.  1.
<mgrwt>
<rscale>  0 0.19588454E+04</rscale>
<asrwt>0</asrwt>
<pdfrwt beam="1">  1        2 0.11039312E+00 0.19588454E+04</pdfrwt>
<pdfrwt beam="2">  1       -2 0.20567031E+00 0.19588454E+04</pdfrwt>
<totfact> 0.45168074E+00</totfact>
</mgrwt>
</event>
<event>
 6    1  0.5196787E-004  0.7067543E+04  0.7818608E-02  0.7570510E-01
          2   -1    0    0  501    0  0.00000000000E+00  0.00000000000E+00  0.47166502698E+04  0.47166502698E+04  0.00000000000E+00 0.  1.
         -2   -1    0    0    0  501 -0.00000000000E+00 -0.00000000000E+00 -0.26475440623E+04  0.26475440623E+04  0.00000000000E+00 0. -1.
         23    2    1    2    0    0 -0.11020627231E+03  0.21169742490E+04 -0.19105199582E+04  0.28551867016E+04  0.90990093932E+02 0.  0.
         11    1    3    3    0    0 -0.71036528464E+02  0.13054467195E+04 -0.12372571983E+04  0.18000118612E+04  0.00000000000E+00 0.  1.
        -11    1    3    3    0    0 -0.39169743848E+02  0.81152752952E+03 -0.67326275984E+03  0.10551748404E+04  0.00000000000E+00 0. -1.
         22    1    1    2    0    0  0.11020627231E+03 -0.21169742490E+04  0.39796261656E+04  0.45090076305E+04  0.00000000000E+00 0.  1.
<mgrwt>
<rscale>  0 0.70675425E+04</rscale>
<asrwt>0</asrwt>
<pdfrwt beam="1">  1        2 0.72563850E+00 0.70675425E+04</pdfrwt>
<pdfrwt beam="2">  1       -2 0.40731447E+00 0.70675425E+04</pdfrwt>
<totfact> 0.29894630E-04</totfact>
</mgrwt>
</event>
<event>
 6    1  0.5196787E-004  0.1948558E+04  0.7818608E-02  0.8631056E-01
         -2   -1    0    0    0  501 -0.00000000000E+00  0.00000000000E+00  0.28559795987E+03  0.28559795987E+03  0.00000000000E+00 0. -1.
          2   -1    0    0  501    0  0.00000000000E+00 -0.00000000000E+00 -0.33236221804E+04  0.33236221804E+04  0.00000000000E+00 0.  1.
         23    2    1    2    0    0 -0.18727454000E+03 -0.67462212352E+03 -0.27717651673E+04  0.28601669737E+04  0.87671044812E+02 0.  0.
         13    1    3    3    0    0  0.54664876702E+00 -0.12059464596E+03 -0.47846345210E+03  0.49342744396E+03  0.00000000000E+00 0.  1.
        -13    1    3    3    0    0 -0.18782118876E+03 -0.55402747756E+03 -0.22933017152E+04  0.23667395297E+04  0.00000000000E+00 0. -1.
         22    1    1    2    0    0  0.18727454000E+03  0.67462212352E+03 -0.26625905325E+03  0.74905316655E+03  0.00000000000E+00 0. -1.
<mgrwt>
<rscale>  0 0.19485581E+04</rscale>
<asrwt>0</asrwt>
<pdfrwt beam="1">  1        2 0.51132652E+00 0.19485581E+04</pdfrwt>
<pdfrwt beam="2">  1       -2 0.43938145E-01 0.19485581E+04</pdfrwt>
<totfact> 0.49456124E+00</totfact>
</mgrwt>
</event>
<event>
 6    1  0.5196787E-004  0.1239178E+04  0.7818608E-02  0.9079239E-01
         -2   -1    0    0    0  501 -0.00000000000E+00  0.00000000000E+00  0.26580164369E+03  0.26580164369E+03  0.00000000000E+00 0. -1.
          2   -1    0    0  501    0  0.00000000000E+00 -0.00000000000E+00 -0.14442744002E+04  0.14442744002E+04  0.00000000000E+00 0.  1.
         23    2    1    2    0    0 -0.11542979282E+03  0.37278142956E+03  0.64402136379E+02  0.40737575961E+03  0.97556870889E+02 0.  0.
         11    1    3    3    0    0 -0.83184706168E+00  0.14533900643E+03  0.44107569784E+02  0.15188678834E+03  0.00000000000E+00 0. -1.
        -11    1    3    3    0    0 -0.11459794576E+03  0.22744242313E+03  0.20294566595E+02  0.25548897128E+03  0.00000000000E+00 0.  1.
         22    1    1    2    0    0  0.11542979282E+03 -0.37278142956E+03 -0.12428748929E+04  0.13027002843E+04  0.00000000000E+00 0.  1.
<mgrwt>
<rscale>  0 0.12391780E+04</rscale>
<asrwt>0</asrwt>
<pdfrwt beam="1">  1        2 0.22219605E+00 0.12391780E+04</pdfrwt>
<pdfrwt beam="2">  1       -2 0.40892562E-01 0.12391780E+04</pdfrwt>
<totfact> 0.76057274E+01</totfact>
</mgrwt>
</event>
<event>
 6    1  0.5196787E-004  0.1180249E+04  0.7818608E-02  0.9130322E-01
         -2   -1    0    0    0  501 -0.00000000000E+00  0.00000000000E+00  0.15956254824E+03  0.15956254824E+03  0.00000000000E+00 0. -1.
          2   -1    0    0  501    0  0.00000000000E+00 -0.00000000000E+00 -0.21825108505E+04  0.21825108505E+04  0.00000000000E+00 0.  1.
         23    2    1    2    0    0 -0.33738995663E+03  0.35175975658E+03 -0.36979633120E+03  0.61856582736E+03  0.91145197492E+02 0.  0.
         13    1    3    3    0    0 -0.68378050032E+02  0.12083504991E+03 -0.13271160883E+03  0.19206519240E+03  0.00000000000E+00 0. -1.
        -13    1    3    3    0    0 -0.26901190660E+03  0.23092470667E+03 -0.23708472237E+03  0.42650063497E+03  0.00000000000E+00 0.  1.
         22    1    1    2    0    0  0.33738995663E+03 -0.35175975658E+03 -0.16531519711E+04  0.17235075714E+04  0.00000000000E+00 0.  1.
<mgrwt>
<rscale>  0 0.11802491E+04</rscale>
<asrwt>0</asrwt>
<pdfrwt beam="1">  1        2 0.33577090E+00 0.11802491E+04</pdfrwt>
<pdfrwt beam="2">  1       -2 0.24548084E-01 0.11802491E+04</pdfrwt>
<totfact> 0.77622648E+01</totfact>
</mgrwt>
</event>
<event>
 6    1  0.5196787E-004  0.1273632E+04  0.7818608E-02  0.9050741E-01
         -2   -1    0    0    0  501 -0.00000000000E+00  0.00000000000E+00  0.11795480182E+03  0.11795480182E+03  0.00000000000E+00 0. -1.
          2   -1    0    0  501    0  0.00000000000E+00 -0.00000000000E+00 -0.34380490680E+04  0.34380490680E+04  0.00000000000E+00 0.  1.
         23    2    1    2    0    0  0.55530508475E+02  0.38300644133E+03 -0.30696710977E+04  0.30950382152E+04  0.81260899692E+02 0.  0.
         13    1    3    3    0    0  0.19757121484E+02  0.21895122635E+03 -0.14312166450E+04  0.14480024407E+04  0.00000000000E+00 0. -1.
        -13    1    3    3    0    0  0.35773386991E+02  0.16405521498E+03 -0.16384544526E+04  0.16470357744E+04  0.00000000000E+00 0.  1.
         22    1    1    2    0    0 -0.55530508475E+02 -0.38300644133E+03 -0.25042316850E+03  0.46096565468E+03  0.00000000000E+00 0. -1.
<mgrwt>
<rscale>  0 0.12736317E+04</rscale>
<asrwt>0</asrwt>
<pdfrwt beam="1">  1        2 0.52893070E+00 0.12736317E+04</pdfrwt>
<pdfrwt beam="2">  1       -2 0.18146890E-01 0.12736317E+04</pdfrwt>
<totfact> 0.22797184E+01</totfact>
</mgrwt>
</event>
<event>
 6    1  0.5196787E-004  0.1314821E+04  0.7818608E-02  0.9017894E-01
          1   -1    0    0  501    0  0.00000000000E+00  0.00000000000E+00  0.89275294622E+03  0.89275294622E+03  0.00000000000E+00 0. -1.
         -1   -1    0    0    0  501 -0.00000000000E+00 -0.00000000000E+00 -0.48410750287E+03  0.48410750287E+03  0.00000000000E+00 0.  1.
         23    2    1    2    0    0 -0.60032134065E+02 -0.65119653081E+03  0.18187973716E+03  0.68470189474E+03  0.89864715031E+02 0.  0.
         11    1    3    3    0    0 -0.69466600215E+02 -0.41239558311E+03  0.84612739885E+02  0.42667908464E+03  0.00000000000E+00 0.  1.
        -11    1    3    3    0    0  0.94344661504E+01 -0.23880094770E+03  0.97266997275E+02  0.25802281010E+03  0.00000000000E+00 0. -1.
         22    1    1    2    0    0  0.60032134065E+02  0.65119653081E+03  0.22676570619E+03  0.69215855435E+03  0.00000000000E+00 0. -1.
<mgrwt>
<rscale>  0 0.13148207E+04</rscale>
<asrwt>0</asrwt>
<pdfrwt beam="1">  1        1 0.13734661E+00 0.13148207E+04</pdfrwt>
<pdfrwt beam="2">  1       -1 0.74478078E-01 0.13148207E+04</pdfrwt>
<totfact> 0.32857654E+01</totfact>
</mgrwt>
</event>
<event>
 6    1  0.5196787E-004  0.8610897E+03  0.7818608E-02  0.9475572E-01
         -2   -1    0    0    0  501 -0.00000000000E+00  0.00000000000E+00  0.43423885815E+02  0.43423885815E+02  0.00000000000E+00 0. -1.
          2   -1    0    0  501    0  0.00000000000E+00 -0.00000000000E+00 -0.42688227383E+04  0.42688227383E+04  0.00000000000E+00 0.  1.
         23    2    1    2    0    0 -0.54694686454E+02 -0.23386449096E+03 -0.38977565245E+04  0.39060033424E+04  0.81682786764E+02 0.  0.
         11    1    3    3    0    0  0.64543722559E+01 -0.50728486779E+02 -0.13373958701E+04  0.13383731735E+04  0.00000000000E+00 0. -1.
        -11    1    3    3    0    0 -0.61149058710E+02 -0.18313600418E+03 -0.25603606544E+04  0.25676301689E+04  0.00000000000E+00 0.  1.
         22    1    1    2    0    0  0.54694686454E+02  0.23386449096E+03 -0.32764232800E+03  0.40624328174E+03  0.00000000000E+00 0. -1.
<mgrwt>
<rscale>  0 0.86108971E+03</rscale>
<asrwt>0</asrwt>
<pdfrwt beam="1">  1        2 0.65674183E+00 0.86108971E+03</pdfrwt>
<pdfrwt beam="2">  1       -2 0.66805991E-02 0.86108971E+03</pdfrwt>
<totfact> 0.29062390E+01</totfact>
</mgrwt>
</event>
<event>
 6    1  0.5196787E-004  0.5560994E+04  0.7818608E-02  0.7747352E-01
         -2   -1    0    0    0  501 -0.00000000000E+00  0.00000000000E+00  0.29519945203E+04  0.29519945203E+04  0.00000000000E+00 0. -1.
          2   -1    0    0  501    0  0.00000000000E+00 -0.00000000000E+00 -0.26189627328E+04  0.26189627328E+04  0.00000000000E+00 0.  1.
         23    2    1    2    0    0  0.24354633577E+04  0.15560942654E+03 -0.11667894109E+04  0.27064922616E+04  0.89480567381E+02 0.  0.
         11    1    3    3    0    0  0.10719214980E+04  0.10989734500E+03 -0.49680719526E+03  0.11865540500E+04  0.00000000000E+00 0. -1.
        -11    1    3    3    0    0  0.13635418597E+04  0.45712081541E+02 -0.66998221567E+03  0.15199382115E+04  0.00000000000E+00 0.  1.
         22    1    1    2    0    0 -0.24354633577E+04 -0.15560942654E+03  0.14998211984E+04  0.28644649915E+04  0.00000000000E+00 0. -1.
<mgrwt>
<rscale>  0 0.55609940E+04</rscale>
<asrwt>0</asrwt>
<pdfrwt beam="1">  1        2 0.40291735E+00 0.55609940E+04</pdfrwt>
<pdfrwt beam="2">  1       -2 0.45415300E+00 0.55609940E+04</pdfrwt>
<totfact> 0.67602426E-03</totfact>
</mgrwt>
</event>
<event>
 6    1  0.5196787E-004  0.1473947E+04  0.7818608E-02  0.8901965E-01
          2   -1    0    0  501    0  0.00000000000E+00  0.00000000000E+00  0.60495002908E+03  0.60495002908E+03  0.00000000000E+00 0.  1.
         -2   -1    0    0    0  501 -0.00000000000E+00 -0.00000000000E+00 -0.89780913427E+03  0.89780913427E+03  0.00000000000E+00 0. -1.
         23    2    1    2    0    0  0.57276685235E+03 -0.40887234885E+03 -0.36061031818E+03  0.79577352582E+03  0.89315385039E+02 0.  0.
         11    1    3    3    0    0  0.29274112880E+03 -0.25532213568E+03 -0.22418568694E+03  0.44849301409E+03  0.00000000000E+00 0.  1.
        -11    1    3    3    0    0  0.28002572355E+03 -0.15355021317E+03 -0.13642463124E+03  0.34728051173E+03  0.00000000000E+00 0. -1.
         22    1    1    2    0    0 -0.57276685235E+03  0.40887234885E+03  0.67751213002E+02  0.70698563753E+03  0.00000000000E+00 0.  1.
<mgrwt>
<rscale>  0 0.14739466E+04</rscale>
<asrwt>0</asrwt>
<pdfrwt beam="1">  1        2 0.93069236E-01 0.14739466E+04</pdfrwt>
<pdfrwt beam="2">  1       -2 0.13812448E+00 0.14739466E+04</pdfrwt>
<totfact> 0.17671720E+01</totfact>
</mgrwt>
</event>
<event>
 6    1  0.6822403E-004  0.2387969E+04  0.7818608E-02  0.8444021E-01
          2   -1    0    0  501    0  0.00000000000E+00  0.00000000000E+00  0.13479757652E+04  0.13479757652E+04  0.00000000000E+00 0.  1.
         -2   -1    0    0    0  501 -0.00000000000E+00 -0.00000000000E+00 -0.10575852836E+04  0.10575852836E+04  0.00000000000E+00 0. -1.
         23    2    1    2    0    0 -0.62354134407E+03  0.40307685210E+03  0.10851982610E+04  0.13179056977E+04  0.89137005563E+02 0.  0.
         13    1    3    3    0    0 -0.23163132300E+03  0.10360324680E+03  0.33957225792E+03  0.42390567452E+03  0.00000000000E+00 0. -1.
        -13    1    3    3    0    0 -0.39191002107E+03  0.29947360530E+03  0.74562600312E+03  0.89400002316E+03  0.00000000000E+00 0.  1.
         22    1    1    2    0    0  0.62354134407E+03 -0.40307685210E+03 -0.79480777942E+03  0.10876553511E+04  0.00000000000E+00 0. -1.
<mgrwt>
<rscale>  0 0.23879693E+04</rscale>
<asrwt>0</asrwt>
<pdfrwt beam="1">  1        2 0.20738089E+00 0.23879693E+04</pdfrwt>
<pdfrwt beam="2">  1       -2 0.16270543E+00 0.23879693E+04</pdfrwt>
<totfact> 0.33580780E+00</totfact>
</mgrwt>
</event>
<event>
 6    1  0.5196787E-004  0.1790371E+04  0.7818608E-02  0.8711437E-01
          2   -1    0    0  501    0  0.00000000000E+00  0.00000000000E+00  0.31458772654E+04  0.31458772654E+04  0.00000000000E+00 0.  1.
         -2   -1    0    0    0  501 -0.00000000000E+00 -0.00000000000E+00 -0.25473256372E+03  0.25473256372E+03  0.00000000000E+00 0. -1.
         23    2    1    2    0    0 -0.44063498590E+03 -0.75182551842E+03  0.10783281102E+04  0.13892160846E+04  0.87914820455E+02 0.  0.
         11    1    3    3    0    0 -0.26578969844E+03 -0.53145396144E+03  0.71365094397E+03  0.92864694408E+03  0.00000000000E+00 0.  1.
        -11    1    3    3    0    0 -0.17484528746E+03 -0.22037155698E+03  0.36467716619E+03  0.46056914054E+03  0.00000000000E+00 0. -1.
         22    1    1    2    0    0  0.44063498590E+03  0.75182551842E+03  0.18128165915E+04  0.20113937445E+04  0.00000000000E+00 0. -1.
<mgrwt>
<rscale>  0 0.17903713E+04</rscale>
<asrwt>0</asrwt>
<pdfrwt beam="1">  1        2 0.48398109E+00 0.17903713E+04</pdfrwt>
<pdfrwt beam="2">  1       -2 0.39189627E-01 0.17903713E+04</pdfrwt>
<totfact> 0.82193860E+00</totfact>
</mgrwt>
</event>
<event>
 6    1  0.5196787E-004  0.3943612E+04  0.7818608E-02  0.8016019E-01
          2   -1    0    0  501    0  0.00000000000E+00  0.00000000000E+00  0.25213270127E+04  0.25213270127E+04  0.00000000000E+00 0.  1.
         -2   -1    0    0    0  501 -0.00000000000E+00 -0.00000000000E+00 -0.15420522375E+04  0.15420522375E+04  0.00000000000E+00 0. -1.
         23    2    1    2    0    0  0.21828459497E+03 -0.80782552837E+03  0.23283891658E+04  0.24758214126E+04  0.89807077611E+02 0.  0.
         11    1    3    3    0    0  0.10946720981E+03 -0.29194219564E+03  0.96066287371E+03  0.10099933032E+04  0.00000000000E+00 0. -1.
        -11    1    3    3    0    0  0.10881738516E+03 -0.51588333273E+03  0.13677262921E+04  0.14658281094E+04  0.00000000000E+00 0.  1.
         22    1    1    2    0    0 -0.21828459497E+03  0.80782552837E+03 -0.13491143906E+04  0.15875578376E+04  0.00000000000E+00 0. -1.
<mgrwt>
<rscale>  0 0.39436115E+04</rscale>
<asrwt>0</asrwt>
<pdfrwt beam="1">  1        2 0.38789646E+00 0.39436115E+04</pdfrwt>
<pdfrwt beam="2">  1       -2 0.23723881E+00 0.39436115E+04</pdfrwt>
<totfact> 0.20659248E-01</totfact>
</mgrwt>
</event>
<event>
 6    1  0.5196787E-004  0.1955567E+04  0.7818608E-02  0.8627681E-01
          2   -1    0    0  501    0  0.00000000000E+00  0.00000000000E+00  0.89451323584E+03  0.89451323584E+03  0.00000000000E+00 0.  1.
         -2   -1    0    0    0  501 -0.00000000000E+00 -0.00000000000E+00 -0.10688058042E+04  0.10688058042E+04  0.00000000000E+00 0. -1.
         23    2    1    2    0    0 -0.74147770746E+03 -0.16822011079E+03 -0.70134302896E+03  0.10381869498E+04  0.88673006278E+02 0.  0.
         13    1    3    3    0    0 -0.21487545674E+03 -0.72138794630E+02 -0.25541280074E+03  0.34148377177E+03  0.00000000000E+00 0. -1.
        -13    1    3    3    0    0 -0.52660225072E+03 -0.96081316160E+02 -0.44593022822E+03  0.69670317799E+03  0.00000000000E+00 0.  1.
         22    1    1    2    0    0  0.74147770746E+03  0.16822011079E+03  0.52705046065E+03  0.92513209024E+03  0.00000000000E+00 0.  1.
<mgrwt>
<rscale>  0 0.19555674E+04</rscale>
<asrwt>0</asrwt>
<pdfrwt beam="1">  1        2 0.13761742E+00 0.19555674E+04</pdfrwt>
<pdfrwt beam="2">  1       -2 0.16443166E+00 0.19555674E+04</pdfrwt>
<totfact> 0.64429792E+00</totfact>
</mgrwt>
</event>
<event>
 6    1  0.7221849E-004  0.2888759E+04  0.7818608E-02  0.8276230E-01
         -2   -1    0    0    0  501 -0.00000000000E+00  0.00000000000E+00  0.10914300013E+04  0.10914300013E+04  0.00000000000E+00 0. -1.
          2   -1    0    0  501    0  0.00000000000E+00 -0.00000000000E+00 -0.19114672968E+04  0.19114672968E+04  0.00000000000E+00 0.  1.
         23    2    1    2    0    0 -0.17816056493E+03  0.13373287610E+04  0.12164055483E+03  0.13576172078E+04  0.90214503692E+02 0.  0.
         11    1    3    3    0    0 -0.77773956787E+02  0.79445928210E+03  0.10656089829E+03  0.80533816768E+03  0.00000000000E+00 0.  1.
        -11    1    3    3    0    0 -0.10038660815E+03  0.54286947886E+03  0.15079656540E+02  0.55227904017E+03  0.00000000000E+00 0. -1.
         22    1    1    2    0    0  0.17816056493E+03 -0.13373287610E+04 -0.94167785034E+03  0.16452800903E+04  0.00000000000E+00 0.  1.
<mgrwt>
<rscale>  0 0.28887594E+04</rscale>
<asrwt>0</asrwt>
<pdfrwt beam="1">  1        2 0.29407189E+00 0.28887594E+04</pdfrwt>
<pdfrwt beam="2">  1       -2 0.16791231E+00 0.28887594E+04</pdfrwt>
<totfact> 0.14260559E+00</totfact>
</mgrwt>
</event>
<event>
 6    1  0.5196787E-004  0.1967564E+04  0.7818608E-02  0.8621938E-01
         -2   -1    0    0    0  501 -0.00000000000E+00  0.00000000000E+00  0.53765793814E+03  0.53765793814E+03  0.00000000000E+00 0. -1.
          2   -1    0    0  501    0  0.00000000000E+00 -0.00000000000E+00 -0.18000793056E+04  0.18000793056E+04  0.00000000000E+00 0.  1.
         23    2    1    2    0    0  0.46450239052E+03 -0.33463978208E+03  0.31373096963E+03  0.66083460963E+03  0.10261094201E+03 0.  0.
         11    1    3    3    0    0  0.28626985653E+03 -0.26234730724E+03  0.22767266528E+03  0.45012374175E+03  0.00000000000E+00 0.  1.
        -11    1    3    3    0    0  0.17823253399E+03 -0.72292474841E+02  0.86058304352E+02  0.21071086787E+03  0.00000000000E+00 0. -1.
         22    1    1    2    0    0 -0.46450239052E+03  0.33463978208E+03 -0.15761523371E+04  0.16769026341E+04  0.00000000000E+00 0.  1.
<mgrwt>
<rscale>  0 0.19675639E+04</rscale>
<asrwt>0</asrwt>
<pdfrwt beam="1">  1        2 0.27693528E+00 0.19675639E+04</pdfrwt>
<pdfrwt beam="2">  1       -2 0.82716604E-01 0.19675639E+04</pdfrwt>
<totfact> 0.10301295E+01</totfact>
</mgrwt>
</event>
<event>
 6    1  0.5196787E-004  0.1194624E+04  0.7818608E-02  0.9117575E-01
         -1   -1    0    0    0  501 -0.00000000000E+00  0.00000000000E+00  0.26224433300E+04  0.26224433300E+04  0.00000000000E+00 0. -1.
          1   -1    0    0  501    0  0.00000000000E+00 -0.00000000000E+00 -0.13604938851E+03  0.13604938851E+03  0.00000000000E+00 0.  1.
         23    2    1    2    0    0 -0.57886791985E+03 -0.36848073101E+02  0.15437612158E+04  0.16516944963E+04  0.91924798601E+02 0.  0.
         11    1    3    3    0    0 -0.67066587877E+02  0.25355635673E+02  0.18514493314E+03  0.19854340014E+03  0.00000000000E+00 0.  1.
        -11    1    3    3    0    0 -0.51180133198E+03 -0.62203708774E+02  0.13586162827E+04  0.14531510962E+04  0.00000000000E+00 0. -1.
         22    1    1    2    0    0  0.57886791985E+03  0.36848073101E+02  0.94263272569E+03  0.11067982222E+04  0.00000000000E+00 0.  1.
<mgrwt>
<rscale>  0 0.11946243E+04</rscale>
<asrwt>0</asrwt>
<pdfrwt beam="1">  1        1 0.20930677E-01 0.11946243E+04</pdfrwt>
<pdfrwt beam="2">  1       -1 0.40345278E+00 0.11946243E+04</pdfrwt>
<totfact> 0.16831251E+00</totfact>
</mgrwt>
</event>
<event>
 6    1  0.5196787E-004  0.2160542E+04  0.7818608E-02  0.8535033E-01
          2   -1    0    0  501    0  0.00000000000E+00  0.00000000000E+00  0.23715624829E+04  0.23715624829E+04  0.00000000000E+00 0.  1.
         -2   -1    0    0    0  501 -0.00000000000E+00 -0.00000000000E+00 -0.49207452801E+03  0.49207452801E+03  0.00000000000E+00 0. -1.
         23    2    1    2    0    0 -0.96034093439E+03  0.22679772995E+03  0.15177917527E+04  0.18126774193E+04  0.91737130820E+02 0.  0.
         11    1    3    3    0    0 -0.37966262055E+03  0.44169789108E+02  0.57498148750E+03  0.69043347738E+03  0.00000000000E+00 0. -1.
        -11    1    3    3    0    0 -0.58067831383E+03  0.18262794084E+03  0.94281026520E+03  0.11222439419E+04  0.00000000000E+00 0.  1.
         22    1    1    2    0    0  0.96034093439E+03 -0.22679772995E+03  0.36169620216E+03  0.10509595916E+04  0.00000000000E+00 0.  1.
<mgrwt>
<rscale>  0 0.21605421E+04</rscale>
<asrwt>0</asrwt>
<pdfrwt beam="1">  1        2 0.36485576E+00 0.21605421E+04</pdfrwt>
<pdfrwt beam="2">  1       -2 0.75703775E-01 0.21605421E+04</pdfrwt>
<totfact> 0.59196103E+00</totfact>
</mgrwt>
</event>
<event>
 6    1  0.5196787E-004  0.5510722E+03  0.7818608E-02  0.1001246E+00
         -2   -1    0    0    0  501 -0.00000000000E+00  0.00000000000E+00  0.20207511626E+03  0.20207511626E+03  0.00000000000E+00 0. -1.
          2   -1    0    0  501    0  0.00000000000E+00 -0.00000000000E+00 -0.37570264208E+03  0.37570264208E+03  0.00000000000E+00 0.  1.
         23    2    1    2    0    0  0.20597654217E+03  0.15353145630E+03 -0.59049342766E+01  0.27097307827E+03  0.85984282851E+02 0.  0.
         11    1    3    3    0    0  0.12019635750E+03  0.38580656176E+02 -0.15704533425E+02  0.12720952699E+03  0.00000000000E+00 0. -1.
        -11    1    3    3    0    0  0.85780184673E+02  0.11495080013E+03  0.97995991480E+01  0.14376355128E+03  0.00000000000E+00 0.  1.
         22    1    1    2    0    0 -0.20597654217E+03 -0.15353145630E+03 -0.16772259154E+03  0.30680468007E+03  0.00000000000E+00 0.  1.
<mgrwt>
<rscale>  0 0.55107225E+03</rscale>
<asrwt>0</asrwt>
<pdfrwt beam="1">  1        2 0.57800406E-01 0.55107225E+03</pdfrwt>
<pdfrwt beam="2">  1       -2 0.31088480E-01 0.55107225E+03</pdfrwt>
<totfact> 0.82184741E+02</totfact>
</mgrwt>
</event>
<event>
 6    1  0.5196787E-004  0.3093363E+04  0.7818608E-02  0.8217562E-01
          2   -1    0    0  501    0  0.00000000000E+00  0.00000000000E+00  0.18978301853E+04  0.18978301853E+04  0.00000000000E+00 0.  1.
         -2   -1    0    0    0  501 -0.00000000000E+00 -0.00000000000E+00 -0.12605049035E+04  0.12605049035E+04  0.00000000000E+00 0. -1.
         23    2    1    2    0    0 -0.36032887725E+02  0.77569350691E+03 -0.10452650296E+04  0.13052001932E+04  0.89273604880E+02 0.  0.
         11    1    3    3    0    0  0.17039973524E+02  0.23491555354E+03 -0.36766491423E+03  0.43663848564E+03  0.00000000000E+00 0. -1.
        -11    1    3    3    0    0 -0.53072861249E+02  0.54077795337E+03 -0.67760011536E+03  0.86856170753E+03  0.00000000000E+00 0.  1.
         22    1    1    2    0    0  0.36032887725E+02 -0.77569350691E+03  0.16825903113E+04  0.18531348956E+04  0.00000000000E+00 0.  1.
<mgrwt>
<rscale>  0 0.30933634E+04</rscale>
<asrwt>0</asrwt>
<pdfrwt beam="1">  1        2 0.29197388E+00 0.30933634E+04</pdfrwt>
<pdfrwt beam="2">  1       -2 0.19392383E+00 0.30933634E+04</pdfrwt>
<totfact> 0.94387638E-01</totfact>
</mgrwt>
</event>
<event>
 6    1  0.5196787E-004  0.2395359E+04  0.7818608E-02  0.8441243E-01
         -2   -1    0    0    0  501 -0.00000000000E+00  0.00000000000E+00  0.83788585115E+03  0.83788585115E+03  0.00000000000E+00 0. -1.
          2   -1    0    0  501    0  0.00000000000E+00 -0.00000000000E+00 -0.17119707183E+04  0.17119707183E+04  0.00000000000E+00 0.  1.
         23    2    1    2    0    0  0.11047077734E+04 -0.23520888861E+02  0.47701932331E+02  0.11108904821E+04  0.10425781539E+03 0.  0.
         11    1    3    3    0    0  0.58175162014E+03  0.31417362366E+02  0.53244375410E+02  0.58502731706E+03  0.00000000000E+00 0.  1.
        -11    1    3    3    0    0  0.52295615326E+03 -0.54938251227E+02 -0.55424430783E+01  0.52586316505E+03  0.00000000000E+00 0. -1.
         22    1    1    2    0    0 -0.11047077734E+04  0.23520888861E+02 -0.92178679952E+03  0.14389660874E+04  0.00000000000E+00 0.  1.
<mgrwt>
<rscale>  0 0.23953589E+04</rscale>
<asrwt>0</asrwt>
<pdfrwt beam="1">  1        2 0.26338011E+00 0.23953589E+04</pdfrwt>
<pdfrwt beam="2">  1       -2 0.12890552E+00 0.23953589E+04</pdfrwt>
<totfact> 0.38552383E+00</totfact>
</mgrwt>
</event>
<event>
 6    1  0.5196787E-004  0.3247513E+04  0.7818608E-02  0.8176381E-01
          2   -1    0    0  501    0  0.00000000000E+00  0.00000000000E+00  0.34122452147E+04  0.34122452147E+04  0.00000000000E+00 0.  1.
         -2   -1    0    0    0  501 -0.00000000000E+00 -0.00000000000E+00 -0.77268339913E+03  0.77268339913E+03  0.00000000000E+00 0. -1.
         23    2    1    2    0    0 -0.35534862862E+03  0.15636859335E+04  0.10032048956E+04  0.18938480138E+04  0.94095112935E+02 0.  0.
         11    1    3    3    0    0 -0.28389339810E+03  0.11550982871E+04  0.78510201370E+03  0.14252132073E+04  0.00000000000E+00 0. -1.
        -11    1    3    3    0    0 -0.71455230519E+02  0.40858764636E+03  0.21810288190E+03  0.46863480645E+03  0.00000000000E+00 0.  1.
         22    1    1    2    0    0  0.35534862862E+03 -0.15636859335E+04  0.16363569199E+04  0.22910806000E+04  0.00000000000E+00 0.  1.
<mgrwt>
<rscale>  0 0.32475130E+04</rscale>
<asrwt>0</asrwt>
<pdfrwt beam="1">  1        2 0.52496079E+00 0.32475130E+04</pdfrwt>
<pdfrwt beam="2">  1       -2 0.11887437E+00 0.32475130E+04</pdfrwt>
<totfact> 0.42586252E-01</totfact>
</mgrwt>
</event>
<event>
 6    1  0.5196787E-004  0.2779003E+04  0.7818608E-02  0.8309817E-01
         -2   -1    0    0    0  501 -0.00000000000E+00  0.00000000000E+00  0.16998951078E+04  0.16998951078E+04  0.00000000000E+00 0. -1.
          2   -1    0    0  501    0  0.00000000000E+00 -0.00000000000E+00 -0.11357843986E+04  0.11357843986E+04  0.00000000000E+00 0.  1.
         23    2    1    2    0    0 -0.12880481498E+04 -0.34292205386E+03  0.67719817636E+03  0.14979753738E+04  0.93108964281E+02 0.  0.
         13    1    3    3    0    0 -0.11778307456E+04 -0.30921708934E+03  0.64642247566E+03  0.13786814319E+04  0.00000000000E+00 0.  1.
        -13    1    3    3    0    0 -0.11021740421E+03 -0.33704964518E+02  0.30775700704E+02  0.11929394192E+03  0.00000000000E+00 0. -1.
         22    1    1    2    0    0  0.12880481498E+04  0.34292205386E+03 -0.11308746719E+03  0.13377041326E+04  0.00000000000E+00 0.  1.
<mgrwt>
<rscale>  0 0.27790029E+04</rscale>
<asrwt>0</asrwt>
<pdfrwt beam="1">  1        2 0.17473606E+00 0.27790029E+04</pdfrwt>
<pdfrwt beam="2">  1       -2 0.26152233E+00 0.27790029E+04</pdfrwt>
<totfact> 0.98581853E-01</totfact>
</mgrwt>
</event>
<event>
 6    1  0.5196787E-004  0.3154911E+04  0.7818608E-02  0.8200828E-01
          2   -1    0    0  501    0  0.00000000000E+00  0.00000000000E+00  0.28007340189E+04  0.28007340189E+04  0.00000000000E+00 0.  1.
         -2   -1    0    0    0  501 -0.00000000000E+00 -0.00000000000E+00 -0.88846902059E+03  0.88846902059E+03  0.00000000000E+00 0. -1.
         23    2    1    2    0    0 -0.21051172331E+03  0.15608963014E+04  0.89167588074E+03  0.18124199949E+04  0.95225586459E+02 0.  0.
         11    1    3    3    0    0 -0.13557654483E+03  0.12729304653E+04  0.71164919120E+03  0.14646424616E+04  0.00000000000E+00 0. -1.
        -11    1    3    3    0    0 -0.74935178471E+02  0.28796583615E+03  0.18002668954E+03  0.34777753336E+03  0.00000000000E+00 0.  1.
         22    1    1    2    0    0  0.21051172331E+03 -0.15608963014E+04  0.10205891176E+04  0.18767830446E+04  0.00000000000E+00 0. -1.
<mgrwt>
<rscale>  0 0.31549107E+04</rscale>
<asrwt>0</asrwt>
<pdfrwt beam="1">  1        2 0.43088215E+00 0.31549107E+04</pdfrwt>
<pdfrwt beam="2">  1       -2 0.13668754E+00 0.31549107E+04</pdfrwt>
<totfact> 0.74577823E-01</totfact>
</mgrwt>
</event>
<event>
 6    1  0.5196787E-004  0.2075874E+04  0.7818608E-02  0.8571946E-01
         -2   -1    0    0    0  501 -0.00000000000E+00  0.00000000000E+00  0.19763005349E+04  0.19763005349E+04  0.00000000000E+00 0. -1.
          2   -1    0    0  501    0  0.00000000000E+00 -0.00000000000E+00 -0.54511591623E+03  0.54511591623E+03  0.00000000000E+00 0.  1.
         23    2    1    2    0    0 -0.75601359741E+03  0.70700229114E+03  0.76835076163E+03  0.12922876860E+04  0.90751151262E+02 0.  0.
         11    1    3    3    0    0 -0.45380903425E+03  0.38551965687E+03  0.48428668568E+03  0.76752956903E+03  0.00000000000E+00 0.  1.
        -11    1    3    3    0    0 -0.30220456316E+03  0.32148263427E+03  0.28406407595E+03  0.52475811702E+03  0.00000000000E+00 0. -1.
         22    1    1    2    0    0  0.75601359741E+03 -0.70700229114E+03  0.66283385707E+03  0.12291287651E+04  0.00000000000E+00 0. -1.
<mgrwt>
<rscale>  0 0.20758737E+04</rscale>
<asrwt>0</asrwt>
<pdfrwt beam="1">  1        2 0.83863988E-01 0.20758737E+04</pdfrwt>
<pdfrwt beam="2">  1       -2 0.30404623E+00 0.20758737E+04</pdfrwt>
<totfact> 0.15436501E+00</totfact>
</mgrwt>
</event>
<event>
 6    1  0.5196787E-004  0.5610646E+04  0.7818608E-02  0.7740645E-01
         -2   -1    0    0    0  501 -0.00000000000E+00  0.00000000000E+00  0.30686974701E+04  0.30686974701E+04  0.00000000000E+00 0. -1.
          2   -1    0    0  501    0  0.00000000000E+00 -0.00000000000E+00 -0.25645533790E+04  0.25645533790E+04  0.00000000000E+00 0.  1.
         23    2    1    2    0    0  0.81937604077E+03 -0.12599868619E+04 -0.21252353102E+04  0.26046240936E+04  0.92182194364E+02 0.  0.
         13    1    3    3    0    0  0.32628433469E+03 -0.47404046451E+03 -0.88736656044E+03  0.10576366302E+04  0.00000000000E+00 0. -1.
        -13    1    3    3    0    0  0.49309170608E+03 -0.78594639737E+03 -0.12378687498E+04  0.15469874634E+04  0.00000000000E+00 0.  1.
         22    1    1    2    0    0 -0.81937604077E+03  0.12599868619E+04  0.26293794013E+04  0.30286267556E+04  0.00000000000E+00 0. -1.
<mgrwt>
<rscale>  0 0.56106465E+04</rscale>
<asrwt>0</asrwt>
<pdfrwt beam="1">  1        2 0.39454667E+00 0.56106465E+04</pdfrwt>
<pdfrwt beam="2">  1       -2 0.47210730E+00 0.56106465E+04</pdfrwt>
<totfact> 0.55368057E-03</totfact>
</mgrwt>
</event>
<event>
 6    1  0.5196787E-004  0.2444072E+04  0.7818608E-02  0.8423186E-01
         -2   -1    0    0    0  501 -0.00000000000E+00  0.00000000000E+00  0.21712562155E+04  0.21712562155E+04  0.00000000000E+00 0. -1.
          2   -1    0    0  501    0  0.00000000000E+00 -0.00000000000E+00 -0.68779148545E+03  0.68779148545E+03  0.00000000000E+00 0.  1.
         23    2    1    2    0    0  0.12188059147E+04  0.50019614376E+02  0.76379398262E+03  0.14427441303E+04  0.10069537233E+03 0.  0.
         13    1    3    3    0    0  0.66234347542E+03  0.40306251075E+02  0.35812086192E+03  0.75403847717E+03  0.00000000000E+00 0.  1.
        -13    1    3    3    0    0  0.55646243929E+03  0.97133633005E+01  0.40567312069E+03  0.68870565310E+03  0.00000000000E+00 0. -1.
         22    1    1    2    0    0 -0.12188059147E+04 -0.50019614376E+02  0.71967074739E+03  0.14163035706E+04  0.00000000000E+00 0.  1.
<mgrwt>
<rscale>  0 0.24440716E+04</rscale>
<asrwt>0</asrwt>
<pdfrwt beam="1">  1        2 0.10581408E+00 0.24440716E+04</pdfrwt>
<pdfrwt beam="2">  1       -2 0.33403942E+00 0.24440716E+04</pdfrwt>
<totfact> 0.73577788E-01</totfact>
</mgrwt>
</event>
<event>
 6    1  0.5196787E-004  0.3112937E+04  0.7818608E-02  0.8212196E-01
          2   -1    0    0  501    0  0.00000000000E+00  0.00000000000E+00  0.24612483105E+04  0.24612483105E+04  0.00000000000E+00 0.  1.
         -2   -1    0    0    0  501 -0.00000000000E+00 -0.00000000000E+00 -0.98429496388E+03  0.98429496388E+03  0.00000000000E+00 0. -1.
         23    2    1    2    0    0  0.10149501092E+04  0.48123720447E+02  0.20422394175E+04  0.22827931040E+04  0.89235086644E+02 0.  0.
         13    1    3    3    0    0  0.46203905833E+03 -0.21980871833E+02  0.94231611987E+03  0.10497251640E+04  0.00000000000E+00 0.  1.
        -13    1    3    3    0    0  0.55291105086E+03  0.70104592280E+02  0.10999232977E+04  0.12330679400E+04  0.00000000000E+00 0. -1.
         22    1    1    2    0    0 -0.10149501092E+04 -0.48123720447E+02 -0.56528607093E+03  0.11627501703E+04  0.00000000000E+00 0. -1.
<mgrwt>
<rscale>  0 0.31129371E+04</rscale>
<asrwt>0</asrwt>
<pdfrwt beam="1">  1        2 0.37865359E+00 0.31129371E+04</pdfrwt>
<pdfrwt beam="2">  1       -2 0.15142999E+00 0.31129371E+04</pdfrwt>
<totfact> 0.90811896E-01</totfact>
</mgrwt>
</event>
<event>
 6    1  0.5196787E-004  0.2053533E+04  0.7818608E-02  0.8581993E-01
          2   -1    0    0  501    0  0.00000000000E+00  0.00000000000E+00  0.85376742418E+03  0.85376742418E+03  0.00000000000E+00 0.  1.
         -2   -1    0    0    0  501 -0.00000000000E+00 -0.00000000000E+00 -0.12348200786E+04  0.12348200786E+04  0.00000000000E+00 0. -1.
         23    2    1    2    0    0 -0.51470058718E+03  0.85490353750E+03  0.46439013152E+02  0.10029881850E+04  0.89732739167E+02 0.  0.
         13    1    3    3    0    0 -0.11790241298E+03  0.25989474540E+03  0.36722982085E+02  0.28774091660E+03  0.00000000000E+00 0. -1.
        -13    1    3    3    0    0 -0.39679817420E+03  0.59500879210E+03  0.97160310670E+01  0.71524726843E+03  0.00000000000E+00 0.  1.
         22    1    1    2    0    0  0.51470058718E+03 -0.85490353750E+03 -0.42749166757E+03  0.10855993178E+04  0.00000000000E+00 0. -1.
<mgrwt>
<rscale>  0 0.20535327E+04</rscale>
<asrwt>0</asrwt>
<pdfrwt beam="1">  1        2 0.13134884E+00 0.20535327E+04</pdfrwt>
<pdfrwt beam="2">  1       -2 0.18997232E+00 0.20535327E+04</pdfrwt>
<totfact> 0.45232524E+00</totfact>
</mgrwt>
</event>
<event>
 6    1  0.5196787E-004  0.3898232E+04  0.7818608E-02  0.8025397E-01
          2   -1    0    0  501    0  0.00000000000E+00  0.00000000000E+00  0.17773988178E+04  0.17773988178E+04  0.00000000000E+00 0.  1.
         -2   -1    0    0    0  501 -0.00000000000E+00 -0.00000000000E+00 -0.21374227076E+04  0.21374227076E+04  0.00000000000E+00 0. -1.
         23    2    1    2    0    0 -0.11478605403E+04  0.63570627138E+03  0.12658712108E+04  0.18255055700E+04  0.91292827508E+02 0.  0.
         13    1    3    3    0    0 -0.74511353402E+03  0.44073417917E+03  0.88331553437E+03  0.12368052104E+04  0.00000000000E+00 0. -1.
        -13    1    3    3    0    0 -0.40274700630E+03  0.19497209221E+03  0.38255567644E+03  0.58870035960E+03  0.00000000000E+00 0.  1.
         22    1    1    2    0    0  0.11478605403E+04 -0.63570627138E+03 -0.16258951006E+04  0.20893159555E+04  0.00000000000E+00 0. -1.
<mgrwt>
<rscale>  0 0.38982317E+04</rscale>
<asrwt>0</asrwt>
<pdfrwt beam="1">  1        2 0.27344597E+00 0.38982317E+04</pdfrwt>
<pdfrwt beam="2">  1       -2 0.32883426E+00 0.38982317E+04</pdfrwt>
<totfact> 0.14909380E-01</totfact>
</mgrwt>
</event>
<event>
 6    1  0.5196787E-004  0.3274680E+04  0.7818608E-02  0.8169368E-01
          2   -1    0    0  501    0  0.00000000000E+00  0.00000000000E+00  0.22233151632E+04  0.22233151632E+04  0.00000000000E+00 0.  1.
         -2   -1    0    0    0  501 -0.00000000000E+00 -0.00000000000E+00 -0.12058042161E+04  0.12058042161E+04  0.00000000000E+00 0. -1.
         23    2    1    2    0    0  0.14797591831E+04 -0.25078262137E+03 -0.17283109229E+03  0.15135272165E+04  0.91185993091E+02 0.  0.
         11    1    3    3    0    0  0.19637818136E+03 -0.20682864054E+02 -0.51368688236E+02  0.20403654847E+03  0.00000000000E+00 0. -1.
        -11    1    3    3    0    0  0.12833810018E+04 -0.23009975732E+03 -0.12146240405E+03  0.13094906680E+04  0.00000000000E+00 0.  1.
         22    1    1    2    0    0 -0.14797591831E+04  0.25078262137E+03  0.11903420394E+04  0.19155921627E+04  0.00000000000E+00 0.  1.
<mgrwt>
<rscale>  0 0.32746803E+04</rscale>
<asrwt>0</asrwt>
<pdfrwt beam="1">  1        2 0.34204849E+00 0.32746803E+04</pdfrwt>
<pdfrwt beam="2">  1       -2 0.18550834E+00 0.32746803E+04</pdfrwt>
<totfact> 0.69696613E-01</totfact>
</mgrwt>
</event>
<event>
 6    1  0.5196787E-004  0.7186735E+03  0.7818608E-02  0.9685820E-01
          2   -1    0    0  501    0  0.00000000000E+00  0.00000000000E+00  0.18832602371E+04  0.18832602371E+04  0.00000000000E+00 0.  1.
         -2   -1    0    0    0  501 -0.00000000000E+00 -0.00000000000E+00 -0.68563494768E+02  0.68563494768E+02  0.00000000000E+00 0. -1.
         23    2    1    2    0    0 -0.29661201796E+03  0.10010514769E+02  0.39875423536E+03  0.50511295128E+03  0.89751065366E+02 0.  0.
         11    1    3    3    0    0 -0.10058973706E+03 -0.19247450229E+02  0.80822697078E+02  0.13046481482E+03  0.00000000000E+00 0. -1.
        -11    1    3    3    0    0 -0.19602228090E+03  0.29257964998E+02  0.31793153828E+03  0.37464813646E+03  0.00000000000E+00 0.  1.
         22    1    1    2    0    0  0.29661201796E+03 -0.10010514769E+02  0.14159425069E+04  0.14467107806E+04  0.00000000000E+00 0.  1.
<mgrwt>
<rscale>  0 0.71867351E+03</rscale>
<asrwt>0</asrwt>
<pdfrwt beam="1">  1        2 0.28973230E+00 0.71867351E+03</pdfrwt>
<pdfrwt beam="2">  1       -2 0.10548231E-01 0.71867351E+03</pdfrwt>
<totfact> 0.49920037E+02</totfact>
</mgrwt>
</event>
<event>
 6    1  0.5196787E-004  0.1806252E+04  0.7818608E-02  0.8702982E-01
          2   -1    0    0  501    0  0.00000000000E+00  0.00000000000E+00  0.72122594693E+03  0.72122594693E+03  0.00000000000E+00 0.  1.
         -2   -1    0    0    0  501 -0.00000000000E+00 -0.00000000000E+00 -0.11309031105E+04  0.11309031105E+04  0.00000000000E+00 0. -1.
         23    2    1    2    0    0 -0.33298099069E+03  0.37303742025E+03 -0.97366245063E+03  0.10983965711E+04  0.91778006873E+02 0.  0.
         11    1    3    3    0    0 -0.11575856567E+03  0.18900865533E+03 -0.47557492367E+03  0.52468640667E+03  0.00000000000E+00 0. -1.
        -11    1    3    3    0    0 -0.21722242502E+03  0.18402876492E+03 -0.49808752696E+03  0.57371016442E+03  0.00000000000E+00 0.  1.
         22    1    1    2    0    0  0.33298099069E+03 -0.37303742025E+03  0.56398528701E+03  0.75373248639E+03  0.00000000000E+00 0.  1.
<mgrwt>
<rscale>  0 0.18062521E+04</rscale>
<asrwt>0</asrwt>
<pdfrwt beam="1">  1        2 0.11095784E+00 0.18062521E+04</pdfrwt>
<pdfrwt beam="2">  1       -2 0.17398509E+00 0.18062521E+04</pdfrwt>
<totfact> 0.74286915E+00</totfact>
</mgrwt>
</event>
<event>
 6    1  0.5196787E-004  0.4908580E+04  0.7818608E-02  0.7842766E-01
          2   -1    0    0  501    0  0.00000000000E+00  0.00000000000E+00  0.21835301718E+04  0.21835301718E+04  0.00000000000E+00 0.  1.
         -2   -1    0    0    0  501 -0.00000000000E+00 -0.00000000000E+00 -0.27586248657E+04  0.27586248657E+04  0.00000000000E+00 0. -1.
         23    2    1    2    0    0  0.18288131129E+04  0.99934468710E+03 -0.15910262648E+04  0.26236718777E+04  0.95091222341E+02 0.  0.
         11    1    3    3    0    0  0.69919848726E+03  0.33013113188E+03 -0.58265727904E+03  0.96817074612E+03  0.00000000000E+00 0.  1.
        -11    1    3    3    0    0  0.11296146257E+04  0.66921355522E+03 -0.10083689858E+04  0.16555011315E+04  0.00000000000E+00 0. -1.
         22    1    1    2    0    0 -0.18288131129E+04 -0.99934468710E+03  0.10159315709E+04  0.23184831598E+04  0.00000000000E+00 0.  1.
<mgrwt>
<rscale>  0 0.49085805E+04</rscale>
<asrwt>0</asrwt>
<pdfrwt beam="1">  1        2 0.33592772E+00 0.49085805E+04</pdfrwt>
<pdfrwt beam="2">  1       -2 0.42440383E+00 0.49085805E+04</pdfrwt>
<totfact> 0.19861188E-02</totfact>
</mgrwt>
</event>
<event>
 6    1  0.5196787E-004  0.2479719E+04  0.7818608E-02  0.8410247E-01
          1   -1    0    0  501    0  0.00000000000E+00  0.00000000000E+00  0.12753671357E+04  0.12753671357E+04  0.00000000000E+00 0.  1.
         -1   -1    0    0    0  501 -0.00000000000E+00 -0.00000000000E+00 -0.12053400774E+04  0.12053400774E+04  0.00000000000E+00 0. -1.
         23    2    1    2    0    0  0.41395306885E+02  0.11184554304E+04 -0.49472583081E+03  0.12270717210E+04  0.91078205672E+02 0.  0.
         13    1    3    3    0    0 -0.23416691002E+02  0.15290848258E+03 -0.55592438511E+02  0.16437720244E+03  0.00000000000E+00 0.  1.
        -13    1    3    3    0    0  0.64811997887E+02  0.96554694781E+03 -0.43913339230E+03  0.10626945185E+04  0.00000000000E+00 0. -1.
         22    1    1    2    0    0 -0.41395306885E+02 -0.11184554304E+04  0.56475288909E+03  0.12536354921E+04  0.00000000000E+00 0.  1.
<mgrwt>
<rscale>  0 0.24797186E+04</rscale>
<asrwt>0</asrwt>
<pdfrwt beam="1">  1        1 0.19621033E+00 0.24797186E+04</pdfrwt>
<pdfrwt beam="2">  1       -1 0.18543693E+00 0.24797186E+04</pdfrwt>
<totfact> 0.15957481E+00</totfact>
</mgrwt>
</event>
<event>
 6    1  0.5196787E-004  0.1428750E+04  0.7818608E-02  0.8933267E-01
         -1   -1    0    0    0  501 -0.00000000000E+00  0.00000000000E+00  0.11341078430E+04  0.11341078430E+04  0.00000000000E+00 0.  1.
          1   -1    0    0  501    0  0.00000000000E+00 -0.00000000000E+00 -0.44998520889E+03  0.44998520889E+03  0.00000000000E+00 0. -1.
         23    2    1    2    0    0 -0.27292559576E+03 -0.47094033371E+03 -0.16513351895E+03  0.57537644539E+03  0.86693691188E+02 0.  0.
         13    1    3    3    0    0 -0.12110147753E+03 -0.12847643167E+03 -0.51641271406E+02  0.18395266312E+03  0.00000000000E+00 0. -1.
        -13    1    3    3    0    0 -0.15182411823E+03 -0.34246390204E+03 -0.11349224754E+03  0.39142378227E+03  0.00000000000E+00 0.  1.
         22    1    1    2    0    0  0.27292559576E+03  0.47094033371E+03  0.84925615306E+03  0.10087166065E+04  0.00000000000E+00 0.  1.
<mgrwt>
<rscale>  0 0.14287502E+04</rscale>
<asrwt>0</asrwt>
<pdfrwt beam="1">  1        1 0.69228494E-01 0.14287502E+04</pdfrwt>
<pdfrwt beam="2">  1       -1 0.17447813E+00 0.14287502E+04</pdfrwt>
<totfact> 0.11365745E+01</totfact>
</mgrwt>
</event>
<event>
 6    1  0.5196787E-004  0.1867135E+04  0.7818608E-02  0.8671391E-01
          2   -1    0    0  501    0  0.00000000000E+00  0.00000000000E+00  0.14612114108E+04  0.14612114108E+04  0.00000000000E+00 0.  1.
         -2   -1    0    0    0  501 -0.00000000000E+00 -0.00000000000E+00 -0.59645600526E+03  0.59645600526E+03  0.00000000000E+00 0. -1.
         23    2    1    2    0    0  0.72316524247E+03  0.19667689677E+03 -0.17544709488E+03  0.77561008055E+03  0.95600963936E+02 0.  0.
         13    1    3    3    0    0  0.38775469949E+03  0.69416343687E+02 -0.12538126321E+03  0.41339182009E+03  0.00000000000E+00 0. -1.
        -13    1    3    3    0    0  0.33541054298E+03  0.12726055308E+03 -0.50065831670E+02  0.36221826046E+03  0.00000000000E+00 0.  1.
         22    1    1    2    0    0 -0.72316524247E+03 -0.19667689677E+03  0.10402025004E+04  0.12820573355E+04  0.00000000000E+00 0.  1.
<mgrwt>
<rscale>  0 0.18671350E+04</rscale>
<asrwt>0</asrwt>
<pdfrwt beam="1">  1        2 0.22480175E+00 0.18671350E+04</pdfrwt>
<pdfrwt beam="2">  1       -2 0.91762463E-01 0.18671350E+04</pdfrwt>
<totfact> 0.12670078E+01</totfact>
</mgrwt>
</event>
<event>
 6    1  0.5196787E-004  0.1287029E+04  0.7818608E-02  0.9039915E-01
          2   -1    0    0  501    0  0.00000000000E+00  0.00000000000E+00  0.35468421323E+03  0.35468421323E+03  0.00000000000E+00 0.  1.
         -2   -1    0    0    0  501 -0.00000000000E+00 -0.00000000000E+00 -0.11675482001E+04  0.11675482001E+04  0.00000000000E+00 0. -1.
         23    2    1    2    0    0 -0.25174985271E+03 -0.15770141699E+03  0.26202560143E+03  0.40704841404E+03  0.93719103190E+02 0.  0.
         11    1    3    3    0    0 -0.47503796358E+02 -0.31289210016E+02  0.80027139249E+01  0.57442743336E+02  0.00000000000E+00 0. -1.
        -11    1    3    3    0    0 -0.20424605635E+03 -0.12641220698E+03  0.25402288751E+03  0.34960567070E+03  0.00000000000E+00 0.  1.
         22    1    1    2    0    0  0.25174985271E+03  0.15770141699E+03 -0.10748895883E+04  0.11151839993E+04  0.00000000000E+00 0. -1.
<mgrwt>
<rscale>  0 0.12870290E+04</rscale>
<asrwt>0</asrwt>
<pdfrwt beam="1">  1        2 0.54566803E-01 0.12870290E+04</pdfrwt>
<pdfrwt beam="2">  1       -2 0.17962280E+00 0.12870290E+04</pdfrwt>
<totfact> 0.16273953E+01</totfact>
</mgrwt>
</event>
<event>
 6    1  0.5196787E-004  0.1846296E+04  0.7818608E-02  0.8682060E-01
         -2   -1    0    0    0  501 -0.00000000000E+00  0.00000000000E+00  0.35021220387E+03  0.35021220387E+03  0.00000000000E+00 0. -1.
          2   -1    0    0  501    0  0.00000000000E+00 -0.00000000000E+00 -0.24333885121E+04  0.24333885121E+04  0.00000000000E+00 0.  1.
         23    2    1    2    0    0 -0.26022819937E+03  0.64311846464E+02 -0.23724001350E+04  0.23892593014E+04  0.91776245578E+02 0.  0.
         11    1    3    3    0    0 -0.95789662501E+02 -0.11124978354E+02 -0.60687533383E+03  0.61448929641E+03  0.00000000000E+00 0. -1.
        -11    1    3    3    0    0 -0.16443853686E+03  0.75436824818E+02 -0.17655248012E+04  0.17747700050E+04  0.00000000000E+00 0.  1.
         22    1    1    2    0    0  0.26022819937E+03 -0.64311846464E+02  0.28922382675E+03  0.39434141464E+03  0.00000000000E+00 0. -1.
<mgrwt>
<rscale>  0 0.18462961E+04</rscale>
<asrwt>0</asrwt>
<pdfrwt beam="1">  1        2 0.37436746E+00 0.18462961E+04</pdfrwt>
<pdfrwt beam="2">  1       -2 0.53878801E-01 0.18462961E+04</pdfrwt>
<totfact> 0.11618259E+01</totfact>
</mgrwt>
</event>
<event>
 6    1  0.5196787E-004  0.3337408E+04  0.7818608E-02  0.8153442E-01
          2   -1    0    0  501    0  0.00000000000E+00  0.00000000000E+00  0.21236061835E+04  0.21236061835E+04  0.00000000000E+00 0.  1.
         -2   -1    0    0    0  501 -0.00000000000E+00 -0.00000000000E+00 -0.13112471233E+04  0.13112471233E+04  0.00000000000E+00 0. -1.
         23    2    1    2    0    0 -0.78480938561E+03  0.10547580531E+03  0.19167441475E+04  0.20759135222E+04  0.91966882566E+02 0.  0.
         13    1    3    3    0    0 -0.59234814903E+03  0.11654918671E+03  0.14145950641E+04  0.15380309613E+04  0.00000000000E+00 0.  1.
        -13    1    3    3    0    0 -0.19246123658E+03 -0.11073381406E+02  0.50214908339E+03  0.53788256089E+03  0.00000000000E+00 0. -1.
         22    1    1    2    0    0  0.78480938561E+03 -0.10547580531E+03 -0.11043850873E+04  0.13589397847E+04  0.00000000000E+00 0. -1.
<mgrwt>
<rscale>  0 0.33374077E+04</rscale>
<asrwt>0</asrwt>
<pdfrwt beam="1">  1        2 0.32670865E+00 0.33374077E+04</pdfrwt>
<pdfrwt beam="2">  1       -2 0.20173033E+00 0.33374077E+04</pdfrwt>
<totfact> 0.61497105E-01</totfact>
</mgrwt>
</event>
<event>
 6    1  0.5196787E-004  0.3396657E+04  0.7818608E-02  0.8138727E-01
          2   -1    0    0  501    0  0.00000000000E+00  0.00000000000E+00  0.35810951587E+04  0.35810951587E+04  0.00000000000E+00 0. -1.
         -2   -1    0    0    0  501 -0.00000000000E+00 -0.00000000000E+00 -0.80542941695E+03  0.80542941695E+03  0.00000000000E+00 0.  1.
         23    2    1    2    0    0  0.72667077829E+03  0.13039258720E+04  0.34605512303E+03  0.15349844903E+04  0.90278112024E+02 0.  0.
         13    1    3    3    0    0  0.21554835576E+03  0.44433113950E+03  0.14727775074E+03  0.51534647672E+03  0.00000000000E+00 0. -1.
        -13    1    3    3    0    0  0.51112242253E+03  0.85959473252E+03  0.19877737228E+03  0.10196380136E+04  0.00000000000E+00 0.  1.
         22    1    1    2    0    0 -0.72667077829E+03 -0.13039258720E+04  0.24296106187E+04  0.28515400853E+04  0.00000000000E+00 0. -1.
<mgrwt>
<rscale>  0 0.33966568E+04</rscale>
<asrwt>0</asrwt>
<pdfrwt beam="1">  1        2 0.55093771E+00 0.33966568E+04</pdfrwt>
<pdfrwt beam="2">  1       -2 0.12391222E+00 0.33966568E+04</pdfrwt>
<totfact> 0.28881222E-01</totfact>
</mgrwt>
</event>
<event>
 6    1  0.5196787E-004  0.3049629E+04  0.7818608E-02  0.8229699E-01
          2   -1    0    0  501    0  0.00000000000E+00  0.00000000000E+00  0.51137685679E+04  0.51137685679E+04  0.00000000000E+00 0.  1.
         -2   -1    0    0    0  501 -0.00000000000E+00 -0.00000000000E+00 -0.45466654499E+03  0.45466654499E+03  0.00000000000E+00 0. -1.
         23    2    1    2    0    0 -0.28599874479E+03 -0.11448612884E+04  0.57145850464E+03  0.13138690734E+04  0.84761240555E+02 0.  0.
         11    1    3    3    0    0 -0.74522511681E+02 -0.44102465746E+03  0.19164683161E+03  0.48660544725E+03  0.00000000000E+00 0. -1.
        -11    1    3    3    0    0 -0.21147623311E+03 -0.70383663095E+03  0.37981167303E+03  0.82726362618E+03  0.00000000000E+00 0.  1.
         22    1    1    2    0    0  0.28599874479E+03  0.11448612884E+04  0.40876435183E+04  0.42545660395E+04  0.00000000000E+00 0.  1.
<mgrwt>
<rscale>  0 0.30496291E+04</rscale>
<asrwt>0</asrwt>
<pdfrwt beam="1">  1        2 0.78673359E+00 0.30496291E+04</pdfrwt>
<pdfrwt beam="2">  1       -2 0.69948703E-01 0.30496291E+04</pdfrwt>
<totfact> 0.38601310E-02</totfact>
</mgrwt>
</event>
<event>
 6    1  0.5196787E-004  0.2347474E+04  0.7818608E-02  0.8459435E-01
         -2   -1    0    0    0  501 -0.00000000000E+00  0.00000000000E+00  0.90036784164E+03  0.90036784164E+03  0.00000000000E+00 0. -1.
          2   -1    0    0  501    0  0.00000000000E+00 -0.00000000000E+00 -0.15301059852E+04  0.15301059852E+04  0.00000000000E+00 0.  1.
         23    2    1    2    0    0  0.10465567996E+04  0.48502415294E+03 -0.53022959452E+03  0.12727037654E+04  0.90010486954E+02 0.  0.
         11    1    3    3    0    0  0.19565599923E+03  0.57270481126E+02 -0.11128248021E+03  0.23226056154E+03  0.00000000000E+00 0.  1.
        -11    1    3    3    0    0  0.85090080041E+03  0.42775367181E+03 -0.41894711431E+03  0.10404432039E+04  0.00000000000E+00 0. -1.
         22    1    1    2    0    0 -0.10465567996E+04 -0.48502415294E+03 -0.99508549053E+02  0.11577700614E+04  0.00000000000E+00 0. -1.
<mgrwt>
<rscale>  0 0.23474737E+04</rscale>
<asrwt>0</asrwt>
<pdfrwt beam="1">  1        2 0.23540092E+00 0.23474737E+04</pdfrwt>
<pdfrwt beam="2">  1       -2 0.13851813E+00 0.23474737E+04</pdfrwt>
<totfact> 0.40710628E+00</totfact>
</mgrwt>
</event>
<event>
 6    1  0.5196787E-004  0.1892527E+03  0.7818608E-02  0.1159137E+00
         -2   -1    0    0    0  501 -0.00000000000E+00  0.00000000000E+00  0.59888772879E+01  0.59888772879E+01  0.00000000000E+00 0. -1.
          2   -1    0    0  501    0  0.00000000000E+00 -0.00000000000E+00 -0.14951289074E+04  0.14951289074E+04  0.00000000000E+00 0.  1.
         23    2    1    2    0    0  0.32670078930E+01 -0.12758766584E+02 -0.14840284259E+04  0.14869902243E+04  0.92876793439E+02 0.  0.
         11    1    3    3    0    0 -0.27705573225E+02 -0.38605847115E+02 -0.53544689820E+03  0.53755129152E+03  0.00000000000E+00 0. -1.
        -11    1    3    3    0    0  0.30972581118E+02  0.25847080531E+02 -0.94858152769E+03  0.94943893276E+03  0.00000000000E+00 0.  1.
         22    1    1    2    0    0 -0.32670078930E+01  0.12758766584E+02 -0.51116042038E+01  0.14127560400E+02  0.00000000000E+00 0. -1.
<mgrwt>
<rscale>  0 0.18925267E+03</rscale>
<asrwt>0</asrwt>
<pdfrwt beam="1">  1        2 0.23001956E+00 0.18925267E+03</pdfrwt>
<pdfrwt beam="2">  1       -2 0.92136681E-03 0.18925267E+03</pdfrwt>
<totfact> 0.32266547E+04</totfact>
</mgrwt>
</event>
<event>
 6    1  0.5196787E-004  0.1149301E+04  0.7818608E-02  0.9158429E-01
          2   -1    0    0  501    0  0.00000000000E+00  0.00000000000E+00  0.25948685639E+04  0.25948685639E+04  0.00000000000E+00 0.  1.
         -2   -1    0    0    0  501 -0.00000000000E+00 -0.00000000000E+00 -0.12726010393E+03  0.12726010393E+03  0.00000000000E+00 0. -1.
         23    2    1    2    0    0 -0.48458687899E+03 -0.19874815343E+03  0.17814867038E+04  0.18589436725E+04  0.87472453552E+02 0.  0.
         11    1    3    3    0    0 -0.23606171575E+03 -0.95742891996E+02  0.71409108085E+03  0.75816746617E+03  0.00000000000E+00 0. -1.
        -11    1    3    3    0    0 -0.24852516324E+03 -0.10300526143E+03  0.10673956229E+04  0.11007762064E+04  0.00000000000E+00 0.  1.
         22    1    1    2    0    0  0.48458687899E+03  0.19874815343E+03  0.68612175619E+03  0.86318499529E+03  0.00000000000E+00 0. -1.
<mgrwt>
<rscale>  0 0.11493011E+04</rscale>
<asrwt>0</asrwt>
<pdfrwt beam="1">  1        2 0.39921051E+00 0.11493011E+04</pdfrwt>
<pdfrwt beam="2">  1       -2 0.19578479E-01 0.11493011E+04</pdfrwt>
<totfact> 0.67921074E+01</totfact>
</mgrwt>
</event>
<event>
 6    1  0.5196787E-004  0.1348742E+04  0.7818608E-02  0.8991781E-01
         -2   -1    0    0    0  501 -0.00000000000E+00  0.00000000000E+00  0.60359189224E+03  0.60359189224E+03  0.00000000000E+00 0.  1.
          2   -1    0    0  501    0  0.00000000000E+00 -0.00000000000E+00 -0.75344940766E+03  0.75344940766E+03  0.00000000000E+00 0. -1.
         23    2    1    2    0    0 -0.44599536876E+03  0.11961221377E+03 -0.56553156343E+03  0.73574920689E+03  0.91005469960E+02 0.  0.
         13    1    3    3    0    0 -0.30614218215E+03  0.41919441849E+02 -0.34273872547E+03  0.46146517662E+03  0.00000000000E+00 0.  1.
        -13    1    3    3    0    0 -0.13985318661E+03  0.77692771918E+02 -0.22279283796E+03  0.27428403027E+03  0.00000000000E+00 0. -1.
         22    1    1    2    0    0  0.44599536876E+03 -0.11961221377E+03  0.41567404802E+03  0.62129209301E+03  0.00000000000E+00 0.  1.
<mgrwt>
<rscale>  0 0.13487416E+04</rscale>
<asrwt>0</asrwt>
<pdfrwt beam="1">  1        2 0.11591529E+00 0.13487416E+04</pdfrwt>
<pdfrwt beam="2">  1       -2 0.92860291E-01 0.13487416E+04</pdfrwt>
<totfact> 0.35802601E+01</totfact>
</mgrwt>
</event>
<event>
 6    1  0.5196787E-004  0.6145049E+03  0.7818608E-02  0.9875762E-01
          2   -1    0    0  501    0  0.00000000000E+00  0.00000000000E+00  0.51308582346E+03  0.51308582346E+03  0.00000000000E+00 0.  1.
         -2   -1    0    0    0  501 -0.00000000000E+00 -0.00000000000E+00 -0.18399277071E+03  0.18399277071E+03  0.00000000000E+00 0. -1.
         23    2    1    2    0    0  0.17891672320E+03  0.15425360601E+03  0.37869327025E+03  0.45569601323E+03  0.91896108333E+02 0.  0.
         11    1    3    3    0    0  0.92659065570E+02  0.58011876421E+02  0.98574162464E+02  0.14720035918E+03  0.00000000000E+00 0.  1.
        -11    1    3    3    0    0  0.86257657629E+02  0.96241729590E+02  0.28011910779E+03  0.30849565404E+03  0.00000000000E+00 0. -1.
         22    1    1    2    0    0 -0.17891672320E+03 -0.15425360601E+03 -0.49600217506E+02  0.24138258095E+03  0.00000000000E+00 0. -1.
<mgrwt>
<rscale>  0 0.61450495E+03</rscale>
<asrwt>0</asrwt>
<pdfrwt beam="1">  1        2 0.78936280E-01 0.61450495E+03</pdfrwt>
<pdfrwt beam="2">  1       -2 0.28306580E-01 0.61450495E+03</pdfrwt>
<totfact> 0.68612245E+02</totfact>
</mgrwt>
</event>
<event>
 6    1  0.5196787E-004  0.1345786E+04  0.7818608E-02  0.8994024E-01
         -2   -1    0    0    0  501 -0.00000000000E+00  0.00000000000E+00  0.47375723892E+03  0.47375723892E+03  0.00000000000E+00 0. -1.
          2   -1    0    0  501    0  0.00000000000E+00 -0.00000000000E+00 -0.95573149602E+03  0.95573149602E+03  0.00000000000E+00 0.  1.
         23    2    1    2    0    0  0.50168140378E+03  0.29968423803E+03  0.10576425041E+03  0.60067547091E+03  0.90166907832E+02 0.  0.
         13    1    3    3    0    0  0.53955974311E+02  0.55741173481E+01 -0.19060203607E+01  0.54276614317E+02  0.00000000000E+00 0.  1.
        -13    1    3    3    0    0  0.44772542947E+03  0.29411012068E+03  0.10767027077E+03  0.54639885660E+03  0.00000000000E+00 0. -1.
         22    1    1    2    0    0 -0.50168140378E+03 -0.29968423803E+03 -0.58773850750E+03  0.82881326403E+03  0.00000000000E+00 0.  1.
<mgrwt>
<rscale>  0 0.13457856E+04</rscale>
<asrwt>0</asrwt>
<pdfrwt beam="1">  1        2 0.14703561E+00 0.13457856E+04</pdfrwt>
<pdfrwt beam="2">  1       -2 0.72885729E-01 0.13457856E+04</pdfrwt>
<totfact> 0.44748048E+01</totfact>
</mgrwt>
</event>
<event>
 6    1  0.5196787E-004  0.2541832E+04  0.7818608E-02  0.8388232E-01
         -1   -1    0    0    0  501 -0.00000000000E+00  0.00000000000E+00  0.64168481561E+03  0.64168481561E+03  0.00000000000E+00 0.  1.
          1   -1    0    0  501    0  0.00000000000E+00 -0.00000000000E+00 -0.25171665620E+04  0.25171665620E+04  0.00000000000E+00 0. -1.
         23    2    1    2    0    0  0.31672181031E+03 -0.11141812211E+04 -0.15840788229E+04  0.19644359715E+04  0.89389430666E+02 0.  0.
         11    1    3    3    0    0  0.15831404901E+03 -0.40281853261E+03 -0.57409990917E+03  0.71896927197E+03  0.00000000000E+00 0.  1.
        -11    1    3    3    0    0  0.15840776131E+03 -0.71136268845E+03 -0.10099789137E+04  0.12454666995E+04  0.00000000000E+00 0. -1.
         22    1    1    2    0    0 -0.31672181031E+03  0.11141812211E+04 -0.29140292343E+03  0.11944154061E+04  0.00000000000E+00 0.  1.
<mgrwt>
<rscale>  0 0.25418321E+04</rscale>
<asrwt>0</asrwt>
<pdfrwt beam="1">  1        1 0.38725639E+00 0.25418321E+04</pdfrwt>
<pdfrwt beam="2">  1       -1 0.98720741E-01 0.25418321E+04</pdfrwt>
<totfact> 0.11448162E+00</totfact>
</mgrwt>
</event>
<event>
 6    1  0.5196787E-004  0.1178047E+04  0.7818608E-02  0.9132292E-01
          2   -1    0    0  501    0  0.00000000000E+00  0.00000000000E+00  0.78536453152E+03  0.78536453152E+03  0.00000000000E+00 0.  1.
         -2   -1    0    0    0  501 -0.00000000000E+00 -0.00000000000E+00 -0.44176744049E+03  0.44176744049E+03  0.00000000000E+00 0. -1.
         23    2    1    2    0    0  0.13743868428E+03 -0.54793402022E+03  0.12452686809E+02  0.57232077870E+03  0.90966597543E+02 0.  0.
         11    1    3    3    0    0 -0.12851752445E+02 -0.66647220849E+02  0.50043695144E+01  0.68059263161E+02  0.00000000000E+00 0. -1.
        -11    1    3    3    0    0  0.15029043673E+03 -0.48128679937E+03  0.74483172947E+01  0.50426151553E+03  0.00000000000E+00 0.  1.
         22    1    1    2    0    0 -0.13743868428E+03  0.54793402022E+03  0.33114440422E+03  0.65481119332E+03  0.00000000000E+00 0.  1.
<mgrwt>
<rscale>  0 0.11780467E+04</rscale>
<asrwt>0</asrwt>
<pdfrwt beam="1">  1        2 0.12082531E+00 0.11780467E+04</pdfrwt>
<pdfrwt beam="2">  1       -2 0.67964222E-01 0.11780467E+04</pdfrwt>
<totfact> 0.69183266E+01</totfact>
</mgrwt>
</event>
<event>
 6    1  0.5196787E-004  0.1344820E+04  0.7818608E-02  0.8994759E-01
          1   -1    0    0  501    0  0.00000000000E+00  0.00000000000E+00  0.20691728381E+04  0.20691728381E+04  0.00000000000E+00 0.  1.
         -1   -1    0    0    0  501 -0.00000000000E+00 -0.00000000000E+00 -0.21851007215E+03  0.21851007215E+03  0.00000000000E+00 0. -1.
         23    2    1    2    0    0 -0.24700820052E+03 -0.38912728307E+02  0.19855856583E+04  0.20035501271E+04  0.95579566640E+02 0.  0.
         13    1    3    3    0    0 -0.24541566824E+03 -0.17602381185E+02  0.18001123902E+04  0.18168498318E+04  0.00000000000E+00 0. -1.
        -13    1    3    3    0    0 -0.15925322717E+01 -0.21310347122E+02  0.18547326814E+03  0.18670029526E+03  0.00000000000E+00 0.  1.
         22    1    1    2    0    0  0.24700820052E+03  0.38912728307E+02 -0.13492289244E+03  0.28413278313E+03  0.00000000000E+00 0. -1.
<mgrwt>
<rscale>  0 0.13448198E+04</rscale>
<asrwt>0</asrwt>
<pdfrwt beam="1">  1        1 0.31833427E+00 0.13448198E+04</pdfrwt>
<pdfrwt beam="2">  1       -1 0.33616936E-01 0.13448198E+04</pdfrwt>
<totfact> 0.21873767E+01</totfact>
</mgrwt>
</event>
<event>
 6    1  0.5196787E-004  0.4200724E+04  0.7818608E-02  0.7965235E-01
          2   -1    0    0  501    0  0.00000000000E+00  0.00000000000E+00  0.20026697687E+04  0.20026697687E+04  0.00000000000E+00 0.  1.
         -2   -1    0    0    0  501 -0.00000000000E+00 -0.00000000000E+00 -0.22028197492E+04  0.22028197492E+04  0.00000000000E+00 0. -1.
         23    2    1    2    0    0 -0.88343982271E+03  0.14381487914E+04 -0.13499363272E+04  0.21632489567E+04  0.92628800797E+02 0.  0.
         11    1    3    3    0    0 -0.30365937350E+03  0.41301124610E+03 -0.41022276444E+03  0.65655922884E+03  0.00000000000E+00 0. -1.
        -11    1    3    3    0    0 -0.57978044922E+03  0.10251375453E+04 -0.93971356273E+03  0.15066897279E+04  0.00000000000E+00 0.  1.
         22    1    1    2    0    0  0.88343982271E+03 -0.14381487914E+04  0.11497863467E+04  0.20422405611E+04  0.00000000000E+00 0.  1.
<mgrwt>
<rscale>  0 0.42007240E+04</rscale>
<asrwt>0</asrwt>
<pdfrwt beam="1">  1        2 0.30810304E+00 0.42007240E+04</pdfrwt>
<pdfrwt beam="2">  1       -2 0.33889535E+00 0.42007240E+04</pdfrwt>
<totfact> 0.94414465E-02</totfact>
</mgrwt>
</event>
<event>
 6    1  0.5196787E-004  0.1946437E+04  0.7818608E-02  0.8632081E-01
          2   -1    0    0  501    0  0.00000000000E+00  0.00000000000E+00  0.10783080245E+04  0.10783080245E+04  0.00000000000E+00 0.  1.
         -2   -1    0    0    0  501 -0.00000000000E+00 -0.00000000000E+00 -0.87837097941E+03  0.87837097941E+03  0.00000000000E+00 0. -1.
         23    2    1    2    0    0 -0.65819040887E+03  0.52438000874E+03 -0.38681974978E+03  0.93077815867E+03  0.92355042851E+02 0.  0.
         11    1    3    3    0    0 -0.25860291221E+03  0.19519416894E+03 -0.19794385398E+03  0.37968144427E+03  0.00000000000E+00 0. -1.
        -11    1    3    3    0    0 -0.39958749666E+03  0.32918583980E+03 -0.18887589581E+03  0.55109671440E+03  0.00000000000E+00 0.  1.
         22    1    1    2    0    0  0.65819040887E+03 -0.52438000874E+03  0.58675679483E+03  0.10259008452E+04  0.00000000000E+00 0.  1.
<mgrwt>
<rscale>  0 0.19464372E+04</rscale>
<asrwt>0</asrwt>
<pdfrwt beam="1">  1        2 0.16589354E+00 0.19464372E+04</pdfrwt>
<pdfrwt beam="2">  1       -2 0.13513400E+00 0.19464372E+04</pdfrwt>
<totfact> 0.82515989E+00</totfact>
</mgrwt>
</event>
<event>
 6    1  0.5196787E-004  0.6009556E+03  0.7818608E-02  0.9903426E-01
          2   -1    0    0  501    0  0.00000000000E+00  0.00000000000E+00  0.20437809405E+03  0.20437809405E+03  0.00000000000E+00 0.  1.
         -2   -1    0    0    0  501 -0.00000000000E+00 -0.00000000000E+00 -0.44176406086E+03  0.44176406086E+03  0.00000000000E+00 0. -1.
         23    2    1    2    0    0  0.31084418118E+02  0.14846309304E+03  0.14936713474E+03  0.23070805352E+03  0.88927689559E+02 0.  0.
         11    1    3    3    0    0  0.46719662013E+02  0.48727360114E+02  0.93512715943E+02  0.11533304160E+03  0.00000000000E+00 0.  1.
        -11    1    3    3    0    0 -0.15635243895E+02  0.99735732929E+02  0.55854418800E+02  0.11537501191E+03  0.00000000000E+00 0. -1.
         22    1    1    2    0    0 -0.31084418118E+02 -0.14846309304E+03 -0.38675310155E+03  0.41543410140E+03  0.00000000000E+00 0. -1.
<mgrwt>
<rscale>  0 0.60095556E+03</rscale>
<asrwt>0</asrwt>
<pdfrwt beam="1">  1        2 0.31442784E-01 0.60095556E+03</pdfrwt>
<pdfrwt beam="2">  1       -2 0.67963701E-01 0.60095556E+03</pdfrwt>
<totfact> 0.33801005E+02</totfact>
</mgrwt>
</event>
<event>
 6    1  0.5196787E-004  0.1298595E+04  0.7818608E-02  0.9030680E-01
         -2   -1    0    0    0  501 -0.00000000000E+00  0.00000000000E+00  0.13581875473E+04  0.13581875473E+04  0.00000000000E+00 0. -1.
          2   -1    0    0  501    0  0.00000000000E+00 -0.00000000000E+00 -0.31040436197E+03  0.31040436197E+03  0.00000000000E+00 0.  1.
         23    2    1    2    0    0  0.17106561356E+03 -0.62287808271E+03  0.54342664248E+03  0.84907005331E+03  0.91470703582E+02 0.  0.
         11    1    3    3    0    0  0.59348754702E+02 -0.11380062091E+03  0.77175943396E+02  0.14976308705E+03  0.00000000000E+00 0.  1.
        -11    1    3    3    0    0  0.11171685885E+03 -0.50907746180E+03  0.46625069908E+03  0.69930696626E+03  0.00000000000E+00 0. -1.
         22    1    1    2    0    0 -0.17106561356E+03  0.62287808271E+03  0.50435654286E+03  0.81952185596E+03  0.00000000000E+00 0.  1.
<mgrwt>
<rscale>  0 0.12985951E+04</rscale>
<asrwt>0</asrwt>
<pdfrwt beam="1">  1        2 0.47754518E-01 0.12985951E+04</pdfrwt>
<pdfrwt beam="2">  1       -2 0.20895193E+00 0.12985951E+04</pdfrwt>
<totfact> 0.12043103E+01</totfact>
</mgrwt>
</event>
<event>
 6    1  0.5196787E-004  0.1068004E+04  0.7818608E-02  0.9236951E-01
          1   -1    0    0  501    0  0.00000000000E+00  0.00000000000E+00  0.16087910813E+04  0.16087910813E+04  0.00000000000E+00 0.  1.
         -1   -1    0    0    0  501 -0.00000000000E+00 -0.00000000000E+00 -0.17725004944E+03  0.17725004944E+03  0.00000000000E+00 0. -1.
         23    2    1    2    0    0  0.35393207324E+03 -0.50735696352E+02  0.66390385903E+02  0.37484365714E+03  0.90873871939E+02 0.  0.
         13    1    3    3    0    0  0.24045705894E+03 -0.45421652412E+01  0.12008428648E+02  0.24079956565E+03  0.00000000000E+00 0. -1.
        -13    1    3    3    0    0  0.11347501430E+03 -0.46193531111E+02  0.54381957255E+02  0.13404409149E+03  0.00000000000E+00 0.  1.
         22    1    1    2    0    0 -0.35393207324E+03  0.50735696352E+02  0.13651506460E+04  0.14111974736E+04  0.00000000000E+00 0.  1.
<mgrwt>
<rscale>  0 0.10680043E+04</rscale>
<asrwt>0</asrwt>
<pdfrwt beam="1">  1        1 0.24750631E+00 0.10680043E+04</pdfrwt>
<pdfrwt beam="2">  1       -1 0.27269239E-01 0.10680043E+04</pdfrwt>
<totfact> 0.66263525E+01</totfact>
</mgrwt>
</event>
<event>
 6    1  0.5196787E-004  0.1877458E+04  0.7818608E-02  0.8666159E-01
         -2   -1    0    0    0  501 -0.00000000000E+00  0.00000000000E+00  0.17827971103E+04  0.17827971103E+04  0.00000000000E+00 0. -1.
          2   -1    0    0  501    0  0.00000000000E+00 -0.00000000000E+00 -0.49428637178E+03  0.49428637178E+03  0.00000000000E+00 0.  1.
         23    2    1    2    0    0 -0.21207363912E+03 -0.23774698370E+02  0.17517128313E+04  0.17670867729E+04  0.92505971931E+02 0.  0.
         11    1    3    3    0    0 -0.12239508235E+03 -0.56434232349E+02  0.89848933796E+03  0.90854194686E+03  0.00000000000E+00 0. -1.
        -11    1    3    3    0    0 -0.89678556764E+02  0.32659533979E+02  0.85322349333E+03  0.85854482601E+03  0.00000000000E+00 0.  1.
         22    1    1    2    0    0  0.21207363912E+03  0.23774698370E+02 -0.46320209275E+03  0.50999670922E+03  0.00000000000E+00 0.  1.
<mgrwt>
<rscale>  0 0.18774582E+04</rscale>
<asrwt>0</asrwt>
<pdfrwt beam="1">  1        2 0.76044058E-01 0.18774582E+04</pdfrwt>
<pdfrwt beam="2">  1       -2 0.27427647E+00 0.18774582E+04</pdfrwt>
<totfact> 0.26738139E+00</totfact>
</mgrwt>
</event>
<event>
 6    1  0.5196787E-004  0.4635928E+04  0.7818608E-02  0.7887263E-01
          2   -1    0    0  501    0  0.00000000000E+00  0.00000000000E+00  0.33256025412E+04  0.33256025412E+04  0.00000000000E+00 0.  1.
         -2   -1    0    0    0  501 -0.00000000000E+00 -0.00000000000E+00 -0.16156343898E+04  0.16156343898E+04  0.00000000000E+00 0. -1.
         23    2    1    2    0    0  0.18523149520E+03  0.22986356435E+04  0.10917686816E+04  0.25537262791E+04  0.10734302997E+03 0.  0.
         13    1    3    3    0    0  0.14255200078E+02  0.57817116411E+03  0.31108055359E+03  0.65670101001E+03  0.00000000000E+00 0.  1.
        -13    1    3    3    0    0  0.17097629512E+03  0.17204644794E+04  0.78068812804E+03  0.18970252691E+04  0.00000000000E+00 0. -1.
         22    1    1    2    0    0 -0.18523149520E+03 -0.22986356435E+04  0.61819946974E+03  0.23875106519E+04  0.00000000000E+00 0. -1.
<mgrwt>
<rscale>  0 0.46359283E+04</rscale>
<asrwt>0</asrwt>
<pdfrwt beam="1">  1        2 0.51163116E+00 0.46359283E+04</pdfrwt>
<pdfrwt beam="2">  1       -2 0.24855914E+00 0.46359283E+04</pdfrwt>
<totfact> 0.52561363E-02</totfact>
</mgrwt>
</event>
<event>
 6    1  0.5630180E-004  0.2107372E+04  0.7818608E-02  0.8558003E-01
         -2   -1    0    0    0  501 -0.00000000000E+00  0.00000000000E+00  0.89889376425E+03  0.89889376425E+03  0.00000000000E+00 0. -1.
          2   -1    0    0  501    0  0.00000000000E+00 -0.00000000000E+00 -0.12351340254E+04  0.12351340254E+04  0.00000000000E+00 0.  1.
         23    2    1    2    0    0 -0.21552429988E+03  0.32165950640E+03 -0.11586317072E+04  0.12250485532E+04  0.91656767722E+02 0.  0.
         11    1    3    3    0    0 -0.58700279915E+02  0.55050854411E+02 -0.35352926449E+03  0.36257311026E+03  0.00000000000E+00 0.  1.
        -11    1    3    3    0    0 -0.15682401996E+03  0.26660865199E+03 -0.80510244267E+03  0.86247544299E+03  0.00000000000E+00 0. -1.
         22    1    1    2    0    0  0.21552429988E+03 -0.32165950640E+03  0.82239144597E+03  0.90897923645E+03  0.00000000000E+00 0. -1.
<mgrwt>
<rscale>  0 0.21073721E+04</rscale>
<asrwt>0</asrwt>
<pdfrwt beam="1">  1        2 0.19002062E+00 0.21073721E+04</pdfrwt>
<pdfrwt beam="2">  1       -2 0.13829135E+00 0.21073721E+04</pdfrwt>
<totfact> 0.61648151E+00</totfact>
</mgrwt>
</event>
<event>
 6    1  0.5196787E-004  0.3309090E+04  0.7818608E-02  0.8160586E-01
         -2   -1    0    0    0  501 -0.00000000000E+00  0.00000000000E+00  0.14902609981E+04  0.14902609981E+04  0.00000000000E+00 0. -1.
          2   -1    0    0  501    0  0.00000000000E+00 -0.00000000000E+00 -0.18369388728E+04  0.18369388728E+04  0.00000000000E+00 0.  1.
         23    2    1    2    0    0 -0.76752072555E+03  0.93559227764E+03 -0.13062279038E+04  0.17828044447E+04  0.87973730148E+02 0.  0.
         11    1    3    3    0    0 -0.19127565254E+03  0.26457865202E+03 -0.40268010120E+03  0.51840090882E+03  0.00000000000E+00 0. -1.
        -11    1    3    3    0    0 -0.57624507301E+03  0.67101362562E+03 -0.90354780261E+03  0.12644035359E+04  0.00000000000E+00 0.  1.
         22    1    1    2    0    0  0.76752072555E+03 -0.93559227764E+03  0.95955002912E+03  0.15443954262E+04  0.00000000000E+00 0. -1.
<mgrwt>
<rscale>  0 0.33090895E+04</rscale>
<asrwt>0</asrwt>
<pdfrwt beam="1">  1        2 0.28260598E+00 0.33090895E+04</pdfrwt>
<pdfrwt beam="2">  1       -2 0.22927092E+00 0.33090895E+04</pdfrwt>
<totfact> 0.59357942E-01</totfact>
</mgrwt>
</event>
<event>
 6    1  0.5196787E-004  0.8915647E+03  0.7818608E-02  0.9436188E-01
          2   -1    0    0  501    0  0.00000000000E+00  0.00000000000E+00  0.14791167379E+04  0.14791167379E+04  0.00000000000E+00 0.  1.
         -2   -1    0    0    0  501 -0.00000000000E+00 -0.00000000000E+00 -0.13435173051E+03  0.13435173051E+03  0.00000000000E+00 0. -1.
         23    2    1    2    0    0  0.23226555635E+03 -0.32061464394E+03  0.32703252607E+03  0.52144262527E+03  0.90615118849E+02 0.  0.
         13    1    3    3    0    0  0.17725469409E+03 -0.18816451042E+03  0.17342904292E+03  0.31129205336E+03  0.00000000000E+00 0. -1.
        -13    1    3    3    0    0  0.55010862257E+02 -0.13245013352E+03  0.15360348316E+03  0.21015057191E+03  0.00000000000E+00 0.  1.
         22    1    1    2    0    0 -0.23226555635E+03  0.32061464394E+03  0.10177324813E+04  0.10920258431E+04  0.00000000000E+00 0.  1.
<mgrwt>
<rscale>  0 0.89156468E+03</rscale>
<asrwt>0</asrwt>
<pdfrwt beam="1">  1        2 0.22755641E+00 0.89156468E+03</pdfrwt>
<pdfrwt beam="2">  1       -2 0.20669498E-01 0.89156468E+03</pdfrwt>
<totfact> 0.26384064E+02</totfact>
</mgrwt>
</event>
<event>
 6    1  0.5196787E-004  0.1341172E+04  0.7818608E-02  0.8997538E-01
          2   -1    0    0  501    0  0.00000000000E+00  0.00000000000E+00  0.11481329374E+04  0.11481329374E+04  0.00000000000E+00 0. -1.
         -2   -1    0    0    0  501 -0.00000000000E+00 -0.00000000000E+00 -0.39166659306E+03  0.39166659306E+03  0.00000000000E+00 0.  1.
         23    2    1    2    0    0 -0.18372735166E+03 -0.39967785305E+03 -0.19643817686E+03  0.49026384622E+03  0.90953590447E+02 0.  0.
         13    1    3    3    0    0 -0.69494995547E+02 -0.21760237913E+03 -0.61829775715E+02  0.23665010242E+03  0.00000000000E+00 0.  1.
        -13    1    3    3    0    0 -0.11423235611E+03 -0.18207547392E+03 -0.13460840114E+03  0.25361374380E+03  0.00000000000E+00 0. -1.
         22    1    1    2    0    0  0.18372735166E+03  0.39967785305E+03  0.95290452121E+03  0.10495356842E+04  0.00000000000E+00 0. -1.
<mgrwt>
<rscale>  0 0.13411716E+04</rscale>
<asrwt>0</asrwt>
<pdfrwt beam="1">  1        2 0.17663584E+00 0.13411716E+04</pdfrwt>
<pdfrwt beam="2">  1       -2 0.60256399E-01 0.13411716E+04</pdfrwt>
<totfact> 0.51064913E+01</totfact>
</mgrwt>
</event>
<event>
 6    1  0.5196787E-004  0.2678991E+04  0.7818608E-02  0.8341854E-01
         -2   -1    0    0    0  501 -0.00000000000E+00  0.00000000000E+00  0.70563982310E+03  0.70563982310E+03  0.00000000000E+00 0. -1.
          2   -1    0    0  501    0  0.00000000000E+00 -0.00000000000E+00 -0.25427257257E+04  0.25427257257E+04  0.00000000000E+00 0.  1.
         23    2    1    2    0    0  0.10973199386E+03  0.30074090459E+03 -0.24947551837E+04  0.25169182947E+04  0.92671858520E+02 0.  0.
         11    1    3    3    0    0  0.16944234188E+02  0.17302403014E+03 -0.14284893644E+04  0.14390296336E+04  0.00000000000E+00 0. -1.
        -11    1    3    3    0    0  0.92787759674E+02  0.12771687445E+03 -0.10662658192E+04  0.10778886611E+04  0.00000000000E+00 0.  1.
         22    1    1    2    0    0 -0.10973199386E+03 -0.30074090459E+03  0.65766928113E+03  0.73144725409E+03  0.00000000000E+00 0. -1.
<mgrwt>
<rscale>  0 0.26789913E+04</rscale>
<asrwt>0</asrwt>
<pdfrwt beam="1">  1        2 0.39118858E+00 0.26789913E+04</pdfrwt>
<pdfrwt beam="2">  1       -2 0.10855997E+00 0.26789913E+04</pdfrwt>
<totfact> 0.19592045E+00</totfact>
</mgrwt>
</event>
<event>
 6    1  0.5196787E-004  0.2902408E+04  0.7818608E-02  0.8272161E-01
         -2   -1    0    0    0  501 -0.00000000000E+00  0.00000000000E+00  0.14693449264E+04  0.14693449264E+04  0.00000000000E+00 0. -1.
          2   -1    0    0  501    0  0.00000000000E+00 -0.00000000000E+00 -0.14332874055E+04  0.14332874055E+04  0.00000000000E+00 0.  1.
         23    2    1    2    0    0  0.73914128398E+03  0.84842262006E+03  0.93227284974E+03  0.14641078463E+04  0.91259735705E+02 0.  0.
         13    1    3    3    0    0  0.46159202642E+03  0.46327034370E+03  0.55417343448E+03  0.85720172987E+03  0.00000000000E+00 0. -1.
        -13    1    3    3    0    0  0.27754925756E+03  0.38515227636E+03  0.37809941526E+03  0.60690611645E+03  0.00000000000E+00 0.  1.
         22    1    1    2    0    0 -0.73914128398E+03 -0.84842262006E+03 -0.89621532891E+03  0.14385244856E+04  0.00000000000E+00 0.  1.
<mgrwt>
<rscale>  0 0.29024084E+04</rscale>
<asrwt>0</asrwt>
<pdfrwt beam="1">  1        2 0.22050575E+00 0.29024084E+04</pdfrwt>
<pdfrwt beam="2">  1       -2 0.22605307E+00 0.29024084E+04</pdfrwt>
<totfact> 0.10818145E+00</totfact>
</mgrwt>
</event>
<event>
 6    1  0.5196787E-004  0.3070501E+04  0.7818608E-02  0.8223881E-01
         -2   -1    0    0    0  501 -0.00000000000E+00  0.00000000000E+00  0.18668292540E+04  0.18668292540E+04  0.00000000000E+00 0. -1.
          2   -1    0    0  501    0  0.00000000000E+00 -0.00000000000E+00 -0.12625650814E+04  0.12625650814E+04  0.00000000000E+00 0.  1.
         23    2    1    2    0    0  0.28818967867E+02 -0.84966459809E+03  0.16036375589E+04  0.18173319789E+04  0.91003510283E+02 0.  0.
         11    1    3    3    0    0 -0.31081658951E+02 -0.37528206373E+03  0.73023021413E+03  0.82160748689E+03  0.00000000000E+00 0. -1.
        -11    1    3    3    0    0  0.59900626818E+02 -0.47438253436E+03  0.87340734479E+03  0.99572449199E+03  0.00000000000E+00 0.  1.
         22    1    1    2    0    0 -0.28818967867E+02  0.84966459809E+03 -0.99937338627E+03  0.13120623565E+04  0.00000000000E+00 0.  1.
<mgrwt>
<rscale>  0 0.30705006E+04</rscale>
<asrwt>0</asrwt>
<pdfrwt beam="1">  1        2 0.19424078E+00 0.30705006E+04</pdfrwt>
<pdfrwt beam="2">  1       -2 0.28720450E+00 0.30705006E+04</pdfrwt>
<totfact> 0.56317521E-01</totfact>
</mgrwt>
</event>
<event>
 6    1  0.5196787E-004  0.2519423E+04  0.7818608E-02  0.8396098E-01
          2   -1    0    0  501    0  0.00000000000E+00  0.00000000000E+00  0.78850431560E+03  0.78850431560E+03  0.00000000000E+00 0.  1.
         -2   -1    0    0    0  501 -0.00000000000E+00 -0.00000000000E+00 -0.20125107214E+04  0.20125107214E+04  0.00000000000E+00 0. -1.
         23    2    1    2    0    0  0.72804563799E+02  0.18350934158E+03 -0.19941519472E+04  0.20059676560E+04  0.91038812614E+02 0.  0.
         13    1    3    3    0    0  0.83119816647E+02  0.18775919174E+03 -0.19251737999E+04  0.19360931222E+04  0.00000000000E+00 0. -1.
        -13    1    3    3    0    0 -0.10315252848E+02 -0.42498501649E+01 -0.68978147350E+02  0.69874533841E+02  0.00000000000E+00 0.  1.
         22    1    1    2    0    0 -0.72804563799E+02 -0.18350934158E+03  0.77014554145E+03  0.79504738096E+03  0.00000000000E+00 0.  1.
<mgrwt>
<rscale>  0 0.25194233E+04</rscale>
<asrwt>0</asrwt>
<pdfrwt beam="1">  1        2 0.12130836E+00 0.25194233E+04</pdfrwt>
<pdfrwt beam="2">  1       -2 0.30961703E+00 0.25194233E+04</pdfrwt>
<totfact> 0.86775506E-01</totfact>
</mgrwt>
</event>
<event>
 6    1  0.6278809E-004  0.3473794E+04  0.7818608E-02  0.8120029E-01
         -2   -1    0    0    0  501 -0.00000000000E+00  0.00000000000E+00  0.95680629626E+03  0.95680629626E+03  0.00000000000E+00 0. -1.
          2   -1    0    0  501    0  0.00000000000E+00 -0.00000000000E+00 -0.31530011764E+04  0.31530011764E+04  0.00000000000E+00 0.  1.
         23    2    1    2    0    0 -0.13757912518E+04 -0.87527400834E+03 -0.39526301404E+03  0.16803503842E+04  0.91860792471E+02 0.  0.
         11    1    3    3    0    0 -0.81355710518E+03 -0.52153717593E+03 -0.28044634611E+03  0.10062436794E+04  0.00000000000E+00 0. -1.
        -11    1    3    3    0    0 -0.56223414665E+03 -0.35373683241E+03 -0.11481666793E+03  0.67410670483E+03  0.00000000000E+00 0.  1.
         22    1    1    2    0    0  0.13757912518E+04  0.87527400834E+03 -0.18009318661E+04  0.24294570885E+04  0.00000000000E+00 0.  1.
<mgrwt>
<rscale>  0 0.34737941E+04</rscale>
<asrwt>0</asrwt>
<pdfrwt beam="1">  1        2 0.48507710E+00 0.34737941E+04</pdfrwt>
<pdfrwt beam="2">  1       -2 0.14720097E+00 0.34737941E+04</pdfrwt>
<totfact> 0.36045570E-01</totfact>
</mgrwt>
</event>
<event>
 6    1  0.5196787E-004  0.3561542E+04  0.7818608E-02  0.8099358E-01
          2   -1    0    0  501    0  0.00000000000E+00  0.00000000000E+00  0.18382590451E+04  0.18382590451E+04  0.00000000000E+00 0.  1.
         -2   -1    0    0    0  501 -0.00000000000E+00 -0.00000000000E+00 -0.17250812267E+04  0.17250812267E+04  0.00000000000E+00 0. -1.
         23    2    1    2    0    0 -0.14535177763E+04 -0.83261010763E+03 -0.54482522501E+03  0.17636398738E+04  0.87393141104E+02 0.  0.
         13    1    3    3    0    0 -0.35771479220E+03 -0.16386314986E+03 -0.11723763773E+03  0.41055531678E+03  0.00000000000E+00 0. -1.
        -13    1    3    3    0    0 -0.10958029841E+04 -0.66874695777E+03 -0.42758758728E+03  0.13530845570E+04  0.00000000000E+00 0.  1.
         22    1    1    2    0    0  0.14535177763E+04  0.83261010763E+03  0.65800304338E+03  0.17997003980E+04  0.00000000000E+00 0.  1.
<mgrwt>
<rscale>  0 0.35615425E+04</rscale>
<asrwt>0</asrwt>
<pdfrwt beam="1">  1        2 0.28280908E+00 0.35615425E+04</pdfrwt>
<pdfrwt beam="2">  1       -2 0.26539711E+00 0.35615425E+04</pdfrwt>
<totfact> 0.34741269E-01</totfact>
</mgrwt>
</event>
<event>
 6    1  0.5196787E-004  0.6370934E+03  0.7818608E-02  0.9831303E-01
         -2   -1    0    0    0  501 -0.00000000000E+00  0.00000000000E+00  0.97103721730E+02  0.97103721730E+02  0.00000000000E+00 0. -1.
          2   -1    0    0  501    0  0.00000000000E+00 -0.00000000000E+00 -0.10449858261E+04  0.10449858261E+04  0.00000000000E+00 0.  1.
         23    2    1    2    0    0 -0.26992598731E+03  0.35394515106E+02 -0.20828211511E+03  0.35397727510E+03  0.88349654702E+02 0.  0.
         11    1    3    3    0    0 -0.20428627198E+03  0.56828521671E+02 -0.12636905121E+03  0.24684306533E+03  0.00000000000E+00 0. -1.
        -11    1    3    3    0    0 -0.65639715323E+02 -0.21434006565E+02 -0.81913063902E+02  0.10713420977E+03  0.00000000000E+00 0.  1.
         22    1    1    2    0    0  0.26992598731E+03 -0.35394515106E+02 -0.73959998924E+03  0.78811227271E+03  0.00000000000E+00 0.  1.
<mgrwt>
<rscale>  0 0.63709344E+03</rscale>
<asrwt>0</asrwt>
<pdfrwt beam="1">  1        2 0.16076704E+00 0.63709344E+03</pdfrwt>
<pdfrwt beam="2">  1       -2 0.14939035E-01 0.63709344E+03</pdfrwt>
<totfact> 0.83887414E+02</totfact>
</mgrwt>
</event>
<event>
 6    1  0.5196787E-004  0.1878529E+04  0.7818608E-02  0.8665618E-01
          1   -1    0    0  501    0  0.00000000000E+00  0.00000000000E+00  0.59327998893E+03  0.59327998893E+03  0.00000000000E+00 0.  1.
         -1   -1    0    0    0  501 -0.00000000000E+00 -0.00000000000E+00 -0.14870174695E+04  0.14870174695E+04  0.00000000000E+00 0. -1.
         23    2    1    2    0    0 -0.32031916026E+03  0.84833047947E+03 -0.70720448056E+03  0.11545202029E+04  0.10251709462E+03 0.  0.
         13    1    3    3    0    0 -0.22779726716E+03  0.69343030189E+03 -0.59833006565E+03  0.94378813616E+03  0.00000000000E+00 0.  1.
        -13    1    3    3    0    0 -0.92521893099E+02  0.15490017758E+03 -0.10887441492E+03  0.21073206671E+03  0.00000000000E+00 0. -1.
         22    1    1    2    0    0  0.32031916026E+03 -0.84833047947E+03 -0.18653300001E+03  0.92577725556E+03  0.00000000000E+00 0.  1.
<mgrwt>
<rscale>  0 0.18785289E+04</rscale>
<asrwt>0</asrwt>
<pdfrwt beam="1">  1        1 0.91273844E-01 0.18785289E+04</pdfrwt>
<pdfrwt beam="2">  1       -1 0.22877192E+00 0.18785289E+04</pdfrwt>
<totfact> 0.31379410E+00</totfact>
</mgrwt>
</event>
<event>
 6    1  0.5196787E-004  0.3526020E+04  0.7818608E-02  0.8107651E-01
          2   -1    0    0  501    0  0.00000000000E+00  0.00000000000E+00  0.14921021494E+04  0.14921021494E+04  0.00000000000E+00 0.  1.
         -2   -1    0    0    0  501 -0.00000000000E+00 -0.00000000000E+00 -0.20831039663E+04  0.20831039663E+04  0.00000000000E+00 0. -1.
         23    2    1    2    0    0  0.15427643439E+04  0.73747508234E+03 -0.72671873924E+03  0.18598605525E+04  0.83485514337E+02 0.  0.
         11    1    3    3    0    0  0.64460049636E+03  0.32704446792E+03 -0.26645067046E+03  0.77036604526E+03  0.00000000000E+00 0.  1.
        -11    1    3    3    0    0  0.89816384754E+03  0.41043061442E+03 -0.46026806878E+03  0.10894945073E+04  0.00000000000E+00 0. -1.
         22    1    1    2    0    0 -0.15427643439E+04 -0.73747508234E+03  0.13571692232E+03  0.17153455631E+04  0.00000000000E+00 0. -1.
<mgrwt>
<rscale>  0 0.35260198E+04</rscale>
<asrwt>0</asrwt>
<pdfrwt beam="1">  1        2 0.22955418E+00 0.35260198E+04</pdfrwt>
<pdfrwt beam="2">  1       -2 0.32047753E+00 0.35260198E+04</pdfrwt>
<totfact> 0.25004360E-01</totfact>
</mgrwt>
</event>
<event>
 6    1  0.5196787E-004  0.1645639E+04  0.7818608E-02  0.8792991E-01
          2   -1    0    0  501    0  0.00000000000E+00  0.00000000000E+00  0.11802717964E+04  0.11802717964E+04  0.00000000000E+00 0.  1.
         -2   -1    0    0    0  501 -0.00000000000E+00 -0.00000000000E+00 -0.57362351232E+03  0.57362351232E+03  0.00000000000E+00 0. -1.
         23    2    1    2    0    0  0.68709664389E+03 -0.42370256867E+03  0.45247068630E+03  0.93207026868E+03  0.11135348697E+03 0.  0.
         13    1    3    3    0    0  0.32916695761E+03 -0.16762676246E+03  0.26002595929E+03  0.45173345789E+03  0.00000000000E+00 0.  1.
        -13    1    3    3    0    0  0.35792968628E+03 -0.25607580621E+03  0.19244472701E+03  0.48033681079E+03  0.00000000000E+00 0. -1.
         22    1    1    2    0    0 -0.68709664389E+03  0.42370256867E+03  0.15417759774E+03  0.82182504001E+03  0.00000000000E+00 0.  1.
<mgrwt>
<rscale>  0 0.16456387E+04</rscale>
<asrwt>0</asrwt>
<pdfrwt beam="1">  1        2 0.18158028E+00 0.16456387E+04</pdfrwt>
<pdfrwt beam="2">  1       -2 0.88249771E-01 0.16456387E+04</pdfrwt>
<totfact> 0.20569730E+01</totfact>
</mgrwt>
</event>
<event>
 6    1  0.5196787E-004  0.1182685E+04  0.7818608E-02  0.9128149E-01
         -2   -1    0    0    0  501 -0.00000000000E+00  0.00000000000E+00  0.21300822072E+03  0.21300822072E+03  0.00000000000E+00 0. -1.
          2   -1    0    0  501    0  0.00000000000E+00 -0.00000000000E+00 -0.16416550128E+04  0.16416550128E+04  0.00000000000E+00 0.  1.
         23    2    1    2    0    0 -0.25334112108E+03  0.44654040661E+03 -0.11674091360E+04  0.12786205516E+04  0.91904112507E+02 0.  0.
         11    1    3    3    0    0 -0.12642923110E+03  0.28228337565E+03 -0.78038289383E+03  0.83944369413E+03  0.00000000000E+00 0.  1.
        -11    1    3    3    0    0 -0.12691188998E+03  0.16425703096E+03 -0.38702624218E+03  0.43917685752E+03  0.00000000000E+00 0. -1.
         22    1    1    2    0    0  0.25334112108E+03 -0.44654040661E+03 -0.26123765604E+03  0.57604268184E+03  0.00000000000E+00 0. -1.
<mgrwt>
<rscale>  0 0.11826851E+04</rscale>
<asrwt>0</asrwt>
<pdfrwt beam="1">  1        2 0.25256230E+00 0.11826851E+04</pdfrwt>
<pdfrwt beam="2">  1       -2 0.32770497E-01 0.11826851E+04</pdfrwt>
<totfact> 0.90644391E+01</totfact>
</mgrwt>
</event>
<event>
 6    1  0.5196787E-004  0.3798498E+04  0.7818608E-02  0.8046477E-01
          2   -1    0    0  501    0  0.00000000000E+00  0.00000000000E+00  0.31873258305E+04  0.31873258305E+04  0.00000000000E+00 0.  1.
         -2   -1    0    0    0  501 -0.00000000000E+00 -0.00000000000E+00 -0.11317159931E+04  0.11317159931E+04  0.00000000000E+00 0. -1.
         23    2    1    2    0    0  0.92803196016E+03 -0.79874225750E+03 -0.62077151185E+03  0.13758718252E+04  0.91834070160E+02 0.  0.
         11    1    3    3    0    0  0.30442631123E+03 -0.21363565669E+03 -0.16492547746E+03  0.40683655918E+03  0.00000000000E+00 0.  1.
        -11    1    3    3    0    0  0.62360564893E+03 -0.58510660081E+03 -0.45584603439E+03  0.96903526600E+03  0.00000000000E+00 0. -1.
         22    1    1    2    0    0 -0.92803196016E+03  0.79874225750E+03  0.26763813493E+04  0.29431699985E+04  0.00000000000E+00 0.  1.
<mgrwt>
<rscale>  0 0.37984984E+04</rscale>
<asrwt>0</asrwt>
<pdfrwt beam="1">  1        2 0.49035782E+00 0.37984984E+04</pdfrwt>
<pdfrwt beam="2">  1       -2 0.17411015E+00 0.37984984E+04</pdfrwt>
<totfact> 0.21105342E-01</totfact>
</mgrwt>
</event>
<event>
 6    1  0.5196787E-004  0.1082292E+04  0.7818608E-02  0.9222625E-01
         -4   -1    0    0    0  501 -0.00000000000E+00  0.00000000000E+00  0.16843466365E+03  0.16843466365E+03  0.00000000000E+00 0. -1.
          4   -1    0    0  501    0  0.00000000000E+00 -0.00000000000E+00 -0.17385901086E+04  0.17385901086E+04  0.00000000000E+00 0.  1.
         23    2    1    2    0    0  0.16136791799E+03 -0.30816501973E+03 -0.15118598385E+04  0.15543157391E+04  0.95770356234E+02 0.  0.
         13    1    3    3    0    0  0.62938956961E+02 -0.64676254620E+02 -0.54498638654E+03  0.55240790340E+03  0.00000000000E+00 0. -1.
        -13    1    3    3    0    0  0.98428961030E+02 -0.24348876511E+03 -0.96687345193E+03  0.10019078357E+04  0.00000000000E+00 0.  1.
         22    1    1    2    0    0 -0.16136791799E+03  0.30816501973E+03 -0.58295606430E+02  0.35270903316E+03  0.00000000000E+00 0. -1.
<mgrwt>
<rscale>  0 0.10822917E+04</rscale>
<asrwt>0</asrwt>
<pdfrwt beam="1">  1        4 0.26747539E+00 0.10822917E+04</pdfrwt>
<pdfrwt beam="2">  1       -4 0.25913026E-01 0.10822917E+04</pdfrwt>
<totfact> 0.14035270E+00</totfact>
</mgrwt>
</event>
<event>
 6    1  0.5196787E-004  0.4612839E+04  0.7818608E-02  0.7891174E-01
          2   -1    0    0  501    0  0.00000000000E+00  0.00000000000E+00  0.34547930232E+04  0.34547930232E+04  0.00000000000E+00 0.  1.
         -2   -1    0    0    0  501 -0.00000000000E+00 -0.00000000000E+00 -0.15397652109E+04  0.15397652109E+04  0.00000000000E+00 0. -1.
         23    2    1    2    0    0 -0.23123280158E+03  0.12067198988E+04  0.30701433067E+04  0.33081616828E+04  0.92261980743E+02 0.  0.
         11    1    3    3    0    0 -0.14619411082E+03  0.81705472532E+03  0.21836109397E+04  0.23360453502E+04  0.00000000000E+00 0. -1.
        -11    1    3    3    0    0 -0.85038690767E+02  0.38966517346E+03  0.88653236709E+03  0.97211633267E+03  0.00000000000E+00 0.  1.
         22    1    1    2    0    0  0.23123280158E+03 -0.12067198988E+04 -0.11551154945E+04  0.16863965513E+04  0.00000000000E+00 0. -1.
<mgrwt>
<rscale>  0 0.46128387E+04</rscale>
<asrwt>0</asrwt>
<pdfrwt beam="1">  1        2 0.53150662E+00 0.46128387E+04</pdfrwt>
<pdfrwt beam="2">  1       -2 0.23688696E+00 0.46128387E+04</pdfrwt>
<totfact> 0.50739457E-02</totfact>
</mgrwt>
</event>
<event>
 6    1  0.5196787E-004  0.1959570E+04  0.7818608E-02  0.8625760E-01
          2   -1    0    0  501    0  0.00000000000E+00  0.00000000000E+00  0.10795111041E+04  0.10795111041E+04  0.00000000000E+00 0.  1.
         -2   -1    0    0    0  501 -0.00000000000E+00 -0.00000000000E+00 -0.88927170735E+03  0.88927170735E+03  0.00000000000E+00 0. -1.
         23    2    1    2    0    0 -0.12698601848E+02 -0.33322823406E+03  0.10192672422E+04  0.10752004262E+04  0.77122856228E+02 0.  0.
         13    1    3    3    0    0  0.32650661103E+02 -0.13878632483E+03  0.43240305237E+03  0.45530221758E+03  0.00000000000E+00 0. -1.
        -13    1    3    3    0    0 -0.45349262950E+02 -0.19444190923E+03  0.58686418988E+03  0.61989820864E+03  0.00000000000E+00 0.  1.
         22    1    1    2    0    0  0.12698601848E+02  0.33322823406E+03 -0.82902784554E+03  0.89358238520E+03  0.00000000000E+00 0. -1.
<mgrwt>
<rscale>  0 0.19595700E+04</rscale>
<asrwt>0</asrwt>
<pdfrwt beam="1">  1        2 0.16607863E+00 0.19595700E+04</pdfrwt>
<pdfrwt beam="2">  1       -2 0.13681103E+00 0.19595700E+04</pdfrwt>
<totfact> 0.79725300E+00</totfact>
</mgrwt>
</event>
<event>
 6    1  0.5196787E-004  0.4627101E+04  0.7818608E-02  0.7888755E-01
          2   -1    0    0  501    0  0.00000000000E+00  0.00000000000E+00  0.15401654338E+04  0.15401654338E+04  0.00000000000E+00 0.  1.
         -2   -1    0    0    0  501 -0.00000000000E+00 -0.00000000000E+00 -0.34752861327E+04  0.34752861327E+04  0.00000000000E+00 0. -1.
         23    2    1    2    0    0  0.17349454885E+03  0.22979527290E+04 -0.75689188764E+03  0.24272262605E+04  0.88627800359E+02 0.  0.
         13    1    3    3    0    0  0.33963026219E+02  0.23949541108E+03 -0.10295871818E+03  0.26289168250E+03  0.00000000000E+00 0. -1.
        -13    1    3    3    0    0  0.13953152263E+03  0.20584573179E+04 -0.65393316946E+03  0.21643345780E+04  0.00000000000E+00 0.  1.
         22    1    1    2    0    0 -0.17349454885E+03 -0.22979527290E+04 -0.11782288113E+04  0.25882253060E+04  0.00000000000E+00 0. -1.
<mgrwt>
<rscale>  0 0.46271009E+04</rscale>
<asrwt>0</asrwt>
<pdfrwt beam="1">  1        2 0.23694853E+00 0.46271009E+04</pdfrwt>
<pdfrwt beam="2">  1       -2 0.53465940E+00 0.46271009E+04</pdfrwt>
<totfact> 0.93747131E-03</totfact>
</mgrwt>
</event>
<event>
 6    1  0.5196787E-004  0.1403823E+04  0.7818608E-02  0.8951056E-01
         -3   -1    0    0    0  501 -0.00000000000E+00  0.00000000000E+00  0.80582539327E+03  0.80582539327E+03  0.00000000000E+00 0. -1.
          3   -1    0    0  501    0  0.00000000000E+00 -0.00000000000E+00 -0.61139802213E+03  0.61139802213E+03  0.00000000000E+00 0.  1.
         23    2    1    2    0    0  0.40587876874E+03 -0.39579929934E+03  0.51033453964E+03  0.76823034966E+03  0.91333824590E+02 0.  0.
         13    1    3    3    0    0  0.24456991461E+03 -0.18987471464E+03  0.31561120203E+03  0.44212812763E+03  0.00000000000E+00 0. -1.
        -13    1    3    3    0    0  0.16130885413E+03 -0.20592458469E+03  0.19472333761E+03  0.32610222203E+03  0.00000000000E+00 0.  1.
         22    1    1    2    0    0 -0.40587876874E+03  0.39579929934E+03 -0.31590716850E+03  0.64899306574E+03  0.00000000000E+00 0.  1.
<mgrwt>
<rscale>  0 0.14038234E+04</rscale>
<asrwt>0</asrwt>
<pdfrwt beam="1">  1        3 0.94061234E-01 0.14038234E+04</pdfrwt>
<pdfrwt beam="2">  1       -3 0.12397314E+00 0.14038234E+04</pdfrwt>
<totfact> 0.13417781E+00</totfact>
</mgrwt>
</event>
<event>
 6    1  0.5196787E-004  0.1064258E+04  0.7818608E-02  0.9240746E-01
         -2   -1    0    0    0  501 -0.00000000000E+00  0.00000000000E+00  0.10598423104E+03  0.10598423104E+03  0.00000000000E+00 0. -1.
          2   -1    0    0  501    0  0.00000000000E+00 -0.00000000000E+00 -0.26717308295E+04  0.26717308295E+04  0.00000000000E+00 0.  1.
         23    2    1    2    0    0  0.43554916548E+03 -0.25845288133E+03 -0.16803487114E+04  0.17577001657E+04  0.97144803893E+02 0.  0.
         11    1    3    3    0    0  0.21362601681E+03 -0.13385566066E+03 -0.10005609867E+04  0.10318312367E+04  0.00000000000E+00 0. -1.
        -11    1    3    3    0    0  0.22192314867E+03 -0.12459722067E+03 -0.67978772478E+03  0.72586892899E+03  0.00000000000E+00 0.  1.
         22    1    1    2    0    0 -0.43554916548E+03  0.25845288133E+03 -0.88539788705E+03  0.10200148949E+04  0.00000000000E+00 0. -1.
<mgrwt>
<rscale>  0 0.10642581E+04</rscale>
<asrwt>0</asrwt>
<pdfrwt beam="1">  1        2 0.41103550E+00 0.10642581E+04</pdfrwt>
<pdfrwt beam="2">  1       -2 0.16305267E-01 0.10642581E+04</pdfrwt>
<totfact> 0.84774425E+01</totfact>
</mgrwt>
</event>
<event>
 6    1  0.5196787E-004  0.1734186E+04  0.7818608E-02  0.8742103E-01
          2   -1    0    0  501    0  0.00000000000E+00  0.00000000000E+00  0.15282307705E+04  0.15282307705E+04  0.00000000000E+00 0.  1.
         -2   -1    0    0    0  501 -0.00000000000E+00 -0.00000000000E+00 -0.49197453897E+03  0.49197453897E+03  0.00000000000E+00 0. -1.
         23    2    1    2    0    0  0.67896133118E+03  0.51213054848E+03  0.70506770144E+03  0.11075432524E+04  0.79154307868E+02 0.  0.
         11    1    3    3    0    0  0.28306231934E+02  0.27830061271E+02  0.56319643525E+02  0.68903246103E+02  0.00000000000E+00 0. -1.
        -11    1    3    3    0    0  0.65065509924E+03  0.48430048721E+03  0.64874805792E+03  0.10386400063E+04  0.00000000000E+00 0.  1.
         22    1    1    2    0    0 -0.67896133118E+03 -0.51213054848E+03  0.33118853011E+03  0.91266205706E+03  0.00000000000E+00 0. -1.
<mgrwt>
<rscale>  0 0.17341864E+04</rscale>
<asrwt>0</asrwt>
<pdfrwt beam="1">  1        2 0.23511242E+00 0.17341864E+04</pdfrwt>
<pdfrwt beam="2">  1       -2 0.75688391E-01 0.17341864E+04</pdfrwt>
<totfact> 0.18169550E+01</totfact>
</mgrwt>
</event>
<event>
 6    1  0.5196787E-004  0.4361696E+04  0.7818608E-02  0.7935307E-01
         -2   -1    0    0    0  501 -0.00000000000E+00  0.00000000000E+00  0.15048333868E+04  0.15048333868E+04  0.00000000000E+00 0. -1.
          2   -1    0    0  501    0  0.00000000000E+00 -0.00000000000E+00 -0.31605481477E+04  0.31605481477E+04  0.00000000000E+00 0.  1.
         23    2    1    2    0    0  0.15646782001E+04  0.12589409100E+04  0.78835114908E+02  0.20117400071E+04  0.87936317538E+02 0.  0.
         11    1    3    3    0    0  0.14645153649E+04  0.11991001934E+04  0.61539784593E+02  0.18937881806E+04  0.00000000000E+00 0.  1.
        -11    1    3    3    0    0  0.10016283522E+03  0.59840716597E+02  0.17295330315E+02  0.11795182649E+03  0.00000000000E+00 0. -1.
         22    1    1    2    0    0 -0.15646782001E+04 -0.12589409100E+04 -0.17345498758E+04  0.26536415275E+04  0.00000000000E+00 0.  1.
<mgrwt>
<rscale>  0 0.43616962E+04</rscale>
<asrwt>0</asrwt>
<pdfrwt beam="1">  1        2 0.48623818E+00 0.43616962E+04</pdfrwt>
<pdfrwt beam="2">  1       -2 0.23151283E+00 0.43616962E+04</pdfrwt>
<totfact> 0.88099734E-02</totfact>
</mgrwt>
</event>
<event>
 6    1  0.5196787E-004  0.2066829E+04  0.7818608E-02  0.8575998E-01
          2   -1    0    0  501    0  0.00000000000E+00  0.00000000000E+00  0.30787444570E+04  0.30787444570E+04  0.00000000000E+00 0.  1.
         -2   -1    0    0    0  501 -0.00000000000E+00 -0.00000000000E+00 -0.34687691192E+03  0.34687691192E+03  0.00000000000E+00 0. -1.
         23    2    1    2    0    0  0.41260613847E+03  0.28376859844E+03  0.28629591953E+04  0.29079791530E+04  0.95073432645E+02 0.  0.
         11    1    3    3    0    0  0.34801254324E+03  0.26706319007E+03  0.23380791161E+04  0.23788756653E+04  0.00000000000E+00 0.  1.
        -11    1    3    3    0    0  0.64593595234E+02  0.16705408372E+02  0.52488007914E+03  0.52910348770E+03  0.00000000000E+00 0. -1.
         22    1    1    2    0    0 -0.41260613847E+03 -0.28376859844E+03 -0.13109165018E+03  0.51764221593E+03  0.00000000000E+00 0. -1.
<mgrwt>
<rscale>  0 0.20668288E+04</rscale>
<asrwt>0</asrwt>
<pdfrwt beam="1">  1        2 0.47365298E+00 0.20668288E+04</pdfrwt>
<pdfrwt beam="2">  1       -2 0.53365681E-01 0.20668288E+04</pdfrwt>
<totfact> 0.47597114E+00</totfact>
</mgrwt>
</event>
<event>
 6    1  0.5196787E-004  0.2991073E+04  0.7818608E-02  0.8246285E-01
         -2   -1    0    0    0  501 -0.00000000000E+00  0.00000000000E+00  0.65963637029E+03  0.65963637029E+03  0.00000000000E+00 0. -1.
          2   -1    0    0  501    0  0.00000000000E+00 -0.00000000000E+00 -0.33906996197E+04  0.33906996197E+04  0.00000000000E+00 0.  1.
         23    2    1    2    0    0  0.71167959945E+03 -0.47853864057E+02  0.41100632963E+03  0.82832123458E+03  0.91717065405E+02 0.  0.
         11    1    3    3    0    0  0.54160754226E+03  0.10048303087E+01  0.32419278284E+03  0.63122159339E+03  0.00000000000E+00 0. -1.
        -11    1    3    3    0    0  0.17007205719E+03 -0.48858694365E+02  0.86813546789E+02  0.19709964119E+03  0.00000000000E+00 0.  1.
         22    1    1    2    0    0 -0.71167959945E+03  0.47853864057E+02 -0.31420695790E+04  0.32220147554E+04  0.00000000000E+00 0.  1.
<mgrwt>
<rscale>  0 0.29910726E+04</rscale>
<asrwt>0</asrwt>
<pdfrwt beam="1">  1        2 0.52164610E+00 0.29910726E+04</pdfrwt>
<pdfrwt beam="2">  1       -2 0.10148252E+00 0.29910726E+04</pdfrwt>
<totfact> 0.66048526E-01</totfact>
</mgrwt>
</event>
<event>
 6    1  0.5196787E-004  0.6696365E+03  0.7818608E-02  0.9770615E-01
         -2   -1    0    0    0  501 -0.00000000000E+00  0.00000000000E+00  0.35689550368E+03  0.35689550368E+03  0.00000000000E+00 0. -1.
          2   -1    0    0  501    0  0.00000000000E+00 -0.00000000000E+00 -0.31410666441E+03  0.31410666441E+03  0.00000000000E+00 0.  1.
         23    2    1    2    0    0 -0.63434554237E+02 -0.69114793373E+02 -0.29374862645E+03  0.32163379064E+03  0.91428892604E+02 0.  0.
         13    1    3    3    0    0 -0.37625235368E+01 -0.68643325048E+02 -0.18850611155E+03  0.20065048405E+03  0.00000000000E+00 0.  1.
        -13    1    3    3    0    0 -0.59672030701E+02 -0.47146832484E+00 -0.10524251490E+03  0.12098330659E+03  0.00000000000E+00 0. -1.
         22    1    1    2    0    0  0.63434554237E+02  0.69114793373E+02  0.33653746572E+03  0.34936837745E+03  0.00000000000E+00 0. -1.
<mgrwt>
<rscale>  0 0.66963649E+03</rscale>
<asrwt>0</asrwt>
<pdfrwt beam="1">  1        2 0.48324103E-01 0.66963649E+03</pdfrwt>
<pdfrwt beam="2">  1       -2 0.54907000E-01 0.66963649E+03</pdfrwt>
<totfact> 0.32857065E+02</totfact>
</mgrwt>
</event>
<event>
 6    1  0.5196787E-004  0.3575428E+04  0.7818608E-02  0.8096143E-01
          2   -1    0    0  501    0  0.00000000000E+00  0.00000000000E+00  0.21560816251E+04  0.21560816251E+04  0.00000000000E+00 0.  1.
         -2   -1    0    0    0  501 -0.00000000000E+00 -0.00000000000E+00 -0.14822823243E+04  0.14822823243E+04  0.00000000000E+00 0. -1.
         23    2    1    2    0    0 -0.56442036000E+03 -0.25590770989E+02 -0.13875292765E+04  0.15010055952E+04  0.92493639387E+02 0.  0.
         13    1    3    3    0    0 -0.22064288700E+03  0.28920053954E+02 -0.48225109975E+03  0.53111747882E+03  0.00000000000E+00 0. -1.
        -13    1    3    3    0    0 -0.34377747301E+03 -0.54510824943E+02 -0.90527817680E+03  0.96988811642E+03  0.00000000000E+00 0.  1.
         22    1    1    2    0    0  0.56442036000E+03  0.25590770989E+02  0.20613285774E+04  0.21373583542E+04  0.00000000000E+00 0.  1.
<mgrwt>
<rscale>  0 0.35754282E+04</rscale>
<asrwt>0</asrwt>
<pdfrwt beam="1">  1        2 0.33170487E+00 0.35754282E+04</pdfrwt>
<pdfrwt beam="2">  1       -2 0.22804343E+00 0.35754282E+04</pdfrwt>
<totfact> 0.39259859E-01</totfact>
</mgrwt>
</event>
<event>
 6    1  0.5196787E-004  0.3885009E+04  0.7818608E-02  0.8028154E-01
         -2   -1    0    0    0  501 -0.00000000000E+00  0.00000000000E+00  0.16836365512E+04  0.16836365512E+04  0.00000000000E+00 0. -1.
          2   -1    0    0  501    0  0.00000000000E+00 -0.00000000000E+00 -0.22411750492E+04  0.22411750492E+04  0.00000000000E+00 0.  1.
         23    2    1    2    0    0  0.10465073010E+03 -0.10939413278E+04  0.13380255736E+04  0.17337336571E+04  0.88659766472E+02 0.  0.
         11    1    3    3    0    0  0.93929021190E+02 -0.59534995186E+03  0.69377672030E+03  0.91901597583E+03  0.00000000000E+00 0.  1.
        -11    1    3    3    0    0  0.10721708907E+02 -0.49859137595E+03  0.64424885327E+03  0.81471768126E+03  0.00000000000E+00 0. -1.
         22    1    1    2    0    0 -0.10465073010E+03  0.10939413278E+04 -0.18955640716E+04  0.21910779433E+04  0.00000000000E+00 0.  1.
<mgrwt>
<rscale>  0 0.38850093E+04</rscale>
<asrwt>0</asrwt>
<pdfrwt beam="1">  1        2 0.34479616E+00 0.38850093E+04</pdfrwt>
<pdfrwt beam="2">  1       -2 0.25902101E+00 0.38850093E+04</pdfrwt>
<totfact> 0.22049953E-01</totfact>
</mgrwt>
</event>
<event>
 6    1  0.5196787E-004  0.1381213E+04  0.7818608E-02  0.8967531E-01
         -2   -1    0    0    0  501 -0.00000000000E+00  0.00000000000E+00  0.79844752055E+03  0.79844752055E+03  0.00000000000E+00 0. -1.
          2   -1    0    0  501    0  0.00000000000E+00 -0.00000000000E+00 -0.59733042373E+03  0.59733042373E+03  0.00000000000E+00 0.  1.
         23    2    1    2    0    0  0.87687132460E+02  0.32294778809E+03  0.70808609034E+03  0.78832270525E+03  0.89902554179E+02 0.  0.
         13    1    3    3    0    0  0.66199877304E+02  0.28009025999E+03  0.52118991333E+03  0.59537543051E+03  0.00000000000E+00 0. -1.
        -13    1    3    3    0    0  0.21487255156E+02  0.42857528098E+02  0.18689617701E+03  0.19294727474E+03  0.00000000000E+00 0.  1.
         22    1    1    2    0    0 -0.87687132460E+02 -0.32294778809E+03 -0.50696899352E+03  0.60745523903E+03  0.00000000000E+00 0.  1.
<mgrwt>
<rscale>  0 0.13812125E+04</rscale>
<asrwt>0</asrwt>
<pdfrwt beam="1">  1        2 0.91896988E-01 0.13812125E+04</pdfrwt>
<pdfrwt beam="2">  1       -2 0.12283808E+00 0.13812125E+04</pdfrwt>
<totfact> 0.24337730E+01</totfact>
</mgrwt>
</event>
<event>
 6    1  0.5196787E-004  0.1632626E+04  0.7818608E-02  0.8800751E-01
         -2   -1    0    0    0  501 -0.00000000000E+00  0.00000000000E+00  0.31358139992E+03  0.31358139992E+03  0.00000000000E+00 0.  1.
          2   -1    0    0  501    0  0.00000000000E+00 -0.00000000000E+00 -0.21250210327E+04  0.21250210327E+04  0.00000000000E+00 0. -1.
         23    2    1    2    0    0 -0.72688634276E+03  0.26091456970E+03 -0.12921931509E+04  0.15079805562E+04  0.88329217925E+02 0.  0.
         11    1    3    3    0    0 -0.13059961751E+03  0.74707330612E+02 -0.29783396548E+03  0.33368026063E+03  0.00000000000E+00 0. -1.
        -11    1    3    3    0    0 -0.59628672524E+03  0.18620723909E+03 -0.99435918538E+03  0.11743002956E+04  0.00000000000E+00 0.  1.
         22    1    1    2    0    0  0.72688634276E+03 -0.26091456970E+03 -0.51924648197E+03  0.93062187649E+03  0.00000000000E+00 0.  1.
<mgrwt>
<rscale>  0 0.16326262E+04</rscale>
<asrwt>0</asrwt>
<pdfrwt beam="1">  1        2 0.32692632E+00 0.16326262E+04</pdfrwt>
<pdfrwt beam="2">  1       -2 0.48243291E-01 0.16326262E+04</pdfrwt>
<totfact> 0.22160593E+01</totfact>
</mgrwt>
</event>
<event>
 6    1  0.5196787E-004  0.3052060E+04  0.7818608E-02  0.8229019E-01
          2   -1    0    0  501    0  0.00000000000E+00  0.00000000000E+00  0.27335467986E+04  0.27335467986E+04  0.00000000000E+00 0.  1.
         -2   -1    0    0    0  501 -0.00000000000E+00 -0.00000000000E+00 -0.85192156167E+03  0.85192156167E+03  0.00000000000E+00 0. -1.
         23    2    1    2    0    0  0.26889117112E+03  0.71075830159E+03  0.24945087115E+04  0.26091968927E+04  0.88627805987E+02 0.  0.
         11    1    3    3    0    0  0.87363478723E+02  0.35531637292E+03  0.11768471281E+04  0.12324168391E+04  0.00000000000E+00 0.  1.
        -11    1    3    3    0    0  0.18152769240E+03  0.35544192868E+03  0.13176615833E+04  0.13767800536E+04  0.00000000000E+00 0. -1.
         22    1    1    2    0    0 -0.26889117112E+03 -0.71075830159E+03 -0.61288347450E+03  0.97627146763E+03  0.00000000000E+00 0. -1.
<mgrwt>
<rscale>  0 0.30520599E+04</rscale>
<asrwt>0</asrwt>
<pdfrwt beam="1">  1        2 0.42054566E+00 0.30520599E+04</pdfrwt>
<pdfrwt beam="2">  1       -2 0.13106486E+00 0.30520599E+04</pdfrwt>
<totfact> 0.91907490E-01</totfact>
</mgrwt>
</event>
<event>
 6    1  0.5196787E-004  0.2489876E+04  0.7818608E-02  0.8406601E-01
          2   -1    0    0  501    0  0.00000000000E+00  0.00000000000E+00  0.28244411989E+04  0.28244411989E+04  0.00000000000E+00 0.  1.
         -2   -1    0    0    0  501 -0.00000000000E+00 -0.00000000000E+00 -0.54873518961E+03  0.54873518961E+03  0.00000000000E+00 0. -1.
         23    2    1    2    0    0 -0.73892203034E+03 -0.77522922926E+03  0.28358495145E+03  0.11114221061E+04  0.88614606545E+02 0.  0.
         13    1    3    3    0    0 -0.48947874896E+03 -0.52080091022E+03  0.14603681795E+03  0.72948597380E+03  0.00000000000E+00 0. -1.
        -13    1    3    3    0    0 -0.24944328137E+03 -0.25442831904E+03  0.13754813350E+03  0.38193613233E+03  0.00000000000E+00 0.  1.
         22    1    1    2    0    0  0.73892203034E+03  0.77522922926E+03  0.19921210579E+04  0.22617542824E+04  0.00000000000E+00 0.  1.
<mgrwt>
<rscale>  0 0.24898757E+04</rscale>
<asrwt>0</asrwt>
<pdfrwt beam="1">  1        2 0.43452941E+00 0.24898757E+04</pdfrwt>
<pdfrwt beam="2">  1       -2 0.84420800E-01 0.24898757E+04</pdfrwt>
<totfact> 0.24412682E+00</totfact>
</mgrwt>
</event>
<event>
 6    1  0.5196787E-004  0.3674012E+04  0.7818608E-02  0.8073746E-01
         -2   -1    0    0    0  501 -0.00000000000E+00  0.00000000000E+00  0.10528705250E+04  0.10528705250E+04  0.00000000000E+00 0. -1.
          2   -1    0    0  501    0  0.00000000000E+00 -0.00000000000E+00 -0.32051334680E+04  0.32051334680E+04  0.00000000000E+00 0.  1.
         23    2    1    2    0    0  0.65001021904E+03 -0.16650646838E+04 -0.15621518090E+04  0.23756690503E+04  0.92365992268E+02 0.  0.
         13    1    3    3    0    0  0.37522243949E+03 -0.86885237997E+03 -0.78453928187E+03  0.12293080257E+04  0.00000000000E+00 0. -1.
        -13    1    3    3    0    0  0.27478777955E+03 -0.79621230378E+03 -0.77761252708E+03  0.11463610246E+04  0.00000000000E+00 0.  1.
         22    1    1    2    0    0 -0.65001021904E+03  0.16650646838E+04 -0.59011113403E+03  0.18823349427E+04  0.00000000000E+00 0. -1.
<mgrwt>
<rscale>  0 0.36740117E+04</rscale>
<asrwt>0</asrwt>
<pdfrwt beam="1">  1        2 0.49309745E+00 0.36740117E+04</pdfrwt>
<pdfrwt beam="2">  1       -2 0.16198008E+00 0.36740117E+04</pdfrwt>
<totfact> 0.25363958E-01</totfact>
</mgrwt>
</event>
<event>
 6    1  0.5196787E-004  0.1652012E+04  0.7818608E-02  0.8789217E-01
         -1   -1    0    0    0  501 -0.00000000000E+00  0.00000000000E+00  0.62982080042E+03  0.62982080042E+03  0.00000000000E+00 0. -1.
          1   -1    0    0  501    0  0.00000000000E+00 -0.00000000000E+00 -0.10833013639E+04  0.10833013639E+04  0.00000000000E+00 0.  1.
         23    2    1    2    0    0  0.34555952299E+03  0.47553187978E+03  0.37060912107E+03  0.70086441018E+03  0.91202238038E+02 0.  0.
         11    1    3    3    0    0  0.19900818584E+03  0.33616559545E+03  0.21679068174E+03  0.44677708679E+03  0.00000000000E+00 0. -1.
        -11    1    3    3    0    0  0.14655133715E+03  0.13936628433E+03  0.15381843933E+03  0.25408732339E+03  0.00000000000E+00 0.  1.
         22    1    1    2    0    0 -0.34555952299E+03 -0.47553187978E+03 -0.82408968455E+03  0.10122577541E+04  0.00000000000E+00 0. -1.
<mgrwt>
<rscale>  0 0.16520118E+04</rscale>
<asrwt>0</asrwt>
<pdfrwt beam="1">  1        1 0.16666175E+00 0.16520118E+04</pdfrwt>
<pdfrwt beam="2">  1       -1 0.96895508E-01 0.16520118E+04</pdfrwt>
<totfact> 0.12773468E+01</totfact>
</mgrwt>
</event>
<event>
 6    1  0.5196787E-004  0.1723107E+04  0.7818608E-02  0.8748294E-01
         -2   -1    0    0    0  501 -0.00000000000E+00  0.00000000000E+00  0.31689636401E+03  0.31689636401E+03  0.00000000000E+00 0. -1.
          2   -1    0    0  501    0  0.00000000000E+00 -0.00000000000E+00 -0.23423245703E+04  0.23423245703E+04  0.00000000000E+00 0.  1.
         23    2    1    2    0    0 -0.28697810640E+03 -0.66423511633E+03 -0.17303743698E+04  0.18777981999E+04  0.91465276378E+02 0.  0.
         11    1    3    3    0    0 -0.10918245809E+03 -0.22365948962E+03 -0.49087856469E+03  0.55036909590E+03  0.00000000000E+00 0.  1.
        -11    1    3    3    0    0 -0.17779564831E+03 -0.44057562671E+03 -0.12394958051E+04  0.13274291041E+04  0.00000000000E+00 0. -1.
         22    1    1    2    0    0  0.28697810640E+03  0.66423511633E+03 -0.29505383648E+03  0.78142273433E+03  0.00000000000E+00 0. -1.
<mgrwt>
<rscale>  0 0.17231067E+04</rscale>
<asrwt>0</asrwt>
<pdfrwt beam="1">  1        2 0.36035763E+00 0.17231067E+04</pdfrwt>
<pdfrwt beam="2">  1       -2 0.48753286E-01 0.17231067E+04</pdfrwt>
<totfact> 0.16245414E+01</totfact>
</mgrwt>
</event>
<event>
 6    1  0.5196787E-004  0.5596891E+03  0.7818608E-02  0.9992758E-01
          2   -1    0    0  501    0  0.00000000000E+00  0.00000000000E+00  0.49205572292E+03  0.49205572292E+03  0.00000000000E+00 0.  1.
         -2   -1    0    0    0  501 -0.00000000000E+00 -0.00000000000E+00 -0.15915470363E+03  0.15915470363E+03  0.00000000000E+00 0. -1.
         23    2    1    2    0    0 -0.89645152621E+02 -0.10907461845E+03 -0.99713047317E+02  0.19614069958E+03  0.92708987969E+02 0.  0.
         11    1    3    3    0    0 -0.37853945451E+02 -0.57038496218E+02 -0.10182005872E+03  0.12269325815E+03  0.00000000000E+00 0. -1.
        -11    1    3    3    0    0 -0.51791207170E+02 -0.52036122230E+02  0.21070114012E+01  0.73447441438E+02  0.00000000000E+00 0.  1.
         22    1    1    2    0    0  0.89645152621E+02  0.10907461845E+03  0.43261406661E+03  0.45506972697E+03  0.00000000000E+00 0.  1.
<mgrwt>
<rscale>  0 0.55968914E+03</rscale>
<asrwt>0</asrwt>
<pdfrwt beam="1">  1        2 0.75700880E-01 0.55968914E+03</pdfrwt>
<pdfrwt beam="2">  1       -2 0.24485339E-01 0.55968914E+03</pdfrwt>
<totfact> 0.93691566E+02</totfact>
</mgrwt>
</event>
<event>
 6    1  0.5196787E-004  0.4483304E+04  0.7818608E-02  0.7913566E-01
         -2   -1    0    0    0  501 -0.00000000000E+00  0.00000000000E+00  0.14523578065E+04  0.14523578065E+04  0.00000000000E+00 0. -1.
          2   -1    0    0  501    0  0.00000000000E+00 -0.00000000000E+00 -0.34598938340E+04  0.34598938340E+04  0.00000000000E+00 0.  1.
         23    2    1    2    0    0  0.12854442316E+04  0.76584070266E+03 -0.28316813431E+04  0.32040085794E+04  0.91503516249E+02 0.  0.
         11    1    3    3    0    0  0.27481713007E+03  0.12119105823E+03 -0.57113975058E+03  0.64530019547E+03  0.00000000000E+00 0.  1.
        -11    1    3    3    0    0  0.10106271015E+04  0.64464964443E+03 -0.22605415925E+04  0.25587083839E+04  0.00000000000E+00 0. -1.
         22    1    1    2    0    0 -0.12854442316E+04 -0.76584070266E+03  0.82414531567E+03  0.17082430611E+04  0.00000000000E+00 0.  1.
<mgrwt>
<rscale>  0 0.44833041E+04</rscale>
<asrwt>0</asrwt>
<pdfrwt beam="1">  1        2 0.53229136E+00 0.44833041E+04</pdfrwt>
<pdfrwt beam="2">  1       -2 0.22343966E+00 0.44833041E+04</pdfrwt>
<totfact> 0.61733597E-02</totfact>
</mgrwt>
</event>
<event>
 6    1  0.5196787E-004  0.3963876E+04  0.7818608E-02  0.8011874E-01
          2   -1    0    0  501    0  0.00000000000E+00  0.00000000000E+00  0.28535432945E+04  0.28535432945E+04  0.00000000000E+00 0.  1.
         -2   -1    0    0    0  501 -0.00000000000E+00 -0.00000000000E+00 -0.13765614861E+04  0.13765614861E+04  0.00000000000E+00 0. -1.
         23    2    1    2    0    0  0.47951240131E+03 -0.18918790462E+04  0.11006145551E+04  0.22424451574E+04  0.89829931246E+02 0.  0.
         11    1    3    3    0    0  0.18311133264E+03 -0.74998846845E+03  0.48540206643E+03  0.91193619790E+03  0.00000000000E+00 0.  1.
        -11    1    3    3    0    0  0.29640106867E+03 -0.11418905778E+04  0.61521248865E+03  0.13305089595E+04  0.00000000000E+00 0. -1.
         22    1    1    2    0    0 -0.47951240131E+03  0.18918790462E+04  0.37636725330E+03  0.19876596233E+04  0.00000000000E+00 0. -1.
<mgrwt>
<rscale>  0 0.39638758E+04</rscale>
<asrwt>0</asrwt>
<pdfrwt beam="1">  1        2 0.43900666E+00 0.39638758E+04</pdfrwt>
<pdfrwt beam="2">  1       -2 0.21177869E+00 0.39638758E+04</pdfrwt>
<totfact> 0.18923661E-01</totfact>
</mgrwt>
</event>
<event>
 6    1  0.5196787E-004  0.1448466E+04  0.7818608E-02  0.8919465E-01
          2   -1    0    0  501    0  0.00000000000E+00  0.00000000000E+00  0.26420564259E+04  0.26420564259E+04  0.00000000000E+00 0.  1.
         -2   -1    0    0    0  501 -0.00000000000E+00 -0.00000000000E+00 -0.19852464910E+03  0.19852464910E+03  0.00000000000E+00 0. -1.
         23    2    1    2    0    0  0.69419705798E+03 -0.14225614870E+02  0.16096464452E+04  0.17554651044E+04  0.92650584034E+02 0.  0.
         13    1    3    3    0    0  0.11637782137E+03  0.15751308687E+02  0.35281136347E+03  0.37184372957E+03  0.00000000000E+00 0. -1.
        -13    1    3    3    0    0  0.57781923661E+03 -0.29976923557E+02  0.12568350818E+04  0.13836213749E+04  0.00000000000E+00 0.  1.
         22    1    1    2    0    0 -0.69419705798E+03  0.14225614870E+02  0.83388533152E+03  0.10851159706E+04  0.00000000000E+00 0. -1.
<mgrwt>
<rscale>  0 0.14484658E+04</rscale>
<asrwt>0</asrwt>
<pdfrwt beam="1">  1        2 0.40647019E+00 0.14484658E+04</pdfrwt>
<pdfrwt beam="2">  1       -2 0.30542256E-01 0.14484658E+04</pdfrwt>
<totfact> 0.27767925E+01</totfact>
</mgrwt>
</event>
<event>
 6    1  0.5196787E-004  0.1315605E+04  0.7818608E-02  0.9017281E-01
          2   -1    0    0  501    0  0.00000000000E+00  0.00000000000E+00  0.42896633736E+03  0.42896633736E+03  0.00000000000E+00 0.  1.
         -2   -1    0    0    0  501 -0.00000000000E+00 -0.00000000000E+00 -0.10087131199E+04  0.10087131199E+04  0.00000000000E+00 0. -1.
         23    2    1    2    0    0 -0.48164529541E+03  0.30017689361E+03  0.63282752133E+02  0.58002256754E+03  0.10165192614E+03 0.  0.
         13    1    3    3    0    0 -0.22879681368E+03  0.12184409215E+03 -0.18831739759E+02  0.25990113344E+03  0.00000000000E+00 0. -1.
        -13    1    3    3    0    0 -0.25284848173E+03  0.17833280146E+03  0.82114491892E+02  0.32012143409E+03  0.00000000000E+00 0.  1.
         22    1    1    2    0    0  0.48164529541E+03 -0.30017689361E+03 -0.64302953472E+03  0.85765688977E+03  0.00000000000E+00 0. -1.
<mgrwt>
<rscale>  0 0.13156048E+04</rscale>
<asrwt>0</asrwt>
<pdfrwt beam="1">  1        2 0.65994822E-01 0.13156048E+04</pdfrwt>
<pdfrwt beam="2">  1       -2 0.15518663E+00 0.13156048E+04</pdfrwt>
<totfact> 0.19659770E+01</totfact>
</mgrwt>
</event>
<event>
 6    1  0.5196787E-004  0.4274632E+03  0.7818608E-02  0.1034664E+00
          2   -1    0    0  501    0  0.00000000000E+00  0.00000000000E+00  0.10348456742E+03  0.10348456742E+03  0.00000000000E+00 0. -1.
         -2   -1    0    0    0  501 -0.00000000000E+00 -0.00000000000E+00 -0.44143007045E+03  0.44143007045E+03  0.00000000000E+00 0.  1.
         23    2    1    2    0    0  0.16650006640E+03  0.73528233203E+02 -0.60254518861E+02  0.21288910289E+03  0.92533723031E+02 0.  0.
         13    1    3    3    0    0  0.38204209283E+02  0.63302523720E+02 -0.34693807062E+02  0.81672708813E+02  0.00000000000E+00 0. -1.
        -13    1    3    3    0    0  0.12829585712E+03  0.10225709482E+02 -0.25560711799E+02  0.13121639408E+03  0.00000000000E+00 0.  1.
         22    1    1    2    0    0 -0.16650006640E+03 -0.73528233203E+02 -0.27769098417E+03  0.33202553498E+03  0.00000000000E+00 0.  1.
<mgrwt>
<rscale>  0 0.42746321E+03</rscale>
<asrwt>0</asrwt>
<pdfrwt beam="1">  1        2 0.15920703E-01 0.42746321E+03</pdfrwt>
<pdfrwt beam="2">  1       -2 0.67912317E-01 0.42746321E+03</pdfrwt>
<totfact> 0.74384060E+02</totfact>
</mgrwt>
</event>
<event>
 6    1  0.5196787E-004  0.1503028E+04  0.7818608E-02  0.8882442E-01
         -2   -1    0    0    0  501 -0.00000000000E+00  0.00000000000E+00  0.54840163302E+03  0.54840163302E+03  0.00000000000E+00 0. -1.
          2   -1    0    0  501    0  0.00000000000E+00 -0.00000000000E+00 -0.10298532935E+04  0.10298532935E+04  0.00000000000E+00 0.  1.
         23    2    1    2    0    0  0.43075290549E+03  0.50270925489E+03  0.12646961896E+03  0.67945965365E+03  0.86059257940E+02 0.  0.
         13    1    3    3    0    0  0.13542484086E+03  0.11506058200E+03  0.77271507270E+01  0.17787224042E+03  0.00000000000E+00 0.  1.
        -13    1    3    3    0    0  0.29532806463E+03  0.38764867289E+03  0.11874246823E+03  0.50158741323E+03  0.00000000000E+00 0. -1.
         22    1    1    2    0    0 -0.43075290549E+03 -0.50270925489E+03 -0.60792127948E+03  0.89879527290E+03  0.00000000000E+00 0.  1.
<mgrwt>
<rscale>  0 0.15030279E+04</rscale>
<asrwt>0</asrwt>
<pdfrwt beam="1">  1        2 0.15843897E+00 0.15030279E+04</pdfrwt>
<pdfrwt beam="2">  1       -2 0.84369483E-01 0.15030279E+04</pdfrwt>
<totfact> 0.28543057E+01</totfact>
</mgrwt>
</event>
<event>
 6    1  0.5196787E-004  0.1879076E+04  0.7818608E-02  0.8665342E-01
          2   -1    0    0  501    0  0.00000000000E+00  0.00000000000E+00  0.36914989619E+04  0.36914989619E+04  0.00000000000E+00 0.  1.
         -2   -1    0    0    0  501 -0.00000000000E+00 -0.00000000000E+00 -0.23912558086E+03  0.23912558086E+03  0.00000000000E+00 0. -1.
         23    2    1    2    0    0 -0.74043945548E+03 -0.27986017468E+03  0.68447465359E+03  0.10517644090E+04  0.10550126028E+03 0.  0.
         11    1    3    3    0    0 -0.42222059078E+03 -0.18664230667E+03  0.45748959072E+03  0.64992484452E+03  0.00000000000E+00 0. -1.
        -11    1    3    3    0    0 -0.31821886471E+03 -0.93217868009E+02  0.22698506287E+03  0.40183956443E+03  0.00000000000E+00 0.  1.
         22    1    1    2    0    0  0.74043945548E+03  0.27986017468E+03  0.27678987275E+04  0.28788601339E+04  0.00000000000E+00 0. -1.
<mgrwt>
<rscale>  0 0.18790762E+04</rscale>
<asrwt>0</asrwt>
<pdfrwt beam="1">  1        2 0.56792288E+00 0.18790762E+04</pdfrwt>
<pdfrwt beam="2">  1       -2 0.36788554E-01 0.18790762E+04</pdfrwt>
<totfact> 0.39022015E+00</totfact>
</mgrwt>
</event>
<event>
 6    1  0.5196787E-004  0.6110241E+04  0.7818608E-02  0.7676882E-01
         -2   -1    0    0    0  501 -0.00000000000E+00  0.00000000000E+00  0.21823485056E+04  0.21823485056E+04  0.00000000000E+00 0. -1.
          2   -1    0    0  501    0  0.00000000000E+00 -0.00000000000E+00 -0.42769347462E+04  0.42769347462E+04  0.00000000000E+00 0.  1.
         23    2    1    2    0    0 -0.18200591333E+03  0.30222898499E+04 -0.14733352340E+04  0.33684395316E+04  0.91137680209E+02 0.  0.
         13    1    3    3    0    0 -0.13571531372E+03  0.26487829570E+04 -0.12695712364E+04  0.29404559041E+04  0.00000000000E+00 0. -1.
        -13    1    3    3    0    0 -0.46290599617E+02  0.37350689292E+03 -0.20376399763E+03  0.42798362749E+03  0.00000000000E+00 0.  1.
         22    1    1    2    0    0  0.18200591333E+03 -0.30222898499E+04 -0.62125100664E+03  0.30908437202E+04  0.00000000000E+00 0. -1.
<mgrwt>
<rscale>  0 0.61102413E+04</rscale>
<asrwt>0</asrwt>
<pdfrwt beam="1">  1        2 0.65798997E+00 0.61102413E+04</pdfrwt>
<pdfrwt beam="2">  1       -2 0.33574592E+00 0.61102413E+04</pdfrwt>
<totfact> 0.25164777E-03</totfact>
</mgrwt>
</event>
<event>
 6    1  0.5196787E-004  0.3891120E+04  0.7818608E-02  0.8026879E-01
         -2   -1    0    0    0  501 -0.00000000000E+00  0.00000000000E+00  0.15896852354E+04  0.15896852354E+04  0.00000000000E+00 0. -1.
          2   -1    0    0  501    0  0.00000000000E+00 -0.00000000000E+00 -0.23811024002E+04  0.23811024002E+04  0.00000000000E+00 0.  1.
         23    2    1    2    0    0 -0.51490765431E+03  0.98860590142E+03 -0.20218022516E+04  0.23105710888E+04  0.92643893486E+02 0.  0.
         11    1    3    3    0    0 -0.47733848883E+03  0.87886221631E+03 -0.17620954100E+04  0.20261369801E+04  0.00000000000E+00 0. -1.
        -11    1    3    3    0    0 -0.37569165477E+02  0.10974368511E+03 -0.25970684155E+03  0.28443410865E+03  0.00000000000E+00 0.  1.
         22    1    1    2    0    0  0.51490765431E+03 -0.98860590142E+03  0.12303850868E+04  0.16602165469E+04  0.00000000000E+00 0. -1.
<mgrwt>
<rscale>  0 0.38911198E+04</rscale>
<asrwt>0</asrwt>
<pdfrwt beam="1">  1        2 0.36632345E+00 0.38911198E+04</pdfrwt>
<pdfrwt beam="2">  1       -2 0.24456696E+00 0.38911198E+04</pdfrwt>
<totfact> 0.22516817E-01</totfact>
</mgrwt>
</event>
<event>
 6    1  0.5196787E-004  0.1139752E+04  0.7818608E-02  0.9167290E-01
          2   -1    0    0  501    0  0.00000000000E+00  0.00000000000E+00  0.16533562743E+04  0.16533562743E+04  0.00000000000E+00 0.  1.
         -2   -1    0    0    0  501 -0.00000000000E+00 -0.00000000000E+00 -0.19642392932E+03  0.19642392932E+03  0.00000000000E+00 0. -1.
         23    2    1    2    0    0 -0.47847871009E+03 -0.23029094573E+03  0.41279687759E+03  0.67837307117E+03  0.88390982819E+02 0.  0.
         13    1    3    3    0    0 -0.33251518180E+03 -0.20038994877E+03  0.31731396621E+03  0.50140864656E+03  0.00000000000E+00 0. -1.
        -13    1    3    3    0    0 -0.14596352830E+03 -0.29900996961E+02  0.95482911376E+02  0.17696442461E+03  0.00000000000E+00 0.  1.
         22    1    1    2    0    0  0.47847871009E+03  0.23029094573E+03  0.10441354674E+04  0.11714071324E+04  0.00000000000E+00 0.  1.
<mgrwt>
<rscale>  0 0.11397521E+04</rscale>
<asrwt>0</asrwt>
<pdfrwt beam="1">  1        2 0.25436249E+00 0.11397521E+04</pdfrwt>
<pdfrwt beam="2">  1       -2 0.30219067E-01 0.11397521E+04</pdfrwt>
<totfact> 0.10429503E+02</totfact>
</mgrwt>
</event>
<event>
 6    1  0.5196787E-004  0.2470529E+04  0.7818608E-02  0.8413560E-01
         -2   -1    0    0    0  501 -0.00000000000E+00  0.00000000000E+00  0.18934094542E+04  0.18934094542E+04  0.00000000000E+00 0. -1.
          2   -1    0    0  501    0  0.00000000000E+00 -0.00000000000E+00 -0.80588947451E+03  0.80588947451E+03  0.00000000000E+00 0.  1.
         23    2    1    2    0    0  0.11633216499E+04 -0.40210577582E+03  0.63644482387E+03  0.13883927107E+04  0.86982695173E+02 0.  0.
         11    1    3    3    0    0  0.34369659934E+03 -0.77259385046E+02  0.18123226549E+03  0.39615842669E+03  0.00000000000E+00 0. -1.
        -11    1    3    3    0    0  0.81962505057E+03 -0.32484639077E+03  0.45521255837E+03  0.99223428404E+03  0.00000000000E+00 0.  1.
         22    1    1    2    0    0 -0.11633216499E+04  0.40210577582E+03  0.45107515581E+03  0.13109062180E+04  0.00000000000E+00 0.  1.
<mgrwt>
<rscale>  0 0.24705293E+04</rscale>
<asrwt>0</asrwt>
<pdfrwt beam="1">  1        2 0.12398300E+00 0.24705293E+04</pdfrwt>
<pdfrwt beam="2">  1       -2 0.29129376E+00 0.24705293E+04</pdfrwt>
<totfact> 0.10958625E+00</totfact>
</mgrwt>
</event>
<event>
 6    1  0.5196787E-004  0.3078735E+04  0.7818608E-02  0.8221598E-01
         -2   -1    0    0    0  501 -0.00000000000E+00  0.00000000000E+00  0.12571345766E+04  0.12571345766E+04  0.00000000000E+00 0. -1.
          2   -1    0    0  501    0  0.00000000000E+00 -0.00000000000E+00 -0.18849631838E+04  0.18849631838E+04  0.00000000000E+00 0.  1.
         23    2    1    2    0    0  0.85928933491E+03  0.45776552151E+03 -0.15293183666E+04  0.18152175021E+04  0.90953174019E+02 0.  0.
         13    1    3    3    0    0  0.43251607093E+03  0.24448780897E+03 -0.86122125462E+03  0.99425675243E+03  0.00000000000E+00 0. -1.
        -13    1    3    3    0    0  0.42677326398E+03  0.21327771254E+03 -0.66809711194E+03  0.82096074968E+03  0.00000000000E+00 0.  1.
         22    1    1    2    0    0 -0.85928933491E+03 -0.45776552151E+03  0.90148975935E+03  0.13268802583E+04  0.00000000000E+00 0. -1.
<mgrwt>
<rscale>  0 0.30787351E+04</rscale>
<asrwt>0</asrwt>
<pdfrwt beam="1">  1        2 0.28999434E+00 0.30787351E+04</pdfrwt>
<pdfrwt beam="2">  1       -2 0.19340532E+00 0.30787351E+04</pdfrwt>
<totfact> 0.96837108E-01</totfact>
</mgrwt>
</event>
<event>
 6    1  0.5196787E-004  0.2117429E+04  0.7818608E-02  0.8553604E-01
          1   -1    0    0  501    0  0.00000000000E+00  0.00000000000E+00  0.87631547566E+03  0.87631547566E+03  0.00000000000E+00 0.  1.
         -1   -1    0    0    0  501 -0.00000000000E+00 -0.00000000000E+00 -0.12790786824E+04  0.12790786824E+04  0.00000000000E+00 0. -1.
         23    2    1    2    0    0  0.94297455508E+03  0.25565196856E+03 -0.61181467877E+03  0.11562638070E+04  0.89832341573E+02 0.  0.
         13    1    3    3    0    0  0.46890126675E+03  0.12246530252E+03 -0.25082068338E+03  0.54568962194E+03  0.00000000000E+00 0.  1.
        -13    1    3    3    0    0  0.47407328834E+03  0.13318666604E+03 -0.36099399539E+03  0.61057418503E+03  0.00000000000E+00 0. -1.
         22    1    1    2    0    0 -0.94297455508E+03 -0.25565196856E+03  0.20905147200E+03  0.99913035111E+03  0.00000000000E+00 0.  1.
<mgrwt>
<rscale>  0 0.21174290E+04</rscale>
<asrwt>0</asrwt>
<pdfrwt beam="1">  1        1 0.13481777E+00 0.21174290E+04</pdfrwt>
<pdfrwt beam="2">  1       -1 0.19678134E+00 0.21174290E+04</pdfrwt>
<totfact> 0.27692318E+00</totfact>
</mgrwt>
</event>
<event>
 6    1  0.5196787E-004  0.2014394E+04  0.7818608E-02  0.8599920E-01
          1   -1    0    0  501    0  0.00000000000E+00  0.00000000000E+00  0.31177819282E+04  0.31177819282E+04  0.00000000000E+00 0. -1.
         -1   -1    0    0    0  501 -0.00000000000E+00 -0.00000000000E+00 -0.32537430505E+03  0.32537430505E+03  0.00000000000E+00 0.  1.
         23    2    1    2    0    0  0.94999942440E+03 -0.31795716887E+03  0.15381720535E+04  0.18379451780E+04  0.92051853311E+02 0.  0.
         11    1    3    3    0    0  0.50334573089E+03 -0.12118553985E+03  0.77291414593E+03  0.93028981337E+03  0.00000000000E+00 0.  1.
        -11    1    3    3    0    0  0.44665369350E+03 -0.19677162903E+03  0.76525790756E+03  0.90765536466E+03  0.00000000000E+00 0. -1.
         22    1    1    2    0    0 -0.94999942440E+03  0.31795716887E+03  0.12542355696E+04  0.16052110552E+04  0.00000000000E+00 0. -1.
<mgrwt>
<rscale>  0 0.20143943E+04</rscale>
<asrwt>0</asrwt>
<pdfrwt beam="1">  1        1 0.47965874E+00 0.20143943E+04</pdfrwt>
<pdfrwt beam="2">  1       -1 0.50057588E-01 0.20143943E+04</pdfrwt>
<totfact> 0.18208651E+00</totfact>
</mgrwt>
</event>
<event>
 6    1  0.5196787E-004  0.7765986E+03  0.7818608E-02  0.9594521E-01
          1   -1    0    0  501    0  0.00000000000E+00  0.00000000000E+00  0.11043574518E+04  0.11043574518E+04  0.00000000000E+00 0.  1.
         -1   -1    0    0    0  501 -0.00000000000E+00 -0.00000000000E+00 -0.13652856717E+03  0.13652856717E+03  0.00000000000E+00 0. -1.
         23    2    1    2    0    0 -0.32563047588E+03 -0.15591951624E+03  0.69809223349E+03  0.79021544824E+03  0.82228862426E+02 0.  0.
         11    1    3    3    0    0 -0.94048875164E+02 -0.33442146545E+02  0.12407297569E+03  0.15924092244E+03  0.00000000000E+00 0.  1.
        -11    1    3    3    0    0 -0.23158160072E+03 -0.12247736969E+03  0.57401925780E+03  0.63097452580E+03  0.00000000000E+00 0. -1.
         22    1    1    2    0    0  0.32563047588E+03  0.15591951624E+03  0.26973665116E+03  0.45067057076E+03  0.00000000000E+00 0. -1.
<mgrwt>
<rscale>  0 0.77659858E+03</rscale>
<asrwt>0</asrwt>
<pdfrwt beam="1">  1        1 0.16990114E+00 0.77659858E+03</pdfrwt>
<pdfrwt beam="2">  1       -1 0.21004396E-01 0.77659858E+03</pdfrwt>
<totfact> 0.23968179E+02</totfact>
</mgrwt>
</event>
<event>
 6    1  0.5196787E-004  0.2228789E+04  0.7818608E-02  0.8506540E-01
          2   -1    0    0  501    0  0.00000000000E+00  0.00000000000E+00  0.14022770150E+04  0.14022770150E+04  0.00000000000E+00 0.  1.
         -2   -1    0    0    0  501 -0.00000000000E+00 -0.00000000000E+00 -0.88561286127E+03  0.88561286127E+03  0.00000000000E+00 0. -1.
         23    2    1    2    0    0  0.17434601466E+03 -0.95456670422E+03  0.81735106595E+03  0.12720125486E+04  0.91427747976E+02 0.  0.
         11    1    3    3    0    0  0.27904477069E+01 -0.19500791628E+03  0.18649334805E+03  0.26984373789E+03  0.00000000000E+00 0.  1.
        -11    1    3    3    0    0  0.17155556695E+03 -0.75955878794E+03  0.63085771790E+03  0.10021688107E+04  0.00000000000E+00 0. -1.
         22    1    1    2    0    0 -0.17434601466E+03  0.95456670422E+03 -0.30068691226E+03  0.10158773277E+04  0.00000000000E+00 0. -1.
<mgrwt>
<rscale>  0 0.22287885E+04</rscale>
<asrwt>0</asrwt>
<pdfrwt beam="1">  1        2 0.21573493E+00 0.22287885E+04</pdfrwt>
<pdfrwt beam="2">  1       -2 0.13624813E+00 0.22287885E+04</pdfrwt>
<totfact> 0.50702476E+00</totfact>
</mgrwt>
</event>
<event>
 6    1  0.5196787E-004  0.2106005E+04  0.7818608E-02  0.8558603E-01
          2   -1    0    0  501    0  0.00000000000E+00  0.00000000000E+00  0.89980603814E+03  0.89980603814E+03  0.00000000000E+00 0.  1.
         -2   -1    0    0    0  501 -0.00000000000E+00 -0.00000000000E+00 -0.12322814820E+04  0.12322814820E+04  0.00000000000E+00 0. -1.
         23    2    1    2    0    0  0.26865374502E+03 -0.80958341695E+03  0.45525921875E+03  0.97099921929E+03  0.89321799705E+02 0.  0.
         13    1    3    3    0    0  0.32349200768E+02 -0.22152960222E+03  0.11570281820E+03  0.25200987597E+03  0.00000000000E+00 0. -1.
        -13    1    3    3    0    0  0.23630454426E+03 -0.58805381473E+03  0.33955640055E+03  0.71898934332E+03  0.00000000000E+00 0.  1.
         22    1    1    2    0    0 -0.26865374502E+03  0.80958341695E+03 -0.78773466263E+03  0.11610883009E+04  0.00000000000E+00 0. -1.
<mgrwt>
<rscale>  0 0.21060051E+04</rscale>
<asrwt>0</asrwt>
<pdfrwt beam="1">  1        2 0.13843170E+00 0.21060051E+04</pdfrwt>
<pdfrwt beam="2">  1       -2 0.18958177E+00 0.21060051E+04</pdfrwt>
<totfact> 0.42131916E+00</totfact>
</mgrwt>
</event>
<event>
 6    1  0.5196787E-004  0.8540544E+03  0.7818608E-02  0.9484911E-01
          2   -1    0    0  501    0  0.00000000000E+00  0.00000000000E+00  0.11920125523E+04  0.11920125523E+04  0.00000000000E+00 0.  1.
         -2   -1    0    0    0  501 -0.00000000000E+00 -0.00000000000E+00 -0.15297843122E+03  0.15297843122E+03  0.00000000000E+00 0. -1.
         23    2    1    2    0    0  0.69466854744E+02  0.24795468152E+03  0.10522576802E+04  0.10871498880E+04  0.91331732455E+02 0.  0.
         13    1    3    3    0    0  0.72593463996E+02  0.10236687962E+03  0.42053045711E+03  0.43885607483E+03  0.00000000000E+00 0. -1.
        -13    1    3    3    0    0 -0.31266092522E+01  0.14558780190E+03  0.63172722314E+03  0.64829381318E+03  0.00000000000E+00 0.  1.
         22    1    1    2    0    0 -0.69466854744E+02 -0.24795468152E+03 -0.13223559211E+02  0.25784109547E+03  0.00000000000E+00 0. -1.
<mgrwt>
<rscale>  0 0.85405435E+03</rscale>
<asrwt>0</asrwt>
<pdfrwt beam="1">  1        2 0.18338654E+00 0.85405435E+03</pdfrwt>
<pdfrwt beam="2">  1       -2 0.23535144E-01 0.85405435E+03</pdfrwt>
<totfact> 0.30724306E+02</totfact>
</mgrwt>
</event>
<event>
 6    1  0.5196787E-004  0.2109625E+04  0.7818608E-02  0.8557015E-01
         -2   -1    0    0    0  501 -0.00000000000E+00  0.00000000000E+00  0.78526289300E+03  0.78526289300E+03  0.00000000000E+00 0. -1.
          2   -1    0    0  501    0  0.00000000000E+00 -0.00000000000E+00 -0.14168873180E+04  0.14168873180E+04  0.00000000000E+00 0.  1.
         23    2    1    2    0    0  0.52702684364E+03  0.65367938223E+03  0.34687894384E+03  0.91276164602E+03  0.88061297344E+02 0.  0.
         13    1    3    3    0    0  0.17027913032E+03  0.27845176286E+03  0.14224460044E+03  0.35603917315E+03  0.00000000000E+00 0. -1.
        -13    1    3    3    0    0  0.35674771332E+03  0.37522761937E+03  0.20463434340E+03  0.55672247287E+03  0.00000000000E+00 0.  1.
         22    1    1    2    0    0 -0.52702684364E+03 -0.65367938223E+03 -0.97850336881E+03  0.12893885650E+04  0.00000000000E+00 0.  1.
<mgrwt>
<rscale>  0 0.21096246E+04</rscale>
<asrwt>0</asrwt>
<pdfrwt beam="1">  1        2 0.21798266E+00 0.21096246E+04</pdfrwt>
<pdfrwt beam="2">  1       -2 0.12080968E+00 0.21096246E+04</pdfrwt>
<totfact> 0.68061579E+00</totfact>
</mgrwt>
</event>
<event>
 6    1  0.5196787E-004  0.2200127E+04  0.7818608E-02  0.8518375E-01
         -2   -1    0    0    0  501 -0.00000000000E+00  0.00000000000E+00  0.35742021371E+03  0.35742021371E+03  0.00000000000E+00 0. -1.
          2   -1    0    0  501    0  0.00000000000E+00 -0.00000000000E+00 -0.33857603771E+04  0.33857603771E+04  0.00000000000E+00 0.  1.
         23    2    1    2    0    0  0.77322282490E+03  0.51359979155E+03 -0.25149939733E+04  0.26824343470E+04  0.92741886044E+02 0.  0.
         11    1    3    3    0    0  0.33173893647E+03  0.26773002971E+03 -0.10820213786E+04  0.11629704874E+04  0.00000000000E+00 0.  1.
        -11    1    3    3    0    0  0.44148388843E+03  0.24586976184E+03 -0.14329725947E+04  0.15194638597E+04  0.00000000000E+00 0. -1.
         22    1    1    2    0    0 -0.77322282490E+03 -0.51359979155E+03 -0.51334619006E+03  0.10607462438E+04  0.00000000000E+00 0. -1.
<mgrwt>
<rscale>  0 0.22001265E+04</rscale>
<asrwt>0</asrwt>
<pdfrwt beam="1">  1        2 0.52088622E+00 0.22001265E+04</pdfrwt>
<pdfrwt beam="2">  1       -2 0.54987724E-01 0.22001265E+04</pdfrwt>
<totfact> 0.27798768E+00</totfact>
</mgrwt>
</event>
<event>
 6    1  0.5196787E-004  0.5337794E+03  0.7818608E-02  0.1005320E+00
         -3   -1    0    0    0  501 -0.00000000000E+00  0.00000000000E+00  0.10402168019E+03  0.10402168019E+03  0.00000000000E+00 0. -1.
          3   -1    0    0  501    0  0.00000000000E+00 -0.00000000000E+00 -0.68476207613E+03  0.68476207613E+03  0.00000000000E+00 0.  1.
         23    2    1    2    0    0 -0.24767733316E+03  0.60906080277E+02 -0.36786488984E+03  0.45656456200E+03  0.89849931124E+02 0.  0.
         11    1    3    3    0    0 -0.14396433953E+03  0.18763463669E+02 -0.13527896799E+03  0.19843940588E+03  0.00000000000E+00 0. -1.
        -11    1    3    3    0    0 -0.10371299364E+03  0.42142616608E+02 -0.23258592184E+03  0.25812515612E+03  0.00000000000E+00 0.  1.
         22    1    1    2    0    0  0.24767733316E+03 -0.60906080277E+02 -0.21287550610E+03  0.33221919432E+03  0.00000000000E+00 0.  1.
<mgrwt>
<rscale>  0 0.53377936E+03</rscale>
<asrwt>0</asrwt>
<pdfrwt beam="1">  1        3 0.10534801E+00 0.53377936E+03</pdfrwt>
<pdfrwt beam="2">  1       -3 0.16003335E-01 0.53377936E+03</pdfrwt>
<totfact> 0.69327221E+01</totfact>
</mgrwt>
</event>
<event>
 6    1  0.5196787E-004  0.1848381E+04  0.7818608E-02  0.8680986E-01
         -2   -1    0    0    0  501 -0.00000000000E+00  0.00000000000E+00  0.56568105164E+03  0.56568105164E+03  0.00000000000E+00 0. -1.
          2   -1    0    0  501    0  0.00000000000E+00 -0.00000000000E+00 -0.15099105683E+04  0.15099105683E+04  0.00000000000E+00 0.  1.
         23    2    1    2    0    0  0.26834423027E+03  0.80069859015E+03 -0.88829306381E+03  0.12292726819E+04  0.94445227553E+02 0.  0.
         13    1    3    3    0    0  0.15284600408E+03  0.36073143174E+03 -0.35912936980E+03  0.53147245560E+03  0.00000000000E+00 0. -1.
        -13    1    3    3    0    0  0.11549822619E+03  0.43996715842E+03 -0.52916369402E+03  0.69780022628E+03  0.00000000000E+00 0.  1.
         22    1    1    2    0    0 -0.26834423027E+03 -0.80069859015E+03 -0.55936452868E+02  0.84631893808E+03  0.00000000000E+00 0. -1.
<mgrwt>
<rscale>  0 0.18483807E+04</rscale>
<asrwt>0</asrwt>
<pdfrwt beam="1">  1        2 0.23229393E+00 0.18483807E+04</pdfrwt>
<pdfrwt beam="2">  1       -2 0.87027855E-01 0.18483807E+04</pdfrwt>
<totfact> 0.13454925E+01</totfact>
</mgrwt>
</event>
<event>
 6    1  0.5196787E-004  0.1351245E+04  0.7818608E-02  0.8989886E-01
         -1   -1    0    0    0  501 -0.00000000000E+00  0.00000000000E+00  0.64357832714E+03  0.64357832714E+03  0.00000000000E+00 0.  1.
          1   -1    0    0  501    0  0.00000000000E+00 -0.00000000000E+00 -0.70926193303E+03  0.70926193303E+03  0.00000000000E+00 0. -1.
         23    2    1    2    0    0 -0.33748787671E+03 -0.50997701210E+03 -0.31358155403E+03  0.69297056661E+03  0.88883043124E+02 0.  0.
         11    1    3    3    0    0 -0.24284247778E+03 -0.42986323362E+03 -0.25837539184E+03  0.55723667480E+03  0.00000000000E+00 0.  1.
        -11    1    3    3    0    0 -0.94645398928E+02 -0.80113778481E+02 -0.55206162196E+02  0.13573389181E+03  0.00000000000E+00 0. -1.
         22    1    1    2    0    0  0.33748787671E+03  0.50997701210E+03  0.24789794814E+03  0.65986969357E+03  0.00000000000E+00 0.  1.
<mgrwt>
<rscale>  0 0.13512448E+04</rscale>
<asrwt>0</asrwt>
<pdfrwt beam="1">  1        1 0.10911722E+00 0.13512448E+04</pdfrwt>
<pdfrwt beam="2">  1       -1 0.99012050E-01 0.13512448E+04</pdfrwt>
<totfact> 0.25493421E+01</totfact>
</mgrwt>
</event>
<event>
 6    1  0.5196787E-004  0.3690797E+04  0.7818608E-02  0.8070004E-01
          2   -1    0    0  501    0  0.00000000000E+00  0.00000000000E+00  0.31058440794E+04  0.31058440794E+04  0.00000000000E+00 0. -1.
         -2   -1    0    0    0  501 -0.00000000000E+00 -0.00000000000E+00 -0.10964800220E+04  0.10964800220E+04  0.00000000000E+00 0.  1.
         23    2    1    2    0    0  0.12840229254E+04 -0.61833060836E+03  0.23381160956E+04  0.27397491404E+04  0.91601646699E+02 0.  0.
         11    1    3    3    0    0  0.10117355672E+04 -0.49237089213E+03  0.17720331577E+04  0.20990806238E+04  0.00000000000E+00 0. -1.
        -11    1    3    3    0    0  0.27228735814E+03 -0.12595971623E+03  0.56608293790E+03  0.64066851655E+03  0.00000000000E+00 0.  1.
         22    1    1    2    0    0 -0.12840229254E+04  0.61833060836E+03 -0.32875203825E+03  0.14625749611E+04  0.00000000000E+00 0.  1.
<mgrwt>
<rscale>  0 0.36907972E+04</rscale>
<asrwt>0</asrwt>
<pdfrwt beam="1">  1        2 0.47782216E+00 0.36907972E+04</pdfrwt>
<pdfrwt beam="2">  1       -2 0.16868924E+00 0.36907972E+04</pdfrwt>
<totfact> 0.26262623E-01</totfact>
</mgrwt>
</event>
<event>
 6    1  0.5196787E-004  0.1918877E+04  0.7818608E-02  0.8645517E-01
          2   -1    0    0  501    0  0.00000000000E+00  0.00000000000E+00  0.12288332420E+04  0.12288332420E+04  0.00000000000E+00 0.  1.
         -2   -1    0    0    0  501 -0.00000000000E+00 -0.00000000000E+00 -0.74910230221E+03  0.74910230221E+03  0.00000000000E+00 0. -1.
         23    2    1    2    0    0 -0.15219897945E+03 -0.58386955013E+03 -0.52565660083E+03  0.80538606221E+03  0.90904709939E+02 0.  0.
         11    1    3    3    0    0 -0.12660764167E+03 -0.35429989363E+03 -0.36354419606E+03  0.52318475899E+03  0.00000000000E+00 0. -1.
        -11    1    3    3    0    0 -0.25591337780E+02 -0.22956965650E+03 -0.16211240477E+03  0.28220130322E+03  0.00000000000E+00 0.  1.
         22    1    1    2    0    0  0.15219897945E+03  0.58386955013E+03  0.10053875406E+04  0.11725494820E+04  0.00000000000E+00 0.  1.
<mgrwt>
<rscale>  0 0.19188766E+04</rscale>
<asrwt>0</asrwt>
<pdfrwt beam="1">  1        2 0.18905127E+00 0.19188766E+04</pdfrwt>
<pdfrwt beam="2">  1       -2 0.11524651E+00 0.19188766E+04</pdfrwt>
<totfact> 0.99881459E+00</totfact>
</mgrwt>
</event>
<event>
 6    1  0.5196787E-004  0.1033362E+04  0.7818608E-02  0.9272693E-01
         -2   -1    0    0    0  501 -0.00000000000E+00  0.00000000000E+00  0.16604341657E+03  0.16604341657E+03  0.00000000000E+00 0. -1.
          2   -1    0    0  501    0  0.00000000000E+00 -0.00000000000E+00 -0.16077664580E+04  0.16077664580E+04  0.00000000000E+00 0.  1.
         23    2    1    2    0    0 -0.28016064239E+03  0.52290835602E+02  0.49847197817E+01  0.29929718782E+03  0.91266873380E+02 0.  0.
         11    1    3    3    0    0 -0.18363325929E+03  0.74980884188E+02  0.18542460689E+02  0.19921628889E+03  0.00000000000E+00 0. -1.
        -11    1    3    3    0    0 -0.96527383097E+02 -0.22690048586E+02 -0.13557740907E+02  0.10008089893E+03  0.00000000000E+00 0.  1.
         22    1    1    2    0    0  0.28016064239E+03 -0.52290835602E+02 -0.14467077613E+04  0.14745126868E+04  0.00000000000E+00 0.  1.
<mgrwt>
<rscale>  0 0.10333616E+04</rscale>
<asrwt>0</asrwt>
<pdfrwt beam="1">  1        2 0.24734869E+00 0.10333616E+04</pdfrwt>
<pdfrwt beam="2">  1       -2 0.25545141E-01 0.10333616E+04</pdfrwt>
<totfact> 0.15172971E+02</totfact>
</mgrwt>
</event>
<event>
 6    1  0.5196787E-004  0.4763696E+04  0.7818608E-02  0.7866030E-01
         -2   -1    0    0    0  501 -0.00000000000E+00  0.00000000000E+00  0.39866390874E+04  0.39866390874E+04  0.00000000000E+00 0. -1.
          2   -1    0    0  501    0  0.00000000000E+00 -0.00000000000E+00 -0.14230532484E+04  0.14230532484E+04  0.00000000000E+00 0.  1.
         23    2    1    2    0    0  0.17833927293E+04 -0.11815441805E+04  0.95226387841E+02  0.21432975867E+04  0.90112166807E+02 0.  0.
         11    1    3    3    0    0  0.95728644879E+03 -0.60467123737E+03  0.88051951406E+02  0.11356838453E+04  0.00000000000E+00 0. -1.
        -11    1    3    3    0    0  0.82610628055E+03 -0.57687294309E+03  0.71744364350E+01  0.10076137414E+04  0.00000000000E+00 0.  1.
         22    1    1    2    0    0 -0.17833927293E+04  0.11815441805E+04  0.24683594511E+04  0.32663947492E+04  0.00000000000E+00 0. -1.
<mgrwt>
<rscale>  0 0.47636959E+04</rscale>
<asrwt>0</asrwt>
<pdfrwt beam="1">  1        2 0.21893127E+00 0.47636959E+04</pdfrwt>
<pdfrwt beam="2">  1       -2 0.61332908E+00 0.47636959E+04</pdfrwt>
<totfact> 0.47378120E-03</totfact>
</mgrwt>
</event>
<event>
 6    1  0.5196787E-004  0.1664746E+04  0.7818608E-02  0.8781730E-01
          2   -1    0    0  501    0  0.00000000000E+00  0.00000000000E+00  0.76459180688E+03  0.76459180688E+03  0.00000000000E+00 0.  1.
         -2   -1    0    0    0  501 -0.00000000000E+00 -0.00000000000E+00 -0.90616314252E+03  0.90616314252E+03  0.00000000000E+00 0. -1.
         23    2    1    2    0    0  0.50256475296E+03  0.42230916506E+03  0.43847478859E+03  0.79475844939E+03  0.92002667539E+02 0.  0.
         11    1    3    3    0    0  0.28600204352E+03  0.29146916015E+03  0.29636128059E+03  0.50456064932E+03  0.00000000000E+00 0. -1.
        -11    1    3    3    0    0  0.21656270944E+03  0.13084000491E+03  0.14211350800E+03  0.29019780006E+03  0.00000000000E+00 0.  1.
         22    1    1    2    0    0 -0.50256475296E+03 -0.42230916506E+03 -0.58004612422E+03  0.87599650001E+03  0.00000000000E+00 0. -1.
<mgrwt>
<rscale>  0 0.16647461E+04</rscale>
<asrwt>0</asrwt>
<pdfrwt beam="1">  1        2 0.11762951E+00 0.16647461E+04</pdfrwt>
<pdfrwt beam="2">  1       -2 0.13940971E+00 0.16647461E+04</pdfrwt>
<totfact> 0.12666250E+01</totfact>
</mgrwt>
</event>
<event>
 6    1  0.5196787E-004  0.1732543E+04  0.7818608E-02  0.8743018E-01
          2   -1    0    0  501    0  0.00000000000E+00  0.00000000000E+00  0.32125858284E+03  0.32125858284E+03  0.00000000000E+00 0.  1.
         -2   -1    0    0    0  501 -0.00000000000E+00 -0.00000000000E+00 -0.23358957936E+04  0.23358957936E+04  0.00000000000E+00 0. -1.
         23    2    1    2    0    0 -0.51876350226E+03 -0.24439714121E+03 -0.20010703461E+04  0.20835433639E+04  0.89581723048E+02 0.  0.
         11    1    3    3    0    0 -0.45685081658E+03 -0.18498151070E+03 -0.17572354409E+04  0.18250499233E+04  0.00000000000E+00 0.  1.
        -11    1    3    3    0    0 -0.61912685676E+02 -0.59415630509E+02 -0.24383490525E+03  0.25849344056E+03  0.00000000000E+00 0. -1.
         22    1    1    2    0    0  0.51876350226E+03  0.24439714121E+03 -0.13566864628E+02  0.57361101255E+03  0.00000000000E+00 0.  1.
<mgrwt>
<rscale>  0 0.17325433E+04</rscale>
<asrwt>0</asrwt>
<pdfrwt beam="1">  1        2 0.49424397E-01 0.17325433E+04</pdfrwt>
<pdfrwt beam="2">  1       -2 0.35936858E+00 0.17325433E+04</pdfrwt>
<totfact> 0.13163616E+00</totfact>
</mgrwt>
</event>
<event>
 6    1  0.5196787E-004  0.6602795E+03  0.7818608E-02  0.9787679E-01
         -2   -1    0    0    0  501 -0.00000000000E+00  0.00000000000E+00  0.63158454101E+03  0.63158454101E+03  0.00000000000E+00 0. -1.
          2   -1    0    0  501    0  0.00000000000E+00 -0.00000000000E+00 -0.17256953246E+03  0.17256953246E+03  0.00000000000E+00 0.  1.
         23    2    1    2    0    0 -0.21112540033E+02  0.72871888121E+02  0.61746174676E+03  0.62847988563E+03  0.89285533590E+02 0.  0.
         11    1    3    3    0    0  0.34194837343E+02  0.24720339180E+02  0.27835171769E+03  0.28153163376E+03  0.00000000000E+00 0. -1.
        -11    1    3    3    0    0 -0.55307377376E+02  0.48151548941E+02  0.33911002907E+03  0.34694825187E+03  0.00000000000E+00 0.  1.
         22    1    1    2    0    0  0.21112540033E+02 -0.72871888121E+02 -0.15844673821E+03  0.17567418784E+03  0.00000000000E+00 0.  1.
<mgrwt>
<rscale>  0 0.66027948E+03</rscale>
<asrwt>0</asrwt>
<pdfrwt beam="1">  1        2 0.26549159E-01 0.66027948E+03</pdfrwt>
<pdfrwt beam="2">  1       -2 0.97166852E-01 0.66027948E+03</pdfrwt>
<totfact> 0.18281652E+02</totfact>
</mgrwt>
</event>
<event>
 6    1  0.5196787E-004  0.7904246E+03  0.7818608E-02  0.9573981E-01
         -2   -1    0    0    0  501 -0.00000000000E+00  0.00000000000E+00  0.48105666320E+03  0.48105666320E+03  0.00000000000E+00 0. -1.
          2   -1    0    0  501    0  0.00000000000E+00 -0.00000000000E+00 -0.32468686749E+03  0.32468686749E+03  0.00000000000E+00 0.  1.
         23    2    1    2    0    0 -0.23980673209E+03  0.13560752526E+03  0.36011377144E+03  0.46309461808E+03  0.94223284029E+02 0.  0.
         11    1    3    3    0    0 -0.11121882485E+03  0.16689306192E+02  0.17696872473E+03  0.20968092301E+03  0.00000000000E+00 0. -1.
        -11    1    3    3    0    0 -0.12858790724E+03  0.11891821907E+03  0.18314504670E+03  0.25341369507E+03  0.00000000000E+00 0.  1.
         22    1    1    2    0    0  0.23980673209E+03 -0.13560752526E+03 -0.20374397573E+03  0.34264891261E+03  0.00000000000E+00 0.  1.
<mgrwt>
<rscale>  0 0.79042465E+03</rscale>
<asrwt>0</asrwt>
<pdfrwt beam="1">  1        2 0.49951826E-01 0.79042465E+03</pdfrwt>
<pdfrwt beam="2">  1       -2 0.74008718E-01 0.79042465E+03</pdfrwt>
<totfact> 0.16661860E+02</totfact>
</mgrwt>
</event>
<event>
 6    1  0.5196787E-004  0.2190081E+04  0.7818608E-02  0.8522568E-01
         -1   -1    0    0    0  501 -0.00000000000E+00  0.00000000000E+00  0.55414871598E+03  0.55414871598E+03  0.00000000000E+00 0. -1.
          1   -1    0    0  501    0  0.00000000000E+00 -0.00000000000E+00 -0.21638838896E+04  0.21638838896E+04  0.00000000000E+00 0.  1.
         23    2    1    2    0    0 -0.16143866843E+03  0.10766199187E+04 -0.68184118174E+03  0.12875920605E+04  0.88391312455E+02 0.  0.
         11    1    3    3    0    0 -0.14411316911E+03  0.67460329285E+03 -0.43478673679E+03  0.81541260397E+03  0.00000000000E+00 0.  1.
        -11    1    3    3    0    0 -0.17325499327E+02  0.40201662581E+03 -0.24705444495E+03  0.47217945648E+03  0.00000000000E+00 0. -1.
         22    1    1    2    0    0  0.16143866843E+03 -0.10766199187E+04 -0.92789399185E+03  0.14304405451E+04  0.00000000000E+00 0. -1.
<mgrwt>
<rscale>  0 0.21900808E+04</rscale>
<asrwt>0</asrwt>
<pdfrwt beam="1">  1        1 0.33290522E+00 0.21900808E+04</pdfrwt>
<pdfrwt beam="2">  1       -1 0.85253648E-01 0.21900808E+04</pdfrwt>
<totfact> 0.28614212E+00</totfact>
</mgrwt>
</event>
<event>
 6    1  0.5196787E-004  0.4503339E+04  0.7818608E-02  0.7910053E-01
          2   -1    0    0  501    0  0.00000000000E+00  0.00000000000E+00  0.17765413140E+04  0.17765413140E+04  0.00000000000E+00 0.  1.
         -2   -1    0    0    0  501 -0.00000000000E+00 -0.00000000000E+00 -0.28538684168E+04  0.28538684168E+04  0.00000000000E+00 0. -1.
         23    2    1    2    0    0 -0.10195904247E+04 -0.54178781639E+03 -0.25254303618E+04  0.27783563511E+04  0.91470373134E+02 0.  0.
         13    1    3    3    0    0 -0.38065458996E+03 -0.17103599336E+03 -0.83094999808E+03  0.92985435806E+03  0.00000000000E+00 0. -1.
        -13    1    3    3    0    0 -0.63893583477E+03 -0.37075182303E+03 -0.16944803637E+04  0.18485019931E+04  0.00000000000E+00 0.  1.
         22    1    1    2    0    0  0.10195904247E+04  0.54178781639E+03  0.14481032590E+04  0.18520533796E+04  0.00000000000E+00 0.  1.
<mgrwt>
<rscale>  0 0.45033388E+04</rscale>
<asrwt>0</asrwt>
<pdfrwt beam="1">  1        2 0.27331405E+00 0.45033388E+04</pdfrwt>
<pdfrwt beam="2">  1       -2 0.43905668E+00 0.45033388E+04</pdfrwt>
<totfact> 0.27646834E-02</totfact>
</mgrwt>
</event>
<event>
 6    1  0.5196787E-004  0.3506008E+04  0.7818608E-02  0.8112368E-01
         -2   -1    0    0    0  501 -0.00000000000E+00  0.00000000000E+00  0.96795184075E+03  0.96795184075E+03  0.00000000000E+00 0. -1.
          2   -1    0    0  501    0  0.00000000000E+00 -0.00000000000E+00 -0.31747678307E+04  0.31747678307E+04  0.00000000000E+00 0.  1.
         23    2    1    2    0    0 -0.77543861140E+03 -0.78344660135E+03 -0.27129569935E+04  0.29297595185E+04  0.90893181484E+02 0.  0.
         13    1    3    3    0    0 -0.43743422485E+03 -0.42825645562E+03 -0.16223375792E+04  0.17339929393E+04  0.00000000000E+00 0.  1.
        -13    1    3    3    0    0 -0.33800438656E+03 -0.35519014573E+03 -0.10906194143E+04  0.11957665792E+04  0.00000000000E+00 0. -1.
         22    1    1    2    0    0  0.77543861140E+03  0.78344660135E+03  0.50614100353E+03  0.12129601530E+04  0.00000000000E+00 0. -1.
<mgrwt>
<rscale>  0 0.35060076E+04</rscale>
<asrwt>0</asrwt>
<pdfrwt beam="1">  1        2 0.48842582E+00 0.35060076E+04</pdfrwt>
<pdfrwt beam="2">  1       -2 0.14891567E+00 0.35060076E+04</pdfrwt>
<totfact> 0.33751228E-01</totfact>
</mgrwt>
</event>
<event>
 6    1  0.5196787E-004  0.7678067E+03  0.7818608E-02  0.9607821E-01
          2   -1    0    0  501    0  0.00000000000E+00  0.00000000000E+00  0.21312814982E+03  0.21312814982E+03  0.00000000000E+00 0.  1.
         -2   -1    0    0    0  501 -0.00000000000E+00 -0.00000000000E+00 -0.69151718416E+03  0.69151718416E+03  0.00000000000E+00 0. -1.
         23    2    1    2    0    0 -0.24421884444E+03  0.25227890969E+03 -0.75592031103E+02  0.37029253099E+03  0.90082801284E+02 0.  0.
         13    1    3    3    0    0 -0.64462277123E+02  0.92277078189E+02 -0.63723400532E+02  0.12934881564E+03  0.00000000000E+00 0. -1.
        -13    1    3    3    0    0 -0.17975656732E+03  0.16000183150E+03 -0.11868630570E+02  0.24094371535E+03  0.00000000000E+00 0.  1.
         22    1    1    2    0    0  0.24421884444E+03 -0.25227890969E+03 -0.40279700323E+03  0.53435280299E+03  0.00000000000E+00 0. -1.
<mgrwt>
<rscale>  0 0.76780669E+03</rscale>
<asrwt>0</asrwt>
<pdfrwt beam="1">  1        2 0.32788946E-01 0.76780669E+03</pdfrwt>
<pdfrwt beam="2">  1       -2 0.10638726E+00 0.76780669E+03</pdfrwt>
<totfact> 0.11560709E+02</totfact>
</mgrwt>
</event>
<event>
 6    1  0.5196787E-004  0.4023668E+04  0.7818608E-02  0.7999789E-01
          2   -1    0    0  501    0  0.00000000000E+00  0.00000000000E+00  0.20417577822E+04  0.20417577822E+04  0.00000000000E+00 0. -1.
         -2   -1    0    0    0  501 -0.00000000000E+00 -0.00000000000E+00 -0.19823488227E+04  0.19823488227E+04  0.00000000000E+00 0.  1.
         23    2    1    2    0    0 -0.35660414422E+03 -0.14063445012E+04 -0.13627617808E+04  0.19924715524E+04  0.88610634011E+02 0.  0.
         13    1    3    3    0    0 -0.30884860248E+03 -0.11846450231E+04 -0.11054280657E+04  0.16494673378E+04  0.00000000000E+00 0. -1.
        -13    1    3    3    0    0 -0.47755541733E+02 -0.22169947805E+03 -0.25733371508E+03  0.34300421462E+03  0.00000000000E+00 0.  1.
         22    1    1    2    0    0  0.35660414422E+03  0.14063445012E+04  0.14221707403E+04  0.20316350524E+04  0.00000000000E+00 0. -1.
<mgrwt>
<rscale>  0 0.40236680E+04</rscale>
<asrwt>0</asrwt>
<pdfrwt beam="1">  1        2 0.31411658E+00 0.40236680E+04</pdfrwt>
<pdfrwt beam="2">  1       -2 0.30497674E+00 0.40236680E+04</pdfrwt>
<totfact> 0.14773244E-01</totfact>
</mgrwt>
</event>
<event>
 6    1  0.5196787E-004  0.1849979E+04  0.7818608E-02  0.8680163E-01
          2   -1    0    0  501    0  0.00000000000E+00  0.00000000000E+00  0.10132247099E+04  0.10132247099E+04  0.00000000000E+00 0. -1.
         -2   -1    0    0    0  501 -0.00000000000E+00 -0.00000000000E+00 -0.84443855390E+03  0.84443855390E+03  0.00000000000E+00 0.  1.
         23    2    1    2    0    0 -0.62152726240E+03  0.58898701599E+03  0.42968879138E+03  0.96252526988E+03  0.92847158323E+02 0.  0.
         11    1    3    3    0    0 -0.23387770425E+03  0.22071049277E+03  0.21225400826E+03  0.38530983141E+03  0.00000000000E+00 0.  1.
        -11    1    3    3    0    0 -0.38764955815E+03  0.36827652323E+03  0.21743478312E+03  0.57721543847E+03  0.00000000000E+00 0. -1.
         22    1    1    2    0    0  0.62152726240E+03 -0.58898701599E+03 -0.26090263542E+03  0.89513799388E+03  0.00000000000E+00 0. -1.
<mgrwt>
<rscale>  0 0.18499795E+04</rscale>
<asrwt>0</asrwt>
<pdfrwt beam="1">  1        2 0.15588072E+00 0.18499795E+04</pdfrwt>
<pdfrwt beam="2">  1       -2 0.12991362E+00 0.18499795E+04</pdfrwt>
<totfact> 0.10104544E+01</totfact>
</mgrwt>
</event>
<event>
 6    1  0.5196787E-004  0.3219939E+04  0.7818608E-02  0.8183571E-01
         -1   -1    0    0    0  501 -0.00000000000E+00  0.00000000000E+00  0.86127530128E+03  0.86127530128E+03  0.00000000000E+00 0. -1.
          1   -1    0    0  501    0  0.00000000000E+00 -0.00000000000E+00 -0.30094935081E+04  0.30094935081E+04  0.00000000000E+00 0.  1.
         23    2    1    2    0    0  0.14470772318E+03  0.53402538517E+03  0.74037431798E+03  0.92966523905E+03  0.99999444093E+02 0.  0.
         11    1    3    3    0    0  0.10327162802E+03  0.47409665224E+03  0.67810703357E+03  0.83382361072E+03  0.00000000000E+00 0. -1.
        -11    1    3    3    0    0  0.41436095165E+02  0.59928732924E+02  0.62267284412E+02  0.95841628328E+02  0.00000000000E+00 0.  1.
         22    1    1    2    0    0 -0.14470772318E+03 -0.53402538517E+03 -0.28885925248E+04  0.29411035704E+04  0.00000000000E+00 0.  1.
<mgrwt>
<rscale>  0 0.32199394E+04</rscale>
<asrwt>0</asrwt>
<pdfrwt beam="1">  1        1 0.46299899E+00 0.32199394E+04</pdfrwt>
<pdfrwt beam="2">  1       -1 0.13250389E+00 0.32199394E+04</pdfrwt>
<totfact> 0.23719720E-01</totfact>
</mgrwt>
</event>
<event>
 6    1  0.5196787E-004  0.3679455E+04  0.7818608E-02  0.8072530E-01
          2   -1    0    0  501    0  0.00000000000E+00  0.00000000000E+00  0.31518345764E+04  0.31518345764E+04  0.00000000000E+00 0.  1.
         -2   -1    0    0    0  501 -0.00000000000E+00 -0.00000000000E+00 -0.10738496951E+04  0.10738496951E+04  0.00000000000E+00 0. -1.
         23    2    1    2    0    0  0.11635565871E+04 -0.10029966513E+04 -0.12067164469E+03  0.15435290313E+04  0.89744140010E+02 0.  0.
         11    1    3    3    0    0  0.79331120558E+03 -0.73790560438E+03 -0.85148131479E+02  0.10867831220E+04  0.00000000000E+00 0. -1.
        -11    1    3    3    0    0  0.37024538149E+03 -0.26509104692E+03 -0.35523513213E+02  0.45674590930E+03  0.00000000000E+00 0.  1.
         22    1    1    2    0    0 -0.11635565871E+04  0.10029966513E+04  0.21986565260E+04  0.26821552403E+04  0.00000000000E+00 0.  1.
<mgrwt>
<rscale>  0 0.36794546E+04</rscale>
<asrwt>0</asrwt>
<pdfrwt beam="1">  1        2 0.48489762E+00 0.36794546E+04</pdfrwt>
<pdfrwt beam="2">  1       -2 0.16520765E+00 0.36794546E+04</pdfrwt>
<totfact> 0.26012343E-01</totfact>
</mgrwt>
</event>
<event>
 6    1  0.5196787E-004  0.1624344E+04  0.7818608E-02  0.8805731E-01
          2   -1    0    0  501    0  0.00000000000E+00  0.00000000000E+00  0.52518664653E+03  0.52518664653E+03  0.00000000000E+00 0.  1.
         -2   -1    0    0    0  501 -0.00000000000E+00 -0.00000000000E+00 -0.12559781669E+04  0.12559781669E+04  0.00000000000E+00 0. -1.
         23    2    1    2    0    0  0.75937820940E+03  0.16612649168E+03 -0.61470045160E+03  0.99520653695E+03  0.91247629174E+02 0.  0.
         13    1    3    3    0    0  0.17708698233E+03  0.70173169922E+02 -0.11989738558E+03  0.22507655622E+03  0.00000000000E+00 0.  1.
        -13    1    3    3    0    0  0.58229122707E+03  0.95953321760E+02 -0.49480306602E+03  0.77012998073E+03  0.00000000000E+00 0. -1.
         22    1    1    2    0    0 -0.75937820940E+03 -0.16612649168E+03 -0.11609106880E+03  0.78595827651E+03  0.00000000000E+00 0.  1.
<mgrwt>
<rscale>  0 0.16243435E+04</rscale>
<asrwt>0</asrwt>
<pdfrwt beam="1">  1        2 0.80797945E-01 0.16243435E+04</pdfrwt>
<pdfrwt beam="2">  1       -2 0.19322741E+00 0.16243435E+04</pdfrwt>
<totfact> 0.81982529E+00</totfact>
</mgrwt>
</event>
<event>
 6    1  0.5196787E-004  0.1382727E+04  0.7818608E-02  0.8966417E-01
          2   -1    0    0  501    0  0.00000000000E+00  0.00000000000E+00  0.17782499303E+04  0.17782499303E+04  0.00000000000E+00 0.  1.
         -2   -1    0    0    0  501 -0.00000000000E+00 -0.00000000000E+00 -0.26879429174E+03  0.26879429174E+03  0.00000000000E+00 0. -1.
         23    2    1    2    0    0  0.20939306577E+03 -0.65379918634E+03  0.68957455815E+03  0.97769684253E+03  0.95284902228E+02 0.  0.
         11    1    3    3    0    0  0.78549978053E+02 -0.39410294477E+03  0.41724557236E+03  0.57929361967E+03  0.00000000000E+00 0. -1.
        -11    1    3    3    0    0  0.13084308771E+03 -0.25969624157E+03  0.27232898579E+03  0.39840322286E+03  0.00000000000E+00 0.  1.
         22    1    1    2    0    0 -0.20939306577E+03  0.65379918634E+03  0.81988108038E+03  0.10693473795E+04  0.00000000000E+00 0. -1.
<mgrwt>
<rscale>  0 0.13827269E+04</rscale>
<asrwt>0</asrwt>
<pdfrwt beam="1">  1        2 0.27357691E+00 0.13827269E+04</pdfrwt>
<pdfrwt beam="2">  1       -2 0.41352969E-01 0.13827269E+04</pdfrwt>
<totfact> 0.47896987E+01</totfact>
</mgrwt>
</event>
<event>
 6    1  0.5196787E-004  0.2904786E+04  0.7818608E-02  0.8271455E-01
         -2   -1    0    0    0  501 -0.00000000000E+00  0.00000000000E+00  0.69725471994E+03  0.69725471994E+03  0.00000000000E+00 0. -1.
          2   -1    0    0  501    0  0.00000000000E+00 -0.00000000000E+00 -0.30253593752E+04  0.30253593752E+04  0.00000000000E+00 0.  1.
         23    2    1    2    0    0  0.21523801423E+03 -0.11305878150E+04 -0.22978018575E+04  0.25713215737E+04  0.85117852962E+02 0.  0.
         13    1    3    3    0    0  0.18493120233E+03 -0.76760110857E+03 -0.15487238137E+04  0.17383775374E+04  0.00000000000E+00 0. -1.
        -13    1    3    3    0    0  0.30306811906E+02 -0.36298670646E+03 -0.74907804377E+03  0.83294403628E+03  0.00000000000E+00 0.  1.
         22    1    1    2    0    0 -0.21523801423E+03  0.11305878150E+04 -0.30302797723E+02  0.11512925214E+04  0.00000000000E+00 0. -1.
<mgrwt>
<rscale>  0 0.29047865E+04</rscale>
<asrwt>0</asrwt>
<pdfrwt beam="1">  1        2 0.46543992E+00 0.29047865E+04</pdfrwt>
<pdfrwt beam="2">  1       -2 0.10726995E+00 0.29047865E+04</pdfrwt>
<totfact> 0.10104163E+00</totfact>
</mgrwt>
</event>
<event>
 6    1  0.5196787E-004  0.2589667E+04  0.7818608E-02  0.8371720E-01
         -2   -1    0    0    0  501 -0.00000000000E+00  0.00000000000E+00  0.12738810651E+04  0.12738810651E+04  0.00000000000E+00 0. -1.
          2   -1    0    0  501    0  0.00000000000E+00 -0.00000000000E+00 -0.13161301563E+04  0.13161301563E+04  0.00000000000E+00 0.  1.
         23    2    1    2    0    0  0.95158932574E+03 -0.27140425833E+03  0.81189585751E+03  0.12828210633E+04  0.85278840241E+02 0.  0.
         13    1    3    3    0    0  0.51902249842E+03 -0.19110241178E+03  0.44071441983E+03  0.70720130479E+03  0.00000000000E+00 0. -1.
        -13    1    3    3    0    0  0.43256682732E+03 -0.80301846554E+02  0.37118143769E+03  0.57561975847E+03  0.00000000000E+00 0.  1.
         22    1    1    2    0    0 -0.95158932574E+03  0.27140425833E+03 -0.85414494866E+03  0.13071901582E+04  0.00000000000E+00 0.  1.
<mgrwt>
<rscale>  0 0.25896666E+04</rscale>
<asrwt>0</asrwt>
<pdfrwt beam="1">  1        2 0.20248156E+00 0.25896666E+04</pdfrwt>
<pdfrwt beam="2">  1       -2 0.19598170E+00 0.25896666E+04</pdfrwt>
<totfact> 0.20249461E+00</totfact>
</mgrwt>
</event>
<event>
 6    1  0.5196787E-004  0.1308582E+04  0.7818608E-02  0.9022787E-01
          2   -1    0    0  501    0  0.00000000000E+00  0.00000000000E+00  0.16554526141E+04  0.16554526141E+04  0.00000000000E+00 0.  1.
         -2   -1    0    0    0  501 -0.00000000000E+00 -0.00000000000E+00 -0.25859807278E+03  0.25859807278E+03  0.00000000000E+00 0. -1.
         23    2    1    2    0    0 -0.33858137117E+03  0.29553265311E+03  0.12132059323E+02  0.45822334613E+03  0.88569487507E+02 0.  0.
         11    1    3    3    0    0 -0.18521267297E+03  0.19913830051E+03  0.40217540170E+02  0.27491316355E+03  0.00000000000E+00 0.  1.
        -11    1    3    3    0    0 -0.15336869820E+03  0.96394352598E+02 -0.28085480847E+02  0.18331018257E+03  0.00000000000E+00 0. -1.
         22    1    1    2    0    0  0.33858137117E+03 -0.29553265311E+03  0.13847224820E+04  0.14558273408E+04  0.00000000000E+00 0.  1.
<mgrwt>
<rscale>  0 0.13085822E+04</rscale>
<asrwt>0</asrwt>
<pdfrwt beam="1">  1        2 0.25468501E+00 0.13085822E+04</pdfrwt>
<pdfrwt beam="2">  1       -2 0.39784320E-01 0.13085822E+04</pdfrwt>
<totfact> 0.60786531E+01</totfact>
</mgrwt>
</event>
<event>
 6    1  0.5196787E-004  0.8557865E+03  0.7818608E-02  0.9482603E-01
          2   -1    0    0  501    0  0.00000000000E+00  0.00000000000E+00  0.47594249919E+03  0.47594249919E+03  0.00000000000E+00 0.  1.
         -2   -1    0    0    0  501 -0.00000000000E+00 -0.00000000000E+00 -0.38469483223E+03  0.38469483223E+03  0.00000000000E+00 0. -1.
         23    2    1    2    0    0 -0.40988231549E+03 -0.96354128814E+02  0.51902754361E+01  0.43087750858E+03  0.91328296577E+02 0.  0.
         13    1    3    3    0    0 -0.68438568253E+02 -0.17421659635E+02 -0.33751427402E+02  0.78272030129E+02  0.00000000000E+00 0. -1.
        -13    1    3    3    0    0 -0.34144374723E+03 -0.78932469179E+02  0.38941702838E+02  0.35260547845E+03  0.00000000000E+00 0.  1.
         22    1    1    2    0    0  0.40988231549E+03  0.96354128814E+02  0.86057391527E+02  0.42975982284E+03  0.00000000000E+00 0.  1.
<mgrwt>
<rscale>  0 0.85578647E+03</rscale>
<asrwt>0</asrwt>
<pdfrwt beam="1">  1        2 0.73221923E-01 0.85578647E+03</pdfrwt>
<pdfrwt beam="2">  1       -2 0.59183820E-01 0.85578647E+03</pdfrwt>
<totfact> 0.17482793E+02</totfact>
</mgrwt>
</event>
<event>
 6    1  0.5196787E-004  0.4377258E+04  0.7818608E-02  0.7932485E-01
          2   -1    0    0  501    0  0.00000000000E+00  0.00000000000E+00  0.45947916436E+04  0.45947916436E+04  0.00000000000E+00 0.  1.
         -2   -1    0    0    0  501 -0.00000000000E+00 -0.00000000000E+00 -0.10425058198E+04  0.10425058198E+04  0.00000000000E+00 0. -1.
         23    2    1    2    0    0  0.47390682734E+03 -0.14415843455E+04  0.38064703370E+04  0.40986737690E+04  0.84599833406E+02 0.  0.
         13    1    3    3    0    0  0.32732848400E+03 -0.86612567865E+03  0.23409690097E+04  0.25174299458E+04  0.00000000000E+00 0. -1.
        -13    1    3    3    0    0  0.14657834334E+03 -0.57545866689E+03  0.14655013273E+04  0.15812438232E+04  0.00000000000E+00 0.  1.
         22    1    1    2    0    0 -0.47390682734E+03  0.14415843455E+04 -0.25418451315E+03  0.15386236944E+04  0.00000000000E+00 0. -1.
<mgrwt>
<rscale>  0 0.43772581E+04</rscale>
<asrwt>0</asrwt>
<pdfrwt beam="1">  1        2 0.70689101E+00 0.43772581E+04</pdfrwt>
<pdfrwt beam="2">  1       -2 0.16038551E+00 0.43772581E+04</pdfrwt>
<totfact> 0.18769980E-02</totfact>
</mgrwt>
</event>
<event>
 6    1  0.5196787E-004  0.2205479E+04  0.7818608E-02  0.8516151E-01
         -2   -1    0    0    0  501 -0.00000000000E+00  0.00000000000E+00  0.15272306626E+04  0.15272306626E+04  0.00000000000E+00 0. -1.
          2   -1    0    0  501    0  0.00000000000E+00 -0.00000000000E+00 -0.79623477281E+03  0.79623477281E+03  0.00000000000E+00 0.  1.
         23    2    1    2    0    0 -0.88501044780E+02 -0.52419776391E+03  0.13816912956E+04  0.14832153288E+04  0.90780750404E+02 0.  0.
         11    1    3    3    0    0 -0.15341891161E+02 -0.10456993851E+03  0.38665857673E+03  0.40084298749E+03  0.00000000000E+00 0.  1.
        -11    1    3    3    0    0 -0.73159153618E+02 -0.41962782540E+03  0.99503271889E+03  0.10823723413E+04  0.00000000000E+00 0. -1.
         22    1    1    2    0    0  0.88501044780E+02  0.52419776391E+03 -0.65069540578E+03  0.84025010664E+03  0.00000000000E+00 0.  1.
<mgrwt>
<rscale>  0 0.22054788E+04</rscale>
<asrwt>0</asrwt>
<pdfrwt beam="1">  1        2 0.12249766E+00 0.22054788E+04</pdfrwt>
<pdfrwt beam="2">  1       -2 0.23495856E+00 0.22054788E+04</pdfrwt>
<totfact> 0.25205495E+00</totfact>
</mgrwt>
</event>
<event>
 6    1  0.5196787E-004  0.1924660E+04  0.7818608E-02  0.8642678E-01
         -2   -1    0    0    0  501 -0.00000000000E+00  0.00000000000E+00  0.40895381392E+03  0.40895381392E+03  0.00000000000E+00 0. -1.
          2   -1    0    0  501    0  0.00000000000E+00 -0.00000000000E+00 -0.22645073403E+04  0.22645073403E+04  0.00000000000E+00 0.  1.
         23    2    1    2    0    0 -0.77013167114E+03  0.20436498914E+03 -0.18662046168E+03  0.82408141655E+03  0.97031668535E+02 0.  0.
         11    1    3    3    0    0 -0.25372321730E+03  0.43609462508E+02 -0.10075013464E+03  0.27645586600E+03  0.00000000000E+00 0.  1.
        -11    1    3    3    0    0 -0.51640845385E+03  0.16075552663E+03 -0.85870327034E+02  0.54762555055E+03  0.00000000000E+00 0. -1.
         22    1    1    2    0    0  0.77013167114E+03 -0.20436498914E+03 -0.16689330647E+04  0.18493797377E+04  0.00000000000E+00 0.  1.
<mgrwt>
<rscale>  0 0.19246599E+04</rscale>
<asrwt>0</asrwt>
<pdfrwt beam="1">  1        2 0.34838574E+00 0.19246599E+04</pdfrwt>
<pdfrwt beam="2">  1       -2 0.62915972E-01 0.19246599E+04</pdfrwt>
<totfact> 0.10393806E+01</totfact>
</mgrwt>
</event>
<event>
 6    1  0.5196787E-004  0.4477181E+04  0.7818608E-02  0.7914644E-01
         -2   -1    0    0    0  501 -0.00000000000E+00  0.00000000000E+00  0.21019706389E+04  0.21019706389E+04  0.00000000000E+00 0. -1.
          2   -1    0    0  501    0  0.00000000000E+00 -0.00000000000E+00 -0.23840904293E+04  0.23840904293E+04  0.00000000000E+00 0.  1.
         23    2    1    2    0    0  0.44426176316E+03  0.16533599881E+04 -0.15846170153E+04  0.23349063119E+04  0.99038556838E+02 0.  0.
         13    1    3    3    0    0  0.24907663339E+03  0.73932246574E+03 -0.73159262266E+03  0.10695160790E+04  0.00000000000E+00 0.  1.
        -13    1    3    3    0    0  0.19518512977E+03  0.91403752235E+03 -0.85302439268E+03  0.12653902329E+04  0.00000000000E+00 0. -1.
         22    1    1    2    0    0 -0.44426176316E+03 -0.16533599881E+04  0.13024972250E+04  0.21511547563E+04  0.00000000000E+00 0. -1.
<mgrwt>
<rscale>  0 0.44771813E+04</rscale>
<asrwt>0</asrwt>
<pdfrwt beam="1">  1        2 0.36678314E+00 0.44771813E+04</pdfrwt>
<pdfrwt beam="2">  1       -2 0.32338010E+00 0.44771813E+04</pdfrwt>
<totfact> 0.70323035E-02</totfact>
</mgrwt>
</event>
<event>
 6    1  0.5196787E-004  0.1971667E+04  0.7818608E-02  0.8619983E-01
          2   -1    0    0  501    0  0.00000000000E+00  0.00000000000E+00  0.10800612636E+04  0.10800612636E+04  0.00000000000E+00 0.  1.
         -2   -1    0    0    0  501 -0.00000000000E+00 -0.00000000000E+00 -0.89982679913E+03  0.89982679913E+03  0.00000000000E+00 0. -1.
         23    2    1    2    0    0  0.40249585404E+03 -0.88345483954E+03  0.24961368194E+03  0.10065901423E+04  0.91767959374E+02 0.  0.
         11    1    3    3    0    0  0.38553982828E+03 -0.87285058998E+03  0.25060801736E+03  0.98656651574E+03  0.00000000000E+00 0.  1.
        -11    1    3    3    0    0  0.16956025758E+02 -0.10604249563E+02 -0.99433541757E+00  0.20023626575E+02  0.00000000000E+00 0. -1.
         22    1    1    2    0    0 -0.40249585404E+03  0.88345483954E+03 -0.69379217494E+02  0.97329792039E+03  0.00000000000E+00 0. -1.
<mgrwt>
<rscale>  0 0.19716674E+04</rscale>
<asrwt>0</asrwt>
<pdfrwt beam="1">  1        2 0.16616327E+00 0.19716674E+04</pdfrwt>
<pdfrwt beam="2">  1       -2 0.13843489E+00 0.19716674E+04</pdfrwt>
<totfact> 0.77190792E+00</totfact>
</mgrwt>
</event>
<event>
 6    1  0.5196787E-004  0.4684818E+04  0.7818608E-02  0.7879056E-01
         -2   -1    0    0    0  501 -0.00000000000E+00  0.00000000000E+00  0.12514975654E+04  0.12514975654E+04  0.00000000000E+00 0. -1.
          2   -1    0    0  501    0  0.00000000000E+00 -0.00000000000E+00 -0.43842516193E+04  0.43842516193E+04  0.00000000000E+00 0.  1.
         23    2    1    2    0    0 -0.68805901379E+03  0.20591801328E+04 -0.26214294062E+04  0.34052557592E+04  0.10112679023E+03 0.  0.
         13    1    3    3    0    0 -0.13437275372E+03  0.30485480165E+03 -0.43287790333E+03  0.54623782936E+03  0.00000000000E+00 0.  1.
        -13    1    3    3    0    0 -0.55368626006E+03  0.17543253312E+04 -0.21885515029E+04  0.28590179298E+04  0.00000000000E+00 0. -1.
         22    1    1    2    0    0  0.68805901379E+03 -0.20591801328E+04 -0.51132464774E+03  0.22304934255E+04  0.00000000000E+00 0.  1.
<mgrwt>
<rscale>  0 0.46848181E+04</rscale>
<asrwt>0</asrwt>
<pdfrwt beam="1">  1        2 0.67450025E+00 0.46848181E+04</pdfrwt>
<pdfrwt beam="2">  1       -2 0.19253809E+00 0.46848181E+04</pdfrwt>
<totfact> 0.17528581E-02</totfact>
</mgrwt>
</event>
<event>
 6    1  0.5196787E-004  0.1431695E+04  0.7818608E-02  0.8931190E-01
          2   -1    0    0  501    0  0.00000000000E+00  0.00000000000E+00  0.15843812433E+04  0.15843812433E+04  0.00000000000E+00 0.  1.
         -2   -1    0    0    0  501 -0.00000000000E+00 -0.00000000000E+00 -0.32343090183E+03  0.32343090183E+03  0.00000000000E+00 0. -1.
         23    2    1    2    0    0 -0.23502905368E+03  0.32528112849E+03 -0.15282469030E+03  0.43818419594E+03  0.87198251003E+02 0.  0.
         13    1    3    3    0    0 -0.38010064628E+02  0.99611949532E+02 -0.69394657476E+02  0.12721212202E+03  0.00000000000E+00 0. -1.
        -13    1    3    3    0    0 -0.19701898906E+03  0.22566917896E+03 -0.83430032819E+02  0.31097207392E+03  0.00000000000E+00 0.  1.
         22    1    1    2    0    0  0.23502905368E+03 -0.32528112849E+03  0.14137750317E+04  0.14696279492E+04  0.00000000000E+00 0.  1.
<mgrwt>
<rscale>  0 0.14316953E+04</rscale>
<asrwt>0</asrwt>
<pdfrwt beam="1">  1        2 0.24375096E+00 0.14316953E+04</pdfrwt>
<pdfrwt beam="2">  1       -2 0.49758601E-01 0.14316953E+04</pdfrwt>
<totfact> 0.42222244E+01</totfact>
</mgrwt>
</event>
<event>
 6    1  0.5196787E-004  0.2121443E+04  0.7818608E-02  0.8551856E-01
          2   -1    0    0  501    0  0.00000000000E+00  0.00000000000E+00  0.23012025549E+04  0.23012025549E+04  0.00000000000E+00 0.  1.
         -2   -1    0    0    0  501 -0.00000000000E+00 -0.00000000000E+00 -0.48893118607E+03  0.48893118607E+03  0.00000000000E+00 0. -1.
         23    2    1    2    0    0 -0.77898592987E+03 -0.71604003042E+03  0.85862746700E+03  0.13657148786E+04  0.91671142590E+02 0.  0.
         13    1    3    3    0    0 -0.45299989486E+03 -0.47674858209E+03  0.52849143439E+03  0.84368318194E+03  0.00000000000E+00 0. -1.
        -13    1    3    3    0    0 -0.32598603501E+03 -0.23929144833E+03  0.33013603260E+03  0.52203169663E+03  0.00000000000E+00 0.  1.
         22    1    1    2    0    0  0.77898592987E+03  0.71604003042E+03  0.95364390188E+03  0.14244188624E+04  0.00000000000E+00 0.  1.
<mgrwt>
<rscale>  0 0.21214426E+04</rscale>
<asrwt>0</asrwt>
<pdfrwt beam="1">  1        2 0.35403116E+00 0.21214426E+04</pdfrwt>
<pdfrwt beam="2">  1       -2 0.75220184E-01 0.21214426E+04</pdfrwt>
<totfact> 0.66060951E+00</totfact>
</mgrwt>
</event>
<event>
 6    1  0.5196787E-004  0.2025116E+04  0.7818608E-02  0.8594967E-01
         -2   -1    0    0    0  501 -0.00000000000E+00  0.00000000000E+00  0.69179745174E+03  0.69179745174E+03  0.00000000000E+00 0. -1.
          2   -1    0    0  501    0  0.00000000000E+00 -0.00000000000E+00 -0.14820433501E+04  0.14820433501E+04  0.00000000000E+00 0.  1.
         23    2    1    2    0    0 -0.10100507153E+04  0.25636136432E+02 -0.41541434849E+03  0.10961774269E+04  0.90422404723E+02 0.  0.
         11    1    3    3    0    0 -0.45955483401E+03 -0.33223320534E+01 -0.23488239643E+03  0.51611183236E+03  0.00000000000E+00 0.  1.
        -11    1    3    3    0    0 -0.55049588130E+03  0.28958468485E+02 -0.18053195206E+03  0.58006559451E+03  0.00000000000E+00 0. -1.
         22    1    1    2    0    0  0.10100507153E+04 -0.25636136432E+02 -0.37483154991E+03  0.10776633750E+04  0.00000000000E+00 0.  1.
<mgrwt>
<rscale>  0 0.20251161E+04</rscale>
<asrwt>0</asrwt>
<pdfrwt beam="1">  1        2 0.22800667E+00 0.20251161E+04</pdfrwt>
<pdfrwt beam="2">  1       -2 0.10643038E+00 0.20251161E+04</pdfrwt>
<totfact> 0.85737963E+00</totfact>
</mgrwt>
</event>
<event>
 6    1  0.5196787E-004  0.2180519E+04  0.7818608E-02  0.8526581E-01
         -2   -1    0    0    0  501 -0.00000000000E+00  0.00000000000E+00  0.61883094258E+03  0.61883094258E+03  0.00000000000E+00 0. -1.
          2   -1    0    0  501    0  0.00000000000E+00 -0.00000000000E+00 -0.19208241752E+04  0.19208241752E+04  0.00000000000E+00 0.  1.
         23    2    1    2    0    0 -0.91403390329E+03 -0.49002165653E+03 -0.10370665815E+04  0.14692508340E+04  0.87245163625E+02 0.  0.
         13    1    3    3    0    0 -0.76444757940E+03 -0.43994613614E+03 -0.85573979803E+03  0.12289114314E+04  0.00000000000E+00 0.  1.
        -13    1    3    3    0    0 -0.14958632389E+03 -0.50075520398E+02 -0.18132678347E+03  0.24033940260E+03  0.00000000000E+00 0. -1.
         22    1    1    2    0    0  0.91403390329E+03  0.49002165653E+03 -0.26492665114E+03  0.10704042838E+04  0.00000000000E+00 0. -1.
<mgrwt>
<rscale>  0 0.21805187E+04</rscale>
<asrwt>0</asrwt>
<pdfrwt beam="1">  1        2 0.29551141E+00 0.21805187E+04</pdfrwt>
<pdfrwt beam="2">  1       -2 0.95204760E-01 0.21805187E+04</pdfrwt>
<totfact> 0.62768629E+00</totfact>
</mgrwt>
</event>
<event>
 6    1  0.5196787E-004  0.2103060E+04  0.7818608E-02  0.8559896E-01
          2   -1    0    0  501    0  0.00000000000E+00  0.00000000000E+00  0.27803658780E+04  0.27803658780E+04  0.00000000000E+00 0.  1.
         -2   -1    0    0    0  501 -0.00000000000E+00 -0.00000000000E+00 -0.39768716715E+03  0.39768716715E+03  0.00000000000E+00 0. -1.
         23    2    1    2    0    0 -0.35907375667E+03 -0.97561471135E+03  0.14108975123E+04  0.17549870855E+04  0.92681455871E+02 0.  0.
         11    1    3    3    0    0 -0.56049202105E+02 -0.26187337124E+03  0.38650689014E+03  0.47021989723E+03  0.00000000000E+00 0. -1.
        -11    1    3    3    0    0 -0.30302455456E+03 -0.71374134011E+03  0.10243906222E+04  0.12847671883E+04  0.00000000000E+00 0.  1.
         22    1    1    2    0    0  0.35907375667E+03  0.97561471135E+03  0.97178119853E+03  0.14230659597E+04  0.00000000000E+00 0.  1.
<mgrwt>
<rscale>  0 0.21030605E+04</rscale>
<asrwt>0</asrwt>
<pdfrwt beam="1">  1        2 0.42774858E+00 0.21030605E+04</pdfrwt>
<pdfrwt beam="2">  1       -2 0.61182643E-01 0.21030605E+04</pdfrwt>
<totfact> 0.54460386E+00</totfact>
</mgrwt>
</event>
<event>
 6    1  0.5196787E-004  0.1579253E+04  0.7818608E-02  0.8833396E-01
         -2   -1    0    0    0  501 -0.00000000000E+00  0.00000000000E+00  0.39396633639E+03  0.39396633639E+03  0.00000000000E+00 0. -1.
          2   -1    0    0  501    0  0.00000000000E+00 -0.00000000000E+00 -0.15826487686E+04  0.15826487686E+04  0.00000000000E+00 0.  1.
         23    2    1    2    0    0 -0.32872856866E+03  0.71168169490E+03 -0.68358503722E+03  0.10440505308E+04  0.90552200082E+02 0.  0.
         13    1    3    3    0    0 -0.17993859322E+03  0.41585042169E+03 -0.45164656886E+03  0.63976096608E+03  0.00000000000E+00 0. -1.
        -13    1    3    3    0    0 -0.14878997544E+03  0.29583127321E+03 -0.23193846836E+03  0.40428956468E+03  0.00000000000E+00 0.  1.
         22    1    1    2    0    0  0.32872856866E+03 -0.71168169490E+03 -0.50509739499E+03  0.93256457424E+03  0.00000000000E+00 0.  1.
<mgrwt>
<rscale>  0 0.15792534E+04</rscale>
<asrwt>0</asrwt>
<pdfrwt beam="1">  1        2 0.24348443E+00 0.15792534E+04</pdfrwt>
<pdfrwt beam="2">  1       -2 0.60610206E-01 0.15792534E+04</pdfrwt>
<totfact> 0.27762937E+01</totfact>
</mgrwt>
</event>
<event>
 6    1  0.5196787E-004  0.3283963E+04  0.7818608E-02  0.8166988E-01
          2   -1    0    0  501    0  0.00000000000E+00  0.00000000000E+00  0.27321335206E+04  0.27321335206E+04  0.00000000000E+00 0.  1.
         -2   -1    0    0    0  501 -0.00000000000E+00 -0.00000000000E+00 -0.98681245900E+03  0.98681245900E+03  0.00000000000E+00 0. -1.
         23    2    1    2    0    0 -0.40051721707E+03 -0.14401610890E+04  0.10737054155E+03  0.15014338805E+04  0.91089303127E+02 0.  0.
         13    1    3    3    0    0 -0.78212675331E+02 -0.41796502281E+03  0.49119559533E+02  0.42804756045E+03  0.00000000000E+00 0. -1.
        -13    1    3    3    0    0 -0.32230454174E+03 -0.10221960661E+04  0.58250982015E+02  0.10733863201E+04  0.00000000000E+00 0.  1.
         22    1    1    2    0    0  0.40051721707E+03  0.14401610890E+04  0.16379505200E+04  0.22175120990E+04  0.00000000000E+00 0.  1.
<mgrwt>
<rscale>  0 0.32839631E+04</rscale>
<asrwt>0</asrwt>
<pdfrwt beam="1">  1        2 0.42032823E+00 0.32839631E+04</pdfrwt>
<pdfrwt beam="2">  1       -2 0.15181730E+00 0.32839631E+04</pdfrwt>
<totfact> 0.61630184E-01</totfact>
</mgrwt>
</event>
<event>
 6    1  0.5196787E-004  0.1921055E+04  0.7818608E-02  0.8644446E-01
          2   -1    0    0  501    0  0.00000000000E+00  0.00000000000E+00  0.23115393981E+04  0.23115393981E+04  0.00000000000E+00 0.  1.
         -2   -1    0    0    0  501 -0.00000000000E+00 -0.00000000000E+00 -0.39913366547E+03  0.39913366547E+03  0.00000000000E+00 0. -1.
         23    2    1    2    0    0  0.61126345141E+03  0.52921082405E+03  0.23227283936E+03  0.84612120257E+03  0.90902773366E+02 0.  0.
         13    1    3    3    0    0  0.22566335127E+03  0.24828574925E+03  0.75095798722E+02  0.34381556156E+03  0.00000000000E+00 0. -1.
        -13    1    3    3    0    0  0.38560010015E+03  0.28092507480E+03  0.15717704064E+03  0.50230564101E+03  0.00000000000E+00 0.  1.
         22    1    1    2    0    0 -0.61126345141E+03 -0.52921082405E+03  0.16801328933E+04  0.18645518611E+04  0.00000000000E+00 0.  1.
<mgrwt>
<rscale>  0 0.19210551E+04</rscale>
<asrwt>0</asrwt>
<pdfrwt beam="1">  1        2 0.35562144E+00 0.19210551E+04</pdfrwt>
<pdfrwt beam="2">  1       -2 0.61405181E-01 0.19210551E+04</pdfrwt>
<totfact> 0.10298598E+01</totfact>
</mgrwt>
</event>
<event>
 6    1  0.5196787E-004  0.1312263E+04  0.7818608E-02  0.9019897E-01
         -2   -1    0    0    0  501 -0.00000000000E+00  0.00000000000E+00  0.43959705612E+03  0.43959705612E+03  0.00000000000E+00 0. -1.
          2   -1    0    0  501    0  0.00000000000E+00 -0.00000000000E+00 -0.97932499264E+03  0.97932499264E+03  0.00000000000E+00 0.  1.
         23    2    1    2    0    0  0.28125310653E+03 -0.50469215791E+03 -0.60019699443E+03  0.83799693211E+03  0.90470668813E+02 0.  0.
         13    1    3    3    0    0  0.16790686713E+03 -0.26196906878E+03 -0.26355634273E+03  0.40777745747E+03  0.00000000000E+00 0. -1.
        -13    1    3    3    0    0  0.11334623939E+03 -0.24272308913E+03 -0.33664065170E+03  0.43021947464E+03  0.00000000000E+00 0.  1.
         22    1    1    2    0    0 -0.28125310653E+03  0.50469215791E+03  0.60469057916E+02  0.58092511665E+03  0.00000000000E+00 0. -1.
<mgrwt>
<rscale>  0 0.13122628E+04</rscale>
<asrwt>0</asrwt>
<pdfrwt beam="1">  1        2 0.15066538E+00 0.13122628E+04</pdfrwt>
<pdfrwt beam="2">  1       -2 0.67630316E-01 0.13122628E+04</pdfrwt>
<totfact> 0.50986955E+01</totfact>
</mgrwt>
</event>
<event>
 6    1  0.5196787E-004  0.4511044E+04  0.7818608E-02  0.7908706E-01
          2   -1    0    0  501    0  0.00000000000E+00  0.00000000000E+00  0.29999222854E+04  0.29999222854E+04  0.00000000000E+00 0.  1.
         -2   -1    0    0    0  501 -0.00000000000E+00 -0.00000000000E+00 -0.16958373601E+04  0.16958373601E+04  0.00000000000E+00 0. -1.
         23    2    1    2    0    0  0.17594848018E+04 -0.12011071279E+04  0.14205610900E+04  0.25622152243E+04  0.92238521298E+02 0.  0.
         11    1    3    3    0    0  0.17379748288E+03 -0.15299390004E+03  0.14943029448E+03  0.27557596305E+03  0.00000000000E+00 0.  1.
        -11    1    3    3    0    0  0.15856873189E+04 -0.10481132278E+04  0.12711307955E+04  0.22866392612E+04  0.00000000000E+00 0. -1.
         22    1    1    2    0    0 -0.17594848018E+04  0.12011071279E+04 -0.11647616468E+03  0.21335444212E+04  0.00000000000E+00 0.  1.
<mgrwt>
<rscale>  0 0.45110444E+04</rscale>
<asrwt>0</asrwt>
<pdfrwt beam="1">  1        2 0.46152650E+00 0.45110444E+04</pdfrwt>
<pdfrwt beam="2">  1       -2 0.26089806E+00 0.45110444E+04</pdfrwt>
<totfact> 0.72585723E-02</totfact>
</mgrwt>
</event>
<event>
 6    1  0.5196787E-004  0.1875240E+04  0.7818608E-02  0.8667280E-01
          2   -1    0    0  501    0  0.00000000000E+00  0.00000000000E+00  0.37452214348E+04  0.37452214348E+04  0.00000000000E+00 0.  1.
         -2   -1    0    0    0  501 -0.00000000000E+00 -0.00000000000E+00 -0.23473411006E+03  0.23473411006E+03  0.00000000000E+00 0. -1.
         23    2    1    2    0    0  0.80445140684E+01 -0.57462526888E+03  0.19255423450E+03  0.61262145018E+03  0.89269222923E+02 0.  0.
         13    1    3    3    0    0  0.34551123911E+02 -0.12780607383E+03  0.63168098312E+02  0.14669144936E+03  0.00000000000E+00 0. -1.
        -13    1    3    3    0    0 -0.26506609843E+02 -0.44681919505E+03  0.12938613619E+03  0.46593000082E+03  0.00000000000E+00 0.  1.
         22    1    1    2    0    0 -0.80445140684E+01  0.57462526888E+03  0.33179330902E+04  0.33673340946E+04  0.00000000000E+00 0.  1.
<mgrwt>
<rscale>  0 0.18752400E+04</rscale>
<asrwt>0</asrwt>
<pdfrwt beam="1">  1        2 0.57618787E+00 0.18752400E+04</pdfrwt>
<pdfrwt beam="2">  1       -2 0.36112943E-01 0.18752400E+04</pdfrwt>
<totfact> 0.36926400E+00</totfact>
</mgrwt>
</event>
<event>
 6    1  0.5196787E-004  0.9605836E+03  0.7818608E-02  0.9352865E-01
         -2   -1    0    0    0  501 -0.00000000000E+00  0.00000000000E+00  0.47726209365E+03  0.47726209365E+03  0.00000000000E+00 0. -1.
          2   -1    0    0  501    0  0.00000000000E+00 -0.00000000000E+00 -0.48334072586E+03  0.48334072586E+03  0.00000000000E+00 0.  1.
         23    2    1    2    0    0  0.58747925663E+02 -0.25686968172E+03  0.39325813688E+03  0.48216451910E+03  0.91636832685E+02 0.  0.
         13    1    3    3    0    0  0.32224168856E+02 -0.14992326588E+03  0.14720774059E+03  0.21256881616E+03  0.00000000000E+00 0. -1.
        -13    1    3    3    0    0  0.26523756807E+02 -0.10694641584E+03  0.24605039628E+03  0.26959570295E+03  0.00000000000E+00 0.  1.
         22    1    1    2    0    0 -0.58747925663E+02  0.25686968172E+03 -0.39933676909E+03  0.47843830041E+03  0.00000000000E+00 0.  1.
<mgrwt>
<rscale>  0 0.96058359E+03</rscale>
<asrwt>0</asrwt>
<pdfrwt beam="1">  1        2 0.74360111E-01 0.96058359E+03</pdfrwt>
<pdfrwt beam="2">  1       -2 0.73424938E-01 0.96058359E+03</pdfrwt>
<totfact> 0.10732963E+02</totfact>
</mgrwt>
</event>
<event>
 6    1  0.5196787E-004  0.3020935E+04  0.7818608E-02  0.8237778E-01
          2   -1    0    0  501    0  0.00000000000E+00  0.00000000000E+00  0.32117727003E+04  0.32117727003E+04  0.00000000000E+00 0.  1.
         -2   -1    0    0    0  501 -0.00000000000E+00 -0.00000000000E+00 -0.71035900354E+03  0.71035900354E+03  0.00000000000E+00 0. -1.
         23    2    1    2    0    0 -0.14885238108E+02  0.53423224633E+03  0.30841885320E+04  0.31314028173E+04  0.88538352929E+02 0.  0.
         11    1    3    3    0    0  0.23338950392E+02  0.66970591973E+02  0.50431960654E+03  0.50928187906E+03  0.00000000000E+00 0. -1.
        -11    1    3    3    0    0 -0.38224188500E+02  0.46726165436E+03  0.25798689255E+04  0.26221209383E+04  0.00000000000E+00 0.  1.
         22    1    1    2    0    0  0.14885238108E+02 -0.53423224633E+03 -0.58277483527E+03  0.79072888651E+03  0.00000000000E+00 0. -1.
<mgrwt>
<rscale>  0 0.30209347E+04</rscale>
<asrwt>0</asrwt>
<pdfrwt beam="1">  1        2 0.49411887E+00 0.30209347E+04</pdfrwt>
<pdfrwt beam="2">  1       -2 0.10928600E+00 0.30209347E+04</pdfrwt>
<totfact> 0.72610228E-01</totfact>
</mgrwt>
</event>
<event>
 6    1  0.5196787E-004  0.2140431E+04  0.7818608E-02  0.8543639E-01
         -2   -1    0    0    0  501 -0.00000000000E+00  0.00000000000E+00  0.40420848453E+03  0.40420848453E+03  0.00000000000E+00 0. -1.
          2   -1    0    0  501    0  0.00000000000E+00 -0.00000000000E+00 -0.28335913852E+04  0.28335913852E+04  0.00000000000E+00 0.  1.
         23    2    1    2    0    0  0.81307001707E+03 -0.13652829877E+03 -0.22444964027E+04  0.23928703779E+04  0.91332987708E+02 0.  0.
         13    1    3    3    0    0  0.52390712543E+03 -0.69014148560E+02 -0.13194710136E+04  0.14213533637E+04  0.00000000000E+00 0. -1.
        -13    1    3    3    0    0  0.28916289164E+03 -0.67514150213E+02 -0.92502538916E+03  0.97151701425E+03  0.00000000000E+00 0.  1.
         22    1    1    2    0    0 -0.81307001707E+03  0.13652829877E+03 -0.18488649795E+03  0.84492949182E+03  0.00000000000E+00 0. -1.
<mgrwt>
<rscale>  0 0.21404314E+04</rscale>
<asrwt>0</asrwt>
<pdfrwt beam="1">  1        2 0.43593715E+00 0.21404314E+04</pdfrwt>
<pdfrwt beam="2">  1       -2 0.62185919E-01 0.21404314E+04</pdfrwt>
<totfact> 0.48690717E+00</totfact>
</mgrwt>
</event>
<event>
 6    1  0.5196787E-004  0.1314469E+04  0.7818608E-02  0.9018169E-01
         -4   -1    0    0    0  501 -0.00000000000E+00  0.00000000000E+00  0.41988634306E+03  0.41988634306E+03  0.00000000000E+00 0. -1.
          4   -1    0    0  501    0  0.00000000000E+00 -0.00000000000E+00 -0.10287482705E+04  0.10287482705E+04  0.00000000000E+00 0.  1.
         23    2    1    2    0    0 -0.46939470495E+03 -0.96785462301E+02  0.18542362279E+03  0.52095560116E+03  0.85521948887E+02 0.  0.
         13    1    3    3    0    0 -0.30075122035E+03 -0.53694409799E+02  0.16055468531E+03  0.34512634377E+03  0.00000000000E+00 0.  1.
        -13    1    3    3    0    0 -0.16864348460E+03 -0.43091052502E+02  0.24868937478E+02  0.17582925739E+03  0.00000000000E+00 0. -1.
         22    1    1    2    0    0  0.46939470495E+03  0.96785462301E+02 -0.79428555025E+03  0.92767901242E+03  0.00000000000E+00 0.  1.
<mgrwt>
<rscale>  0 0.13144692E+04</rscale>
<asrwt>0</asrwt>
<pdfrwt beam="1">  1        4 0.15826896E+00 0.13144692E+04</pdfrwt>
<pdfrwt beam="2">  1       -4 0.64597900E-01 0.13144692E+04</pdfrwt>
<totfact> 0.11259086E+00</totfact>
</mgrwt>
</event>
<event>
 6    1  0.5196787E-004  0.1459226E+04  0.7818608E-02  0.8912029E-01
         -2   -1    0    0    0  501 -0.00000000000E+00  0.00000000000E+00  0.53326774567E+03  0.53326774567E+03  0.00000000000E+00 0. -1.
          2   -1    0    0  501    0  0.00000000000E+00 -0.00000000000E+00 -0.99825178617E+03  0.99825178617E+03  0.00000000000E+00 0.  1.
         23    2    1    2    0    0 -0.41535143359E+03  0.16688182971E+03 -0.83428536620E+03  0.95121803465E+03  0.91745946621E+02 0.  0.
         11    1    3    3    0    0 -0.23658671205E+03  0.14333618263E+03 -0.50503865681E+03  0.57583207486E+03  0.00000000000E+00 0. -1.
        -11    1    3    3    0    0 -0.17876472154E+03  0.23545647088E+02 -0.32924670939E+03  0.37538595979E+03  0.00000000000E+00 0.  1.
         22    1    1    2    0    0  0.41535143359E+03 -0.16688182971E+03  0.36930132570E+03  0.58030149719E+03  0.00000000000E+00 0. -1.
<mgrwt>
<rscale>  0 0.14592265E+04</rscale>
<asrwt>0</asrwt>
<pdfrwt beam="1">  1        2 0.15357720E+00 0.14592265E+04</pdfrwt>
<pdfrwt beam="2">  1       -2 0.82041192E-01 0.14592265E+04</pdfrwt>
<totfact> 0.31968065E+01</totfact>
</mgrwt>
</event>
<event>
 6    1  0.5196787E-004  0.3071477E+04  0.7818608E-02  0.8223610E-01
         -2   -1    0    0    0  501 -0.00000000000E+00  0.00000000000E+00  0.10612564834E+04  0.10612564834E+04  0.00000000000E+00 0. -1.
          2   -1    0    0  501    0  0.00000000000E+00 -0.00000000000E+00 -0.22223585389E+04  0.22223585389E+04  0.00000000000E+00 0.  1.
         23    2    1    2    0    0  0.13910381928E+04  0.44081383278E+03 -0.73967730591E+02  0.14639543041E+04  0.91579967575E+02 0.  0.
         11    1    3    3    0    0  0.10226751861E+04  0.30327945263E+03 -0.18478544314E+02  0.10668572628E+04  0.00000000000E+00 0.  1.
        -11    1    3    3    0    0  0.36836300669E+03  0.13753438015E+03 -0.55489186277E+02  0.39709704130E+03  0.00000000000E+00 0. -1.
         22    1    1    2    0    0 -0.13910381928E+04 -0.44081383278E+03 -0.10871343249E+04  0.18196607182E+04  0.00000000000E+00 0.  1.
<mgrwt>
<rscale>  0 0.30714768E+04</rscale>
<asrwt>0</asrwt>
<pdfrwt beam="1">  1        2 0.34190131E+00 0.30714768E+04</pdfrwt>
<pdfrwt beam="2">  1       -2 0.16327023E+00 0.30714768E+04</pdfrwt>
<totfact> 0.10173550E+00</totfact>
</mgrwt>
</event>
<event>
 6    1  0.5196787E-004  0.3282030E+04  0.7818608E-02  0.8167483E-01
         -2   -1    0    0    0  501 -0.00000000000E+00  0.00000000000E+00  0.22329394645E+04  0.22329394645E+04  0.00000000000E+00 0. -1.
          2   -1    0    0  501    0  0.00000000000E+00 -0.00000000000E+00 -0.12060022049E+04  0.12060022049E+04  0.00000000000E+00 0.  1.
         23    2    1    2    0    0  0.11372992860E+04  0.10587518362E+04  0.10626506189E+04  0.18846956913E+04  0.91904267101E+02 0.  0.
         11    1    3    3    0    0  0.86869048687E+03  0.75675745693E+03  0.80270777240E+03  0.14041526906E+04  0.00000000000E+00 0. -1.
        -11    1    3    3    0    0  0.26860879909E+03  0.30199437923E+03  0.25994284654E+03  0.48054300068E+03  0.00000000000E+00 0.  1.
         22    1    1    2    0    0 -0.11372992860E+04 -0.10587518362E+04 -0.35713359344E+02  0.15542459781E+04  0.00000000000E+00 0.  1.
<mgrwt>
<rscale>  0 0.32820298E+04</rscale>
<asrwt>0</asrwt>
<pdfrwt beam="1">  1        2 0.18553880E+00 0.32820298E+04</pdfrwt>
<pdfrwt beam="2">  1       -2 0.34352915E+00 0.32820298E+04</pdfrwt>
<totfact> 0.26838446E-01</totfact>
</mgrwt>
</event>
<event>
 6    1  0.5196787E-004  0.1966175E+04  0.7818608E-02  0.8622600E-01
          2   -1    0    0  501    0  0.00000000000E+00  0.00000000000E+00  0.23350622517E+04  0.23350622517E+04  0.00000000000E+00 0.  1.
         -2   -1    0    0    0  501 -0.00000000000E+00 -0.00000000000E+00 -0.41389070984E+03  0.41389070984E+03  0.00000000000E+00 0. -1.
         23    2    1    2    0    0 -0.24343680281E+03  0.76484658779E+03  0.17396472483E+03  0.82619883235E+03  0.89938897445E+02 0.  0.
         13    1    3    3    0    0 -0.19481242754E+03  0.62916164695E+03  0.10699617432E+03  0.66726639451E+03  0.00000000000E+00 0.  1.
        -13    1    3    3    0    0 -0.48624375265E+02  0.13568494084E+03  0.66968550517E+02  0.15893243784E+03  0.00000000000E+00 0. -1.
         22    1    1    2    0    0  0.24343680281E+03 -0.76484658779E+03  0.17472068170E+04  0.19227541291E+04  0.00000000000E+00 0.  1.
<mgrwt>
<rscale>  0 0.19661745E+04</rscale>
<asrwt>0</asrwt>
<pdfrwt beam="1">  1        2 0.35924034E+00 0.19661745E+04</pdfrwt>
<pdfrwt beam="2">  1       -2 0.63675496E-01 0.19661745E+04</pdfrwt>
<totfact> 0.92074091E+00</totfact>
</mgrwt>
</event>
<event>
 6    1  0.5196787E-004  0.1066728E+04  0.7818608E-02  0.9238242E-01
         -2   -1    0    0    0  501 -0.00000000000E+00  0.00000000000E+00  0.13292715344E+03  0.13292715344E+03  0.00000000000E+00 0. -1.
          2   -1    0    0  501    0  0.00000000000E+00 -0.00000000000E+00 -0.21400979030E+04  0.21400979030E+04  0.00000000000E+00 0.  1.
         23    2    1    2    0    0  0.18954404722E+03 -0.65598486003E+02 -0.20551930088E+04  0.20667818878E+04  0.86827191740E+02 0.  0.
         11    1    3    3    0    0  0.51886707675E+02 -0.29740055183E+02 -0.10340846243E+04  0.10358125851E+04  0.00000000000E+00 0. -1.
        -11    1    3    3    0    0  0.13765733955E+03 -0.35858430820E+02 -0.10211083846E+04  0.10309693027E+04  0.00000000000E+00 0.  1.
         22    1    1    2    0    0 -0.18954404722E+03  0.65598486003E+02  0.48022259261E+02  0.20624316858E+03  0.00000000000E+00 0. -1.
<mgrwt>
<rscale>  0 0.10667279E+04</rscale>
<asrwt>0</asrwt>
<pdfrwt beam="1">  1        2 0.32924584E+00 0.10667279E+04</pdfrwt>
<pdfrwt beam="2">  1       -2 0.20450331E-01 0.10667279E+04</pdfrwt>
<totfact> 0.11456451E+02</totfact>
</mgrwt>
</event>
<event>
 6    1  0.5196787E-004  0.2876070E+04  0.7818608E-02  0.8280033E-01
         -2   -1    0    0    0  501 -0.00000000000E+00  0.00000000000E+00  0.10169500420E+04  0.10169500420E+04  0.00000000000E+00 0. -1.
          2   -1    0    0  501    0  0.00000000000E+00 -0.00000000000E+00 -0.20334765913E+04  0.20334765913E+04  0.00000000000E+00 0.  1.
         23    2    1    2    0    0  0.25881040195E+03  0.68000542888E+03 -0.18225792972E+04  0.19645577462E+04  0.91113315538E+02 0.  0.
         11    1    3    3    0    0  0.85629809212E+02  0.25521718688E+03 -0.79178616056E+03  0.83629755516E+03  0.00000000000E+00 0. -1.
        -11    1    3    3    0    0  0.17318059274E+03  0.42478824200E+03 -0.10307931366E+04  0.11282601911E+04  0.00000000000E+00 0.  1.
         22    1    1    2    0    0 -0.25881040195E+03 -0.68000542888E+03  0.80605274791E+03  0.10858688871E+04  0.00000000000E+00 0. -1.
<mgrwt>
<rscale>  0 0.28760696E+04</rscale>
<asrwt>0</asrwt>
<pdfrwt beam="1">  1        2 0.31284255E+00 0.28760696E+04</pdfrwt>
<pdfrwt beam="2">  1       -2 0.15645385E+00 0.28760696E+04</pdfrwt>
<totfact> 0.14817355E+00</totfact>
</mgrwt>
</event>
<event>
 6    1  0.5196787E-004  0.5166895E+04  0.7818608E-02  0.7803265E-01
         -1   -1    0    0    0  501 -0.00000000000E+00  0.00000000000E+00  0.38242835624E+04  0.38242835624E+04  0.00000000000E+00 0. -1.
          1   -1    0    0  501    0  0.00000000000E+00 -0.00000000000E+00 -0.17452161527E+04  0.17452161527E+04  0.00000000000E+00 0.  1.
         23    2    1    2    0    0 -0.81316617916E+03  0.83443478589E+03 -0.14445306778E+04  0.18582648628E+04  0.94650801694E+02 0.  0.
         11    1    3    3    0    0 -0.54293519797E+02  0.61490671634E+02 -0.67354506492E+02  0.10613914704E+03  0.00000000000E+00 0.  1.
        -11    1    3    3    0    0 -0.75887265936E+03  0.77294411426E+03 -0.13771761713E+04  0.17521257157E+04  0.00000000000E+00 0. -1.
         22    1    1    2    0    0  0.81316617916E+03 -0.83443478589E+03  0.35235980875E+04  0.37112348523E+04  0.00000000000E+00 0. -1.
<mgrwt>
<rscale>  0 0.51668952E+04</rscale>
<asrwt>0</asrwt>
<pdfrwt beam="1">  1        1 0.26849479E+00 0.51668952E+04</pdfrwt>
<pdfrwt beam="2">  1       -1 0.58835132E+00 0.51668952E+04</pdfrwt>
<totfact> 0.15766640E-03</totfact>
</mgrwt>
</event>
<event>
 6    1  0.5196787E-004  0.7227382E+03  0.7818608E-02  0.9679118E-01
          2   -1    0    0  501    0  0.00000000000E+00  0.00000000000E+00  0.16330640740E+04  0.16330640740E+04  0.00000000000E+00 0.  1.
         -2   -1    0    0    0  501 -0.00000000000E+00 -0.00000000000E+00 -0.79964783565E+02  0.79964783565E+02  0.00000000000E+00 0. -1.
         23    2    1    2    0    0 -0.26311936885E+03 -0.75210405453E+02  0.25044945478E+03  0.38194471233E+03  0.90930888746E+02 0.  0.
         13    1    3    3    0    0 -0.22355249069E+03 -0.46503212034E+02  0.24130218378E+03  0.33221229465E+03  0.00000000000E+00 0. -1.
        -13    1    3    3    0    0 -0.39566878164E+02 -0.28707193420E+02  0.91472709988E+01  0.49732417681E+02  0.00000000000E+00 0.  1.
         22    1    1    2    0    0  0.26311936885E+03  0.75210405453E+02  0.13026498357E+04  0.13310841453E+04  0.00000000000E+00 0.  1.
<mgrwt>
<rscale>  0 0.72273817E+03</rscale>
<asrwt>0</asrwt>
<pdfrwt beam="1">  1        2 0.25124060E+00 0.72273817E+03</pdfrwt>
<pdfrwt beam="2">  1       -2 0.12302276E-01 0.72273817E+03</pdfrwt>
<totfact> 0.53061023E+02</totfact>
</mgrwt>
</event>
<event>
 6    1  0.5196787E-004  0.1158389E+04  0.7818608E-02  0.9150079E-01
          1   -1    0    0  501    0  0.00000000000E+00  0.00000000000E+00  0.26858613581E+04  0.26858613581E+04  0.00000000000E+00 0. -1.
         -1   -1    0    0    0  501 -0.00000000000E+00 -0.00000000000E+00 -0.12490075787E+03  0.12490075787E+03  0.00000000000E+00 0.  1.
         23    2    1    2    0    0  0.45860859823E+03  0.10792403225E+03  0.20903309457E+04  0.21448329044E+04  0.94102508590E+02 0.  0.
         13    1    3    3    0    0  0.18044093096E+03  0.65168501302E+02  0.67197094778E+03  0.69882101985E+03  0.00000000000E+00 0. -1.
        -13    1    3    3    0    0  0.27816766726E+03  0.42755530947E+02  0.14183599979E+04  0.14460118845E+04  0.00000000000E+00 0.  1.
         22    1    1    2    0    0 -0.45860859823E+03 -0.10792403225E+03  0.47062965454E+03  0.66592921158E+03  0.00000000000E+00 0.  1.
<mgrwt>
<rscale>  0 0.11583887E+04</rscale>
<asrwt>0</asrwt>
<pdfrwt beam="1">  1        1 0.41320940E+00 0.11583887E+04</pdfrwt>
<pdfrwt beam="2">  1       -1 0.19215503E-01 0.11583887E+04</pdfrwt>
<totfact> 0.22014583E+01</totfact>
</mgrwt>
</event>
<event>
 6    1  0.5196787E-004  0.4017580E+04  0.7818608E-02  0.8001010E-01
          2   -1    0    0  501    0  0.00000000000E+00  0.00000000000E+00  0.28584916383E+04  0.28584916383E+04  0.00000000000E+00 0.  1.
         -2   -1    0    0    0  501 -0.00000000000E+00 -0.00000000000E+00 -0.14116663492E+04  0.14116663492E+04  0.00000000000E+00 0. -1.
         23    2    1    2    0    0  0.80332218290E+03  0.18236478390E+04  0.98323412885E+03  0.22242022856E+04  0.96480490511E+02 0.  0.
         13    1    3    3    0    0  0.59866925637E+03  0.12651723932E+04  0.66458276699E+03  0.15494309656E+04  0.00000000000E+00 0. -1.
        -13    1    3    3    0    0  0.20465292653E+03  0.55847544577E+03  0.31865136186E+03  0.67477131999E+03  0.00000000000E+00 0.  1.
         22    1    1    2    0    0 -0.80332218290E+03 -0.18236478390E+04  0.46359116025E+03  0.20459557019E+04  0.00000000000E+00 0.  1.
<mgrwt>
<rscale>  0 0.40175796E+04</rscale>
<asrwt>0</asrwt>
<pdfrwt beam="1">  1        2 0.43976794E+00 0.40175796E+04</pdfrwt>
<pdfrwt beam="2">  1       -2 0.21717944E+00 0.40175796E+04</pdfrwt>
<totfact> 0.17280024E-01</totfact>
</mgrwt>
</event>
<event>
 6    1  0.5196787E-004  0.3492828E+04  0.7818608E-02  0.8115492E-01
         -2   -1    0    0    0  501 -0.00000000000E+00  0.00000000000E+00  0.29407538985E+04  0.29407538985E+04  0.00000000000E+00 0.  1.
          2   -1    0    0  501    0  0.00000000000E+00 -0.00000000000E+00 -0.10371359411E+04  0.10371359411E+04  0.00000000000E+00 0. -1.
         23    2    1    2    0    0 -0.50012461572E+03 -0.16200570242E+04  0.14235377149E+04  0.22157359211E+04  0.91195688024E+02 0.  0.
         11    1    3    3    0    0 -0.43879964619E+03 -0.15037398910E+04  0.13129320266E+04  0.20439102954E+04  0.00000000000E+00 0. -1.
        -11    1    3    3    0    0 -0.61324969527E+02 -0.11631713326E+03  0.11060568825E+03  0.17182562571E+03  0.00000000000E+00 0.  1.
         22    1    1    2    0    0  0.50012461572E+03  0.16200570242E+04  0.48008024251E+03  0.17621539184E+04  0.00000000000E+00 0. -1.
<mgrwt>
<rscale>  0 0.34928278E+04</rscale>
<asrwt>0</asrwt>
<pdfrwt beam="1">  1        2 0.15955938E+00 0.34928278E+04</pdfrwt>
<pdfrwt beam="2">  1       -2 0.45242367E+00 0.34928278E+04</pdfrwt>
<totfact> 0.65524739E-02</totfact>
</mgrwt>
</event>
<event>
 6    1  0.5196787E-004  0.5585956E+03  0.7818608E-02  0.9995237E-01
         -1   -1    0    0    0  501 -0.00000000000E+00  0.00000000000E+00  0.19724662748E+03  0.19724662748E+03  0.00000000000E+00 0. -1.
          1   -1    0    0  501    0  0.00000000000E+00 -0.00000000000E+00 -0.39548090273E+03  0.39548090273E+03  0.00000000000E+00 0.  1.
         23    2    1    2    0    0  0.12223046998E+02 -0.25700928320E+03 -0.19523629111E+03  0.33541028936E+03  0.90441574027E+02 0.  0.
         11    1    3    3    0    0 -0.19821232905E+02 -0.14597935784E+03 -0.15293798396E+03  0.21235084442E+03  0.00000000000E+00 0.  1.
        -11    1    3    3    0    0  0.32044279903E+02 -0.11102992536E+03 -0.42298307146E+02  0.12305944494E+03  0.00000000000E+00 0. -1.
         22    1    1    2    0    0 -0.12223046998E+02  0.25700928320E+03 -0.29979841365E+01  0.25731724085E+03  0.00000000000E+00 0. -1.
<mgrwt>
<rscale>  0 0.55859565E+03</rscale>
<asrwt>0</asrwt>
<pdfrwt beam="1">  1        1 0.60843215E-01 0.55859565E+03</pdfrwt>
<pdfrwt beam="2">  1       -1 0.30345635E-01 0.55859565E+03</pdfrwt>
<totfact> 0.61456804E+02</totfact>
</mgrwt>
</event>
<event>
 6    1  0.5196787E-004  0.4742987E+04  0.7818608E-02  0.7869425E-01
          2   -1    0    0  501    0  0.00000000000E+00  0.00000000000E+00  0.19580888721E+04  0.19580888721E+04  0.00000000000E+00 0.  1.
         -2   -1    0    0    0  501 -0.00000000000E+00 -0.00000000000E+00 -0.28721786903E+04  0.28721786903E+04  0.00000000000E+00 0. -1.
         23    2    1    2    0    0  0.40568831883E+03  0.10163124475E+04 -0.25988689909E+04  0.28212989554E+04  0.90187365112E+02 0.  0.
         13    1    3    3    0    0  0.28901689369E+03  0.61290931421E+03 -0.15658683280E+04  0.17062040361E+04  0.00000000000E+00 0. -1.
        -13    1    3    3    0    0  0.11667142514E+03  0.40340313333E+03 -0.10330006630E+04  0.11150949193E+04  0.00000000000E+00 0.  1.
         22    1    1    2    0    0 -0.40568831883E+03 -0.10163124475E+04  0.16847791727E+04  0.20089686070E+04  0.00000000000E+00 0.  1.
<mgrwt>
<rscale>  0 0.47429869E+04</rscale>
<asrwt>0</asrwt>
<pdfrwt beam="1">  1        2 0.30124444E+00 0.47429869E+04</pdfrwt>
<pdfrwt beam="2">  1       -2 0.44187364E+00 0.47429869E+04</pdfrwt>
<totfact> 0.20610903E-02</totfact>
</mgrwt>
</event>
<event>
 6    1  0.5196787E-004  0.9840303E+03  0.7818608E-02  0.9326236E-01
         -2   -1    0    0    0  501 -0.00000000000E+00  0.00000000000E+00  0.11500422907E+03  0.11500422907E+03  0.00000000000E+00 0. -1.
          2   -1    0    0  501    0  0.00000000000E+00 -0.00000000000E+00 -0.21049564162E+04  0.21049564162E+04  0.00000000000E+00 0.  1.
         23    2    1    2    0    0  0.28634545436E+02 -0.48687745407E+03 -0.10304140798E+04  0.11435857237E+04  0.90363372077E+02 0.  0.
         11    1    3    3    0    0 -0.24261360656E+02 -0.28541178431E+03 -0.63677194225E+03  0.69823134180E+03  0.00000000000E+00 0. -1.
        -11    1    3    3    0    0  0.52895906092E+02 -0.20146566976E+03 -0.39364213758E+03  0.44535438187E+03  0.00000000000E+00 0.  1.
         22    1    1    2    0    0 -0.28634545436E+02  0.48687745407E+03 -0.95953810727E+03  0.10763749216E+04  0.00000000000E+00 0.  1.
<mgrwt>
<rscale>  0 0.98403026E+03</rscale>
<asrwt>0</asrwt>
<pdfrwt beam="1">  1        2 0.32383941E+00 0.98403026E+03</pdfrwt>
<pdfrwt beam="2">  1       -2 0.17692960E-01 0.98403026E+03</pdfrwt>
<totfact> 0.15528757E+02</totfact>
</mgrwt>
</event>
<event>
 6    1  0.5196787E-004  0.1229836E+04  0.7818608E-02  0.9087134E-01
         -2   -1    0    0    0  501 -0.00000000000E+00  0.00000000000E+00  0.37918799841E+03  0.37918799841E+03  0.00000000000E+00 0. -1.
          2   -1    0    0  501    0  0.00000000000E+00 -0.00000000000E+00 -0.99719510881E+03  0.99719510881E+03  0.00000000000E+00 0.  1.
         23    2    1    2    0    0 -0.21800870020E+03  0.40701525374E+03 -0.75850088331E+03  0.89375725797E+03  0.10143587166E+03 0.  0.
         11    1    3    3    0    0 -0.93734850697E+02  0.19682150754E+03 -0.45245325036E+03  0.50223388160E+03  0.00000000000E+00 0.  1.
        -11    1    3    3    0    0 -0.12427384950E+03  0.21019374621E+03 -0.30604763294E+03  0.39152337637E+03  0.00000000000E+00 0. -1.
         22    1    1    2    0    0  0.21800870020E+03 -0.40701525374E+03  0.14049377291E+03  0.48262584925E+03  0.00000000000E+00 0. -1.
<mgrwt>
<rscale>  0 0.12298364E+04</rscale>
<asrwt>0</asrwt>
<pdfrwt beam="1">  1        2 0.15341463E+00 0.12298364E+04</pdfrwt>
<pdfrwt beam="2">  1       -2 0.58336616E-01 0.12298364E+04</pdfrwt>
<totfact> 0.68465233E+01</totfact>
</mgrwt>
</event>
<event>
 6    1  0.5196787E-004  0.1452719E+04  0.7818608E-02  0.8916517E-01
          2   -1    0    0  501    0  0.00000000000E+00  0.00000000000E+00  0.84364596714E+03  0.84364596714E+03  0.00000000000E+00 0.  1.
         -2   -1    0    0    0  501 -0.00000000000E+00 -0.00000000000E+00 -0.62537898950E+03  0.62537898950E+03  0.00000000000E+00 0. -1.
         23    2    1    2    0    0  0.36925119267E+03  0.52513560224E+03 -0.22800672558E+03  0.68718477974E+03  0.90122197941E+02 0.  0.
         11    1    3    3    0    0  0.33246417225E+03  0.41271721470E+03 -0.18575063555E+03  0.56157922304E+03  0.00000000000E+00 0.  1.
        -11    1    3    3    0    0  0.36787020415E+02  0.11241838754E+03 -0.42256090029E+02  0.12560555670E+03  0.00000000000E+00 0. -1.
         22    1    1    2    0    0 -0.36925119267E+03 -0.52513560224E+03  0.44627370322E+03  0.78184017690E+03  0.00000000000E+00 0.  1.
<mgrwt>
<rscale>  0 0.14527195E+04</rscale>
<asrwt>0</asrwt>
<pdfrwt beam="1">  1        2 0.12979169E+00 0.14527195E+04</pdfrwt>
<pdfrwt beam="2">  1       -2 0.96212152E-01 0.14527195E+04</pdfrwt>
<totfact> 0.28135594E+01</totfact>
</mgrwt>
</event>
<event>
 6    1  0.5196787E-004  0.4045453E+04  0.7818608E-02  0.7995440E-01
          2   -1    0    0  501    0  0.00000000000E+00  0.00000000000E+00  0.29609631343E+04  0.29609631343E+04  0.00000000000E+00 0.  1.
         -2   -1    0    0    0  501 -0.00000000000E+00 -0.00000000000E+00 -0.13817874778E+04  0.13817874778E+04  0.00000000000E+00 0. -1.
         23    2    1    2    0    0  0.10918079412E+04  0.32906904783E+02  0.26160328162E+04  0.28366960930E+04  0.10044692070E+03 0.  0.
         11    1    3    3    0    0  0.17397632980E+03 -0.18969671008E+01  0.51738653862E+03  0.54585730018E+03  0.00000000000E+00 0. -1.
        -11    1    3    3    0    0  0.91783161142E+03  0.34803871884E+02  0.20986462775E+04  0.22908387928E+04  0.00000000000E+00 0.  1.
         22    1    1    2    0    0 -0.10918079412E+04 -0.32906904783E+02 -0.10368571597E+04  0.15060545191E+04  0.00000000000E+00 0. -1.
<mgrwt>
<rscale>  0 0.40454526E+04</rscale>
<asrwt>0</asrwt>
<pdfrwt beam="1">  1        2 0.45553279E+00 0.40454526E+04</pdfrwt>
<pdfrwt beam="2">  1       -2 0.21258269E+00 0.40454526E+04</pdfrwt>
<totfact> 0.15946225E-01</totfact>
</mgrwt>
</event>
<event>
 6    1  0.5196787E-004  0.1153676E+04  0.7818608E-02  0.9154399E-01
          2   -1    0    0  501    0  0.00000000000E+00  0.00000000000E+00  0.15465196583E+04  0.15465196583E+04  0.00000000000E+00 0.  1.
         -2   -1    0    0    0  501 -0.00000000000E+00 -0.00000000000E+00 -0.21515559071E+03  0.21515559071E+03  0.00000000000E+00 0. -1.
         23    2    1    2    0    0  0.48272381403E+03 -0.28792821637E+03  0.84247010619E+03  0.10167307921E+04  0.89781319625E+02 0.  0.
         11    1    3    3    0    0  0.16701363668E+03 -0.58462663108E+02  0.30292917181E+03  0.35082405982E+03  0.00000000000E+00 0.  1.
        -11    1    3    3    0    0  0.31571017735E+03 -0.22946555326E+03  0.53954093438E+03  0.66590673227E+03  0.00000000000E+00 0. -1.
         22    1    1    2    0    0 -0.48272381403E+03  0.28792821637E+03  0.48889396141E+03  0.74494445694E+03  0.00000000000E+00 0. -1.
<mgrwt>
<rscale>  0 0.11536765E+04</rscale>
<asrwt>0</asrwt>
<pdfrwt beam="1">  1        2 0.23792609E+00 0.11536765E+04</pdfrwt>
<pdfrwt beam="2">  1       -2 0.33100861E-01 0.11536765E+04</pdfrwt>
<totfact> 0.10070818E+02</totfact>
</mgrwt>
</event>
<event>
 6    1  0.5196787E-004  0.2112964E+04  0.7818608E-02  0.8555554E-01
          2   -1    0    0  501    0  0.00000000000E+00  0.00000000000E+00  0.20641967696E+04  0.20641967696E+04  0.00000000000E+00 0.  1.
         -2   -1    0    0    0  501 -0.00000000000E+00 -0.00000000000E+00 -0.54072106154E+03  0.54072106154E+03  0.00000000000E+00 0. -1.
         23    2    1    2    0    0 -0.45054330101E+03 -0.81499113736E+03  0.13732106059E+04  0.16616366318E+04  0.90161566289E+02 0.  0.
         13    1    3    3    0    0 -0.12972523047E+02 -0.68948610988E+02  0.11851391027E+03  0.13772343388E+03  0.00000000000E+00 0.  1.
        -13    1    3    3    0    0 -0.43757077796E+03 -0.74604252637E+03  0.12546966956E+04  0.15239131980E+04  0.00000000000E+00 0. -1.
         22    1    1    2    0    0  0.45054330101E+03  0.81499113736E+03  0.15026510217E+03  0.94328119932E+03  0.00000000000E+00 0. -1.
<mgrwt>
<rscale>  0 0.21129644E+04</rscale>
<asrwt>0</asrwt>
<pdfrwt beam="1">  1        2 0.31756873E+00 0.21129644E+04</pdfrwt>
<pdfrwt beam="2">  1       -2 0.83187857E-01 0.21129644E+04</pdfrwt>
<totfact> 0.71668606E+00</totfact>
</mgrwt>
</event>
<event>
 6    1  0.5196787E-004  0.8843874E+03  0.7818608E-02  0.9445311E-01
         -2   -1    0    0    0  501 -0.00000000000E+00  0.00000000000E+00  0.23278549727E+03  0.23278549727E+03  0.00000000000E+00 0. -1.
          2   -1    0    0  501    0  0.00000000000E+00 -0.00000000000E+00 -0.83998042629E+03  0.83998042629E+03  0.00000000000E+00 0.  1.
         23    2    1    2    0    0 -0.91861315674E+02 -0.32946409117E+03 -0.63771778360E+03  0.72937586351E+03  0.91214527712E+02 0.  0.
         13    1    3    3    0    0 -0.23740833458E+02 -0.22094217652E+03 -0.35244492940E+03  0.41664913392E+03  0.00000000000E+00 0. -1.
        -13    1    3    3    0    0 -0.68120482216E+02 -0.10852191466E+03 -0.28527285420E+03  0.31272672959E+03  0.00000000000E+00 0.  1.
         22    1    1    2    0    0  0.91861315674E+02  0.32946409117E+03  0.30522854573E+02  0.34339006005E+03  0.00000000000E+00 0. -1.
<mgrwt>
<rscale>  0 0.88438738E+03</rscale>
<asrwt>0</asrwt>
<pdfrwt beam="1">  1        2 0.12922776E+00 0.88438738E+03</pdfrwt>
<pdfrwt beam="2">  1       -2 0.35813154E-01 0.88438738E+03</pdfrwt>
<totfact> 0.23701304E+02</totfact>
</mgrwt>
</event>
<event>
 6    1  0.7504646E-004  0.2902771E+04  0.7818608E-02  0.8272053E-01
         -2   -1    0    0    0  501 -0.00000000000E+00  0.00000000000E+00  0.75554560800E+03  0.75554560800E+03  0.00000000000E+00 0.  1.
          2   -1    0    0  501    0  0.00000000000E+00 -0.00000000000E+00 -0.27880777595E+04  0.27880777595E+04  0.00000000000E+00 0. -1.
         23    2    1    2    0    0  0.11743681565E+04  0.68779703327E+03 -0.16274966978E+04  0.21236730005E+04  0.95058853540E+02 0.  0.
         11    1    3    3    0    0  0.33983752606E+03  0.23816508088E+03 -0.53944431219E+03  0.68059702895E+03  0.00000000000E+00 0.  1.
        -11    1    3    3    0    0  0.83453063047E+03  0.44963195239E+03 -0.10880523856E+04  0.14430759715E+04  0.00000000000E+00 0. -1.
         22    1    1    2    0    0 -0.11743681565E+04 -0.68779703327E+03 -0.40503545371E+03  0.14199503670E+04  0.00000000000E+00 0. -1.
<mgrwt>
<rscale>  0 0.29027710E+04</rscale>
<asrwt>0</asrwt>
<pdfrwt beam="1">  1        2 0.42893504E+00 0.29027710E+04</pdfrwt>
<pdfrwt beam="2">  1       -2 0.11623779E+00 0.29027710E+04</pdfrwt>
<totfact> 0.11648321E+00</totfact>
</mgrwt>
</event>
<event>
 6    1  0.5196787E-004  0.2792269E+04  0.7818608E-02  0.8305673E-01
          2   -1    0    0  501    0  0.00000000000E+00  0.00000000000E+00  0.15422050836E+04  0.15422050836E+04  0.00000000000E+00 0.  1.
         -2   -1    0    0    0  501 -0.00000000000E+00 -0.00000000000E+00 -0.12638987521E+04  0.12638987521E+04  0.00000000000E+00 0. -1.
         23    2    1    2    0    0 -0.95131088025E+03 -0.33718395340E+03  0.11066014709E+04  0.15004399252E+04  0.89820624302E+02 0.  0.
         13    1    3    3    0    0 -0.59239309903E+03 -0.24365935000E+03  0.74382442992E+03  0.98161817687E+03  0.00000000000E+00 0. -1.
        -13    1    3    3    0    0 -0.35891778122E+03 -0.93524603400E+02  0.36277704093E+03  0.51882174833E+03  0.00000000000E+00 0.  1.
         22    1    1    2    0    0  0.95131088025E+03  0.33718395340E+03 -0.82829513935E+03  0.13056639105E+04  0.00000000000E+00 0. -1.
<mgrwt>
<rscale>  0 0.27922687E+04</rscale>
<asrwt>0</asrwt>
<pdfrwt beam="1">  1        2 0.23726232E+00 0.27922687E+04</pdfrwt>
<pdfrwt beam="2">  1       -2 0.19444596E+00 0.27922687E+04</pdfrwt>
<totfact> 0.15146387E+00</totfact>
</mgrwt>
</event>
<event>
 6    1  0.5196787E-004  0.2395340E+04  0.7818608E-02  0.8441250E-01
          2   -1    0    0  501    0  0.00000000000E+00  0.00000000000E+00  0.22811564808E+04  0.22811564808E+04  0.00000000000E+00 0.  1.
         -2   -1    0    0    0  501 -0.00000000000E+00 -0.00000000000E+00 -0.62880964303E+03  0.62880964303E+03  0.00000000000E+00 0. -1.
         23    2    1    2    0    0 -0.37525902901E+03 -0.55201406880E+03  0.20328895677E+04  0.21416226848E+04  0.91481465041E+02 0.  0.
         11    1    3    3    0    0 -0.29308935206E+03 -0.47119094748E+03  0.17595591775E+04  0.18449853052E+04  0.00000000000E+00 0.  1.
        -11    1    3    3    0    0 -0.82169676951E+02 -0.80823121321E+02  0.27333039016E+03  0.29663737953E+03  0.00000000000E+00 0. -1.
         22    1    1    2    0    0  0.37525902901E+03  0.55201406880E+03 -0.38054272994E+03  0.76834343904E+03  0.00000000000E+00 0. -1.
<mgrwt>
<rscale>  0 0.23953398E+04</rscale>
<asrwt>0</asrwt>
<pdfrwt beam="1">  1        2 0.35094715E+00 0.23953398E+04</pdfrwt>
<pdfrwt beam="2">  1       -2 0.96739946E-01 0.23953398E+04</pdfrwt>
<totfact> 0.37329286E+00</totfact>
</mgrwt>
</event>
<event>
 6    1  0.5196787E-004  0.2656738E+04  0.7818608E-02  0.8349180E-01
         -2   -1    0    0    0  501 -0.00000000000E+00  0.00000000000E+00  0.85943280782E+03  0.85943280782E+03  0.00000000000E+00 0. -1.
          2   -1    0    0  501    0  0.00000000000E+00 -0.00000000000E+00 -0.20531721897E+04  0.20531721897E+04  0.00000000000E+00 0.  1.
         23    2    1    2    0    0 -0.11881546337E+04  0.54550314615E+02  0.46933515175E+02  0.11938972248E+04  0.92199013996E+02 0.  0.
         13    1    3    3    0    0 -0.91062020054E+03  0.62332994492E+01  0.52235520193E+02  0.91213845069E+03  0.00000000000E+00 0. -1.
        -13    1    3    3    0    0 -0.27753443317E+03  0.48317015166E+02 -0.53020050173E+01  0.28175877414E+03  0.00000000000E+00 0.  1.
         22    1    1    2    0    0  0.11881546337E+04 -0.54550314615E+02 -0.12406728970E+04  0.17187077727E+04  0.00000000000E+00 0. -1.
<mgrwt>
<rscale>  0 0.26567375E+04</rscale>
<asrwt>0</asrwt>
<pdfrwt beam="1">  1        2 0.31587264E+00 0.26567375E+04</pdfrwt>
<pdfrwt beam="2">  1       -2 0.13222043E+00 0.26567375E+04</pdfrwt>
<totfact> 0.22857918E+00</totfact>
</mgrwt>
</event>
<event>
 6    1  0.5196787E-004  0.2401881E+04  0.7818608E-02  0.8438800E-01
          2   -1    0    0  501    0  0.00000000000E+00  0.00000000000E+00  0.40862154621E+04  0.40862154621E+04  0.00000000000E+00 0.  1.
         -2   -1    0    0    0  501 -0.00000000000E+00 -0.00000000000E+00 -0.35295684415E+03  0.35295684415E+03  0.00000000000E+00 0. -1.
         23    2    1    2    0    0  0.22550785998E+03 -0.10478783590E+04  0.28632487881E+04  0.30586579260E+04  0.91059513062E+02 0.  0.
         11    1    3    3    0    0  0.17941666818E+03 -0.63901944394E+03  0.18148243235E+04  0.19323880345E+04  0.00000000000E+00 0.  1.
        -11    1    3    3    0    0  0.46091191806E+02 -0.40885891509E+03  0.10484244646E+04  0.11262698915E+04  0.00000000000E+00 0. -1.
         22    1    1    2    0    0 -0.22550785998E+03  0.10478783590E+04  0.87000982977E+03  0.13805143803E+04  0.00000000000E+00 0. -1.
<mgrwt>
<rscale>  0 0.24018807E+04</rscale>
<asrwt>0</asrwt>
<pdfrwt beam="1">  1        2 0.62864850E+00 0.24018807E+04</pdfrwt>
<pdfrwt beam="2">  1       -2 0.54301056E-01 0.24018807E+04</pdfrwt>
<totfact> 0.83846380E-01</totfact>
</mgrwt>
</event>
<event>
 6    1  0.5196787E-004  0.1557006E+04  0.7818608E-02  0.8847405E-01
         -2   -1    0    0    0  501 -0.00000000000E+00  0.00000000000E+00  0.27214704743E+03  0.27214704743E+03  0.00000000000E+00 0. -1.
          2   -1    0    0  501    0  0.00000000000E+00 -0.00000000000E+00 -0.22269821108E+04  0.22269821108E+04  0.00000000000E+00 0.  1.
         23    2    1    2    0    0 -0.28114940230E+03 -0.45229255672E+03 -0.75321167640E+02  0.54562307236E+03  0.91748109115E+02 0.  0.
         11    1    3    3    0    0 -0.14343535317E+03 -0.27553560690E+03 -0.82615491698E+02  0.32143256008E+03  0.00000000000E+00 0. -1.
        -11    1    3    3    0    0 -0.13771404913E+03 -0.17675694981E+03  0.72943240580E+01  0.22419051228E+03  0.00000000000E+00 0.  1.
         22    1    1    2    0    0  0.28114940230E+03  0.45229255672E+03 -0.18795138957E+04  0.19535060858E+04  0.00000000000E+00 0.  1.
<mgrwt>
<rscale>  0 0.15570056E+04</rscale>
<asrwt>0</asrwt>
<pdfrwt beam="1">  1        2 0.34261262E+00 0.15570056E+04</pdfrwt>
<pdfrwt beam="2">  1       -2 0.41868778E-01 0.15570056E+04</pdfrwt>
<totfact> 0.25957674E+01</totfact>
</mgrwt>
</event>
<event>
 6    1  0.5196787E-004  0.3036998E+04  0.7818608E-02  0.8233244E-01
         -2   -1    0    0    0  501 -0.00000000000E+00  0.00000000000E+00  0.11819769699E+04  0.11819769699E+04  0.00000000000E+00 0. -1.
          2   -1    0    0  501    0  0.00000000000E+00 -0.00000000000E+00 -0.19508326224E+04  0.19508326224E+04  0.00000000000E+00 0.  1.
         23    2    1    2    0    0 -0.26675055803E+03  0.42783855522E+03  0.10912430078E+04  0.12055917230E+04  0.91860824989E+02 0.  0.
         11    1    3    3    0    0 -0.17941443722E+03  0.31953809615E+03  0.69607936896E+03  0.78665152582E+03  0.00000000000E+00 0. -1.
        -11    1    3    3    0    0 -0.87336120811E+02  0.10830045907E+03  0.39516363879E+03  0.41894019723E+03  0.00000000000E+00 0.  1.
         22    1    1    2    0    0  0.26675055803E+03 -0.42783855522E+03 -0.18600986603E+04  0.19272178692E+04  0.00000000000E+00 0.  1.
<mgrwt>
<rscale>  0 0.30369980E+04</rscale>
<asrwt>0</asrwt>
<pdfrwt beam="1">  1        2 0.30012809E+00 0.30369980E+04</pdfrwt>
<pdfrwt beam="2">  1       -2 0.18184261E+00 0.30369980E+04</pdfrwt>
<totfact> 0.10694612E+00</totfact>
</mgrwt>
</event>
<event>
 6    1  0.5196787E-004  0.5329219E+03  0.7818608E-02  0.1005526E+00
          2   -1    0    0  501    0  0.00000000000E+00  0.00000000000E+00  0.12094909211E+04  0.12094909211E+04  0.00000000000E+00 0.  1.
         -2   -1    0    0    0  501 -0.00000000000E+00 -0.00000000000E+00 -0.58703570200E+02  0.58703570200E+02  0.00000000000E+00 0. -1.
         23    2    1    2    0    0  0.19796165578E+03 -0.97175625573E+02  0.27089078675E+03  0.36108375772E+03  0.91475364890E+02 0.  0.
         13    1    3    3    0    0  0.96535203266E+02 -0.65594480960E+02  0.76464618169E+02  0.13952963568E+03  0.00000000000E+00 0.  1.
        -13    1    3    3    0    0  0.10142645251E+03 -0.31581144613E+02  0.19442616858E+03  0.22155412204E+03  0.00000000000E+00 0. -1.
         22    1    1    2    0    0 -0.19796165578E+03  0.97175625573E+02  0.87989656412E+03  0.90711073355E+03  0.00000000000E+00 0.  1.
<mgrwt>
<rscale>  0 0.53292189E+03</rscale>
<asrwt>0</asrwt>
<pdfrwt beam="1">  1        2 0.18607551E+00 0.53292189E+03</pdfrwt>
<pdfrwt beam="2">  1       -2 0.90313194E-02 0.53292189E+03</pdfrwt>
<totfact> 0.15318360E+03</totfact>
</mgrwt>
</event>
<event>
 6    1  0.5196787E-004  0.1232552E+04  0.7818608E-02  0.9084831E-01
          2   -1    0    0  501    0  0.00000000000E+00  0.00000000000E+00  0.20326592935E+04  0.20326592935E+04  0.00000000000E+00 0.  1.
         -2   -1    0    0    0  501 -0.00000000000E+00 -0.00000000000E+00 -0.18684693327E+03  0.18684693327E+03  0.00000000000E+00 0. -1.
         23    2    1    2    0    0 -0.53402587414E+02  0.10731023981E+02  0.20272583203E+04  0.20300606472E+04  0.91667568168E+02 0.  0.
         11    1    3    3    0    0 -0.54190100684E+02  0.44967626364E+02  0.11686065268E+04  0.11707262144E+04  0.00000000000E+00 0.  1.
        -11    1    3    3    0    0  0.78751326939E+00 -0.34236602383E+02  0.85865179345E+03  0.85933443287E+03  0.00000000000E+00 0. -1.
         22    1    1    2    0    0  0.53402587414E+02 -0.10731023981E+02 -0.18144596001E+03  0.18944557958E+03  0.00000000000E+00 0. -1.
<mgrwt>
<rscale>  0 0.12325521E+04</rscale>
<asrwt>0</asrwt>
<pdfrwt beam="1">  1        2 0.31271680E+00 0.12325521E+04</pdfrwt>
<pdfrwt beam="2">  1       -2 0.28745683E-01 0.12325521E+04</pdfrwt>
<totfact> 0.70144727E+01</totfact>
</mgrwt>
</event>
<event>
 6    1  0.7035205E-004  0.3634193E+04  0.7818608E-02  0.8082704E-01
         -2   -1    0    0    0  501 -0.00000000000E+00  0.00000000000E+00  0.15267689957E+04  0.15267689957E+04  0.00000000000E+00 0. -1.
          2   -1    0    0  501    0  0.00000000000E+00 -0.00000000000E+00 -0.21626318739E+04  0.21626318739E+04  0.00000000000E+00 0.  1.
         23    2    1    2    0    0 -0.11107252591E+04 -0.83203155781E+01 -0.17764678517E+04  0.20973080537E+04  0.95305902900E+02 0.  0.
         11    1    3    3    0    0 -0.88437724099E+03 -0.45071814216E+02 -0.14103266017E+04  0.16652854699E+04  0.00000000000E+00 0.  1.
        -11    1    3    3    0    0 -0.22634801812E+03  0.36751498638E+02 -0.36614124994E+03  0.43202258375E+03  0.00000000000E+00 0. -1.
         22    1    1    2    0    0  0.11107252591E+04  0.83203155781E+01  0.11406049734E+04  0.15920928159E+04  0.00000000000E+00 0. -1.
<mgrwt>
<rscale>  0 0.36341928E+04</rscale>
<asrwt>0</asrwt>
<pdfrwt beam="1">  1        2 0.33271260E+00 0.36341928E+04</pdfrwt>
<pdfrwt beam="2">  1       -2 0.23488754E+00 0.36341928E+04</pdfrwt>
<totfact> 0.35107394E-01</totfact>
</mgrwt>
</event>
<event>
 6    1  0.5196787E-004  0.1085495E+04  0.7818608E-02  0.9219446E-01
         -2   -1    0    0    0  501 -0.00000000000E+00  0.00000000000E+00  0.10804461699E+03  0.10804461699E+03  0.00000000000E+00 0. -1.
          2   -1    0    0  501    0  0.00000000000E+00 -0.00000000000E+00 -0.27264201482E+04  0.27264201482E+04  0.00000000000E+00 0.  1.
         23    2    1    2    0    0  0.26747392334E+03 -0.31418204555E+03 -0.41129751620E+03  0.58914830158E+03  0.87620870839E+02 0.  0.
         11    1    3    3    0    0  0.58894265193E+02 -0.13330068187E+03 -0.14236334800E+03  0.20372758555E+03  0.00000000000E+00 0.  1.
        -11    1    3    3    0    0  0.20857965814E+03 -0.18088136368E+03 -0.26893416820E+03  0.38542071603E+03  0.00000000000E+00 0. -1.
         22    1    1    2    0    0 -0.26747392334E+03  0.31418204555E+03 -0.22070780150E+04  0.22453164636E+04  0.00000000000E+00 0.  1.
<mgrwt>
<rscale>  0 0.10854953E+04</rscale>
<asrwt>0</asrwt>
<pdfrwt beam="1">  1        2 0.41944922E+00 0.10854953E+04</pdfrwt>
<pdfrwt beam="2">  1       -2 0.16622250E-01 0.10854953E+04</pdfrwt>
<totfact> 0.76019532E+01</totfact>
</mgrwt>
</event>
<event>
 6    1  0.5196787E-004  0.1603086E+04  0.7818608E-02  0.8818654E-01
          2   -1    0    0  501    0  0.00000000000E+00  0.00000000000E+00  0.90871673138E+03  0.90871673138E+03  0.00000000000E+00 0.  1.
         -2   -1    0    0    0  501 -0.00000000000E+00 -0.00000000000E+00 -0.70700950098E+03  0.70700950098E+03  0.00000000000E+00 0. -1.
         23    2    1    2    0    0 -0.32379532020E+03 -0.11626247253E+03  0.82776957701E+03  0.90136327577E+03  0.94302228931E+02 0.  0.
         11    1    3    3    0    0 -0.95600698286E+02 -0.23228191556E+02  0.35293007905E+03  0.36638597557E+03  0.00000000000E+00 0. -1.
        -11    1    3    3    0    0 -0.22819462191E+03 -0.93034280977E+02  0.47483949796E+03  0.53497730020E+03  0.00000000000E+00 0.  1.
         22    1    1    2    0    0  0.32379532020E+03  0.11626247253E+03 -0.62606234661E+03  0.71436295659E+03  0.00000000000E+00 0. -1.
<mgrwt>
<rscale>  0 0.16030862E+04</rscale>
<asrwt>0</asrwt>
<pdfrwt beam="1">  1        2 0.13980257E+00 0.16030862E+04</pdfrwt>
<pdfrwt beam="2">  1       -2 0.10877069E+00 0.16030862E+04</pdfrwt>
<totfact> 0.18725367E+01</totfact>
</mgrwt>
</event>
<event>
 6    1  0.5196787E-004  0.4945061E+04  0.7818608E-02  0.7837038E-01
         -2   -1    0    0    0  501 -0.00000000000E+00  0.00000000000E+00  0.15600348544E+04  0.15600348544E+04  0.00000000000E+00 0. -1.
          2   -1    0    0  501    0  0.00000000000E+00 -0.00000000000E+00 -0.39187624340E+04  0.39187624340E+04  0.00000000000E+00 0.  1.
         23    2    1    2    0    0  0.19371431076E+04 -0.12540742719E+04 -0.21607382331E+04  0.31626743470E+04  0.92160805461E+02 0.  0.
         13    1    3    3    0    0  0.74180990010E+03 -0.44522666030E+03 -0.76408572313E+03  0.11542684693E+04  0.00000000000E+00 0. -1.
        -13    1    3    3    0    0  0.11953332075E+04 -0.80884761156E+03 -0.13966525100E+04  0.20084058777E+04  0.00000000000E+00 0.  1.
         22    1    1    2    0    0 -0.19371431076E+04  0.12540742719E+04 -0.19798934646E+03  0.23161229415E+04  0.00000000000E+00 0.  1.
<mgrwt>
<rscale>  0 0.49450606E+04</rscale>
<asrwt>0</asrwt>
<pdfrwt beam="1">  1        2 0.60288653E+00 0.49450606E+04</pdfrwt>
<pdfrwt beam="2">  1       -2 0.24000536E+00 0.49450606E+04</pdfrwt>
<totfact> 0.21431700E-02</totfact>
</mgrwt>
</event>
<event>
 6    1  0.5196787E-004  0.2796196E+04  0.7818608E-02  0.8304450E-01
         -2   -1    0    0    0  501 -0.00000000000E+00  0.00000000000E+00  0.10631702636E+04  0.10631702636E+04  0.00000000000E+00 0. -1.
          2   -1    0    0  501    0  0.00000000000E+00 -0.00000000000E+00 -0.18385365691E+04  0.18385365691E+04  0.00000000000E+00 0.  1.
         23    2    1    2    0    0 -0.78674346091E+03  0.11314828624E+04 -0.15309113951E+03  0.13896072582E+04  0.91393072547E+02 0.  0.
         13    1    3    3    0    0 -0.31965015031E+03  0.46065196635E+03 -0.10751989193E+03  0.57090890679E+03  0.00000000000E+00 0. -1.
        -13    1    3    3    0    0 -0.46709331061E+03  0.67083089608E+03 -0.45571247578E+02  0.81869835138E+03  0.00000000000E+00 0.  1.
         22    1    1    2    0    0  0.78674346091E+03 -0.11314828624E+04 -0.62227516595E+03  0.15120995746E+04  0.00000000000E+00 0.  1.
<mgrwt>
<rscale>  0 0.27961956E+04</rscale>
<asrwt>0</asrwt>
<pdfrwt beam="1">  1        2 0.28285178E+00 0.27961956E+04</pdfrwt>
<pdfrwt beam="2">  1       -2 0.16356466E+00 0.27961956E+04</pdfrwt>
<totfact> 0.16957996E+00</totfact>
</mgrwt>
</event>
<event>
 6    1  0.5196787E-004  0.9588605E+03  0.7818608E-02  0.9354854E-01
          2   -1    0    0  501    0  0.00000000000E+00  0.00000000000E+00  0.10038777110E+04  0.10038777110E+04  0.00000000000E+00 0.  1.
         -2   -1    0    0    0  501 -0.00000000000E+00 -0.00000000000E+00 -0.22896549315E+03  0.22896549315E+03  0.00000000000E+00 0. -1.
         23    2    1    2    0    0 -0.24967379991E+02 -0.41483662553E+03  0.94924419576E+02  0.43591397156E+03  0.91090884442E+02 0.  0.
         11    1    3    3    0    0 -0.59089667091E+02 -0.27518427321E+03  0.55952071964E+02  0.28696447051E+03  0.00000000000E+00 0. -1.
        -11    1    3    3    0    0  0.34122287100E+02 -0.13965235231E+03  0.38972347612E+02  0.14894950105E+03  0.00000000000E+00 0.  1.
         22    1    1    2    0    0  0.24967379991E+02  0.41483662553E+03  0.67998779830E+03  0.79692923260E+03  0.00000000000E+00 0.  1.
<mgrwt>
<rscale>  0 0.95886048E+03</rscale>
<asrwt>0</asrwt>
<pdfrwt beam="1">  1        2 0.15444272E+00 0.95886048E+03</pdfrwt>
<pdfrwt beam="2">  1       -2 0.35225461E-01 0.95886048E+03</pdfrwt>
<totfact> 0.18933935E+02</totfact>
</mgrwt>
</event>
<event>
 6    1  0.5196787E-004  0.2805051E+04  0.7818608E-02  0.8301702E-01
         -2   -1    0    0    0  501 -0.00000000000E+00  0.00000000000E+00  0.29643695891E+04  0.29643695891E+04  0.00000000000E+00 0. -1.
          2   -1    0    0  501    0  0.00000000000E+00 -0.00000000000E+00 -0.66357356002E+03  0.66357356002E+03  0.00000000000E+00 0.  1.
         23    2    1    2    0    0 -0.19821594848E+03  0.86312659402E+03 -0.25278322943E+03  0.92515863883E+03  0.87989012900E+02 0.  0.
         13    1    3    3    0    0 -0.43699536619E+02  0.17109540453E+03 -0.87503560555E+02  0.19707907059E+03  0.00000000000E+00 0.  1.
        -13    1    3    3    0    0 -0.15451641186E+03  0.69203118949E+03 -0.16527966887E+03  0.72807956825E+03  0.00000000000E+00 0. -1.
         22    1    1    2    0    0  0.19821594848E+03 -0.86312659402E+03  0.25535792585E+04  0.27027845103E+04  0.00000000000E+00 0. -1.
<mgrwt>
<rscale>  0 0.28050506E+04</rscale>
<asrwt>0</asrwt>
<pdfrwt beam="1">  1        2 0.10208824E+00 0.28050506E+04</pdfrwt>
<pdfrwt beam="2">  1       -2 0.45605685E+00 0.28050506E+04</pdfrwt>
<totfact> 0.12046075E-01</totfact>
</mgrwt>
</event>
<event>
 6    1  0.5196787E-004  0.2753112E+04  0.7818608E-02  0.8317975E-01
         -2   -1    0    0    0  501 -0.00000000000E+00  0.00000000000E+00  0.12702885958E+04  0.12702885958E+04  0.00000000000E+00 0. -1.
          2   -1    0    0  501    0  0.00000000000E+00 -0.00000000000E+00 -0.14917129742E+04  0.14917129742E+04  0.00000000000E+00 0.  1.
         23    2    1    2    0    0 -0.49884352598E+03  0.52599763225E+03 -0.12829859871E+04  0.14765322309E+04  0.92606767591E+02 0.  0.
         11    1    3    3    0    0 -0.99957182695E+02  0.73779367031E+02 -0.27843303074E+03  0.30489307302E+03  0.00000000000E+00 0.  1.
        -11    1    3    3    0    0 -0.39888634328E+03  0.45221826522E+03 -0.10045529563E+04  0.11716391579E+04  0.00000000000E+00 0. -1.
         22    1    1    2    0    0  0.49884352598E+03 -0.52599763225E+03  0.10615616086E+04  0.12854693390E+04  0.00000000000E+00 0. -1.
<mgrwt>
<rscale>  0 0.27531117E+04</rscale>
<asrwt>0</asrwt>
<pdfrwt beam="1">  1        2 0.22949430E+00 0.27531117E+04</pdfrwt>
<pdfrwt beam="2">  1       -2 0.19542902E+00 0.27531117E+04</pdfrwt>
<totfact> 0.15982528E+00</totfact>
</mgrwt>
</event>
<event>
 6    1  0.5196787E-004  0.9152040E+03  0.7818608E-02  0.9406773E-01
         -1   -1    0    0    0  501 -0.00000000000E+00  0.00000000000E+00  0.18551833508E+03  0.18551833508E+03  0.00000000000E+00 0. -1.
          1   -1    0    0  501    0  0.00000000000E+00 -0.00000000000E+00 -0.11287271434E+04  0.11287271434E+04  0.00000000000E+00 0.  1.
         23    2    1    2    0    0 -0.73424697469E+02 -0.88683451783E+02 -0.11057191494E+04  0.11150833541E+04  0.86833797481E+02 0.  0.
         13    1    3    3    0    0  0.19201418265E+02 -0.13166876340E+02 -0.12949792310E+03  0.13157421169E+03  0.00000000000E+00 0. -1.
        -13    1    3    3    0    0 -0.92626115733E+02 -0.75516575443E+02 -0.97622122632E+03  0.98350914240E+03  0.00000000000E+00 0.  1.
         22    1    1    2    0    0  0.73424697469E+02  0.88683451783E+02  0.16251034111E+03  0.19916212438E+03  0.00000000000E+00 0. -1.
<mgrwt>
<rscale>  0 0.91520398E+03</rscale>
<asrwt>0</asrwt>
<pdfrwt beam="1">  1        1 0.17365033E+00 0.91520398E+03</pdfrwt>
<pdfrwt beam="2">  1       -1 0.28541282E-01 0.91520398E+03</pdfrwt>
<totfact> 0.13510565E+02</totfact>
</mgrwt>
</event>
<event>
 6    1  0.5196787E-004  0.2323701E+04  0.7818608E-02  0.8468634E-01
          2   -1    0    0  501    0  0.00000000000E+00  0.00000000000E+00  0.33520102241E+04  0.33520102241E+04  0.00000000000E+00 0.  1.
         -2   -1    0    0    0  501 -0.00000000000E+00 -0.00000000000E+00 -0.40271243037E+03  0.40271243037E+03  0.00000000000E+00 0. -1.
         23    2    1    2    0    0 -0.52390652714E+03  0.59766655121E+03  0.28423731902E+04  0.29527773780E+04  0.90141756758E+02 0.  0.
         11    1    3    3    0    0 -0.11563110375E+03  0.81554347047E+02  0.53505562457E+03  0.55344935185E+03  0.00000000000E+00 0. -1.
        -11    1    3    3    0    0 -0.40827542338E+03  0.51611220416E+03  0.23073175656E+04  0.23993280262E+04  0.00000000000E+00 0.  1.
         22    1    1    2    0    0  0.52390652714E+03 -0.59766655121E+03  0.10692460359E+03  0.80194527648E+03  0.00000000000E+00 0. -1.
<mgrwt>
<rscale>  0 0.23237007E+04</rscale>
<asrwt>0</asrwt>
<pdfrwt beam="1">  1        2 0.51569386E+00 0.23237007E+04</pdfrwt>
<pdfrwt beam="2">  1       -2 0.61955761E-01 0.23237007E+04</pdfrwt>
<totfact> 0.22541543E+00</totfact>
</mgrwt>
</event>
<event>
 6    1  0.5196787E-004  0.1247353E+04  0.7818608E-02  0.9072390E-01
          4   -1    0    0  501    0  0.00000000000E+00  0.00000000000E+00  0.46467401711E+03  0.46467401711E+03  0.00000000000E+00 0.  1.
         -4   -1    0    0    0  501 -0.00000000000E+00 -0.00000000000E+00 -0.83708599888E+03  0.83708599888E+03  0.00000000000E+00 0. -1.
         23    2    1    2    0    0  0.20663823514E+03  0.29636143072E+03  0.33950710488E+03  0.50341282099E+03  0.87349506183E+02 0.  0.
         11    1    3    3    0    0  0.15518443389E+03  0.14714604705E+03  0.19406494633E+03  0.28878256713E+03  0.00000000000E+00 0. -1.
        -11    1    3    3    0    0  0.51453801246E+02  0.14921538367E+03  0.14544215855E+03  0.21463025386E+03  0.00000000000E+00 0.  1.
         22    1    1    2    0    0 -0.20663823514E+03 -0.29636143072E+03 -0.71191908664E+03  0.79834719500E+03  0.00000000000E+00 0. -1.
<mgrwt>
<rscale>  0 0.12473526E+04</rscale>
<asrwt>0</asrwt>
<pdfrwt beam="1">  1        4 0.71488311E-01 0.12473526E+04</pdfrwt>
<pdfrwt beam="2">  1       -4 0.12878246E+00 0.12473526E+04</pdfrwt>
<totfact> 0.15538566E+00</totfact>
</mgrwt>
</event>
<event>
 6    1  0.5196787E-004  0.2673385E+04  0.7818608E-02  0.8343692E-01
          2   -1    0    0  501    0  0.00000000000E+00  0.00000000000E+00  0.17680637080E+04  0.17680637080E+04  0.00000000000E+00 0.  1.
         -2   -1    0    0    0  501 -0.00000000000E+00 -0.00000000000E+00 -0.10105673333E+04  0.10105673333E+04  0.00000000000E+00 0. -1.
         23    2    1    2    0    0  0.84462592105E+03  0.87538689842E+03 -0.19310768160E+03  0.12348230091E+04  0.88329603055E+02 0.  0.
         13    1    3    3    0    0  0.66845292220E+03  0.74139786178E+03 -0.15398473061E+03  0.10100551450E+04  0.00000000000E+00 0. -1.
        -13    1    3    3    0    0  0.17617299885E+03  0.13398903665E+03 -0.39122950985E+02  0.22476786416E+03  0.00000000000E+00 0.  1.
         22    1    1    2    0    0 -0.84462592105E+03 -0.87538689842E+03  0.95060405629E+03  0.15438080322E+04  0.00000000000E+00 0.  1.
<mgrwt>
<rscale>  0 0.26733854E+04</rscale>
<asrwt>0</asrwt>
<pdfrwt beam="1">  1        2 0.27200980E+00 0.26733854E+04</pdfrwt>
<pdfrwt beam="2">  1       -2 0.15547190E+00 0.26733854E+04</pdfrwt>
<totfact> 0.21521474E+00</totfact>
</mgrwt>
</event>
<event>
 6    1  0.5791548E-004  0.2830602E+04  0.7818608E-02  0.8293830E-01
         -2   -1    0    0    0  501 -0.00000000000E+00  0.00000000000E+00  0.17192066672E+04  0.17192066672E+04  0.00000000000E+00 0. -1.
          2   -1    0    0  501    0  0.00000000000E+00 -0.00000000000E+00 -0.11651173495E+04  0.11651173495E+04  0.00000000000E+00 0.  1.
         23    2    1    2    0    0  0.10444059556E+04  0.95294122250E+03  0.27439688813E+03  0.14431062577E+04  0.91549140530E+02 0.  0.
         13    1    3    3    0    0  0.29659187095E+03  0.32137470587E+03  0.10470000291E+03  0.44967825175E+03  0.00000000000E+00 0. -1.
        -13    1    3    3    0    0  0.74781408468E+03  0.63156651663E+03  0.16969688521E+03  0.99342800596E+03  0.00000000000E+00 0.  1.
         22    1    1    2    0    0 -0.10444059556E+04 -0.95294122250E+03  0.27969242958E+03  0.14412177590E+04  0.00000000000E+00 0. -1.
<mgrwt>
<rscale>  0 0.28306024E+04</rscale>
<asrwt>0</asrwt>
<pdfrwt beam="1">  1        2 0.17924882E+00 0.28306024E+04</pdfrwt>
<pdfrwt beam="2">  1       -2 0.26449333E+00 0.28306024E+04</pdfrwt>
<totfact> 0.90361595E-01</totfact>
</mgrwt>
</event>
<event>
 6    1  0.5196787E-004  0.5867827E+03  0.7818608E-02  0.9933214E-01
          2   -1    0    0  501    0  0.00000000000E+00  0.00000000000E+00  0.15614299759E+04  0.15614299759E+04  0.00000000000E+00 0. -1.
         -2   -1    0    0    0  501 -0.00000000000E+00 -0.00000000000E+00 -0.55127977812E+02  0.55127977812E+02  0.00000000000E+00 0.  1.
         23    2    1    2    0    0  0.84430875484E+02  0.27348328777E+03  0.75793033474E+03  0.81532026868E+03  0.91471671960E+02 0.  0.
         13    1    3    3    0    0  0.47903494636E+02  0.20205839435E+03  0.42716782377E+03  0.47496809281E+03  0.00000000000E+00 0. -1.
        -13    1    3    3    0    0  0.36527380848E+02  0.71424893417E+02  0.33076251097E+03  0.34035217587E+03  0.00000000000E+00 0.  1.
         22    1    1    2    0    0 -0.84430875484E+02 -0.27348328777E+03  0.74837166337E+03  0.80123768506E+03  0.00000000000E+00 0. -1.
<mgrwt>
<rscale>  0 0.58678268E+03</rscale>
<asrwt>0</asrwt>
<pdfrwt beam="1">  1        2 0.24021996E+00 0.58678268E+03</pdfrwt>
<pdfrwt beam="2">  1       -2 0.84812285E-02 0.58678268E+03</pdfrwt>
<totfact> 0.10718785E+03</totfact>
</mgrwt>
</event>
<event>
 6    1  0.5196787E-004  0.1933829E+04  0.7818608E-02  0.8638198E-01
          2   -1    0    0  501    0  0.00000000000E+00  0.00000000000E+00  0.10931406082E+04  0.10931406082E+04  0.00000000000E+00 0.  1.
         -2   -1    0    0    0  501 -0.00000000000E+00 -0.00000000000E+00 -0.85526393380E+03  0.85526393380E+03  0.00000000000E+00 0. -1.
         23    2    1    2    0    0 -0.34462247123E+03  0.79653476164E+03  0.54374029021E+03  0.10281954214E+04  0.91104594396E+02 0.  0.
         13    1    3    3    0    0 -0.13370246103E+03  0.20986193234E+03  0.16906767627E+03  0.30083593185E+03  0.00000000000E+00 0.  1.
        -13    1    3    3    0    0 -0.21092001020E+03  0.58667282930E+03  0.37467261394E+03  0.72735948951E+03  0.00000000000E+00 0. -1.
         22    1    1    2    0    0  0.34462247123E+03 -0.79653476164E+03 -0.30586361584E+03  0.92020912062E+03  0.00000000000E+00 0. -1.
<mgrwt>
<rscale>  0 0.19338291E+04</rscale>
<asrwt>0</asrwt>
<pdfrwt beam="1">  1        2 0.16817548E+00 0.19338291E+04</pdfrwt>
<pdfrwt beam="2">  1       -2 0.13157907E+00 0.19338291E+04</pdfrwt>
<totfact> 0.86556257E+00</totfact>
</mgrwt>
</event>
<event>
 6    1  0.5196787E-004  0.3791333E+04  0.7818608E-02  0.8048017E-01
         -2   -1    0    0    0  501 -0.00000000000E+00  0.00000000000E+00  0.14370002139E+04  0.14370002139E+04  0.00000000000E+00 0. -1.
          2   -1    0    0  501    0  0.00000000000E+00 -0.00000000000E+00 -0.25007309418E+04  0.25007309418E+04  0.00000000000E+00 0.  1.
         23    2    1    2    0    0  0.15929777639E+04  0.10250474607E+04 -0.49877854707E+03  0.19609986448E+04  0.91843306937E+02 0.  0.
         11    1    3    3    0    0  0.12558303685E+04  0.84835918882E+03 -0.41343882513E+03  0.15709089375E+04  0.00000000000E+00 0.  1.
        -11    1    3    3    0    0  0.33714739540E+03  0.17668827190E+03 -0.85339721935E+02  0.39008970737E+03  0.00000000000E+00 0. -1.
         22    1    1    2    0    0 -0.15929777639E+04 -0.10250474607E+04 -0.56495218087E+03  0.19767325109E+04  0.00000000000E+00 0. -1.
<mgrwt>
<rscale>  0 0.37913327E+04</rscale>
<asrwt>0</asrwt>
<pdfrwt beam="1">  1        2 0.38472784E+00 0.37913327E+04</pdfrwt>
<pdfrwt beam="2">  1       -2 0.22107696E+00 0.37913327E+04</pdfrwt>
<totfact> 0.27148715E-01</totfact>
</mgrwt>
</event>
<event>
 6    1  0.5196787E-004  0.2199507E+04  0.7818608E-02  0.8518633E-01
          2   -1    0    0  501    0  0.00000000000E+00  0.00000000000E+00  0.13328383469E+04  0.13328383469E+04  0.00000000000E+00 0.  1.
         -2   -1    0    0    0  501 -0.00000000000E+00 -0.00000000000E+00 -0.90742989082E+03  0.90742989082E+03  0.00000000000E+00 0. -1.
         23    2    1    2    0    0 -0.95593274201E+03 -0.23514413674E+03  0.70802162410E+03  0.12160756899E+04  0.91898264409E+02 0.  0.
         13    1    3    3    0    0 -0.65477028880E+03 -0.12257356868E+03  0.50354663102E+03  0.83504947185E+03  0.00000000000E+00 0. -1.
        -13    1    3    3    0    0 -0.30116245322E+03 -0.11257056806E+03  0.20447499307E+03  0.38102621801E+03  0.00000000000E+00 0.  1.
         22    1    1    2    0    0  0.95593274201E+03  0.23514413674E+03 -0.28261316803E+03  0.10241925478E+04  0.00000000000E+00 0. -1.
<mgrwt>
<rscale>  0 0.21995066E+04</rscale>
<asrwt>0</asrwt>
<pdfrwt beam="1">  1        2 0.20505205E+00 0.21995066E+04</pdfrwt>
<pdfrwt beam="2">  1       -2 0.13960460E+00 0.21995066E+04</pdfrwt>
<totfact> 0.52328456E+00</totfact>
</mgrwt>
</event>
<event>
 6    1  0.5196787E-004  0.4057165E+04  0.7818608E-02  0.7993113E-01
         -2   -1    0    0    0  501 -0.00000000000E+00  0.00000000000E+00  0.21540775743E+04  0.21540775743E+04  0.00000000000E+00 0. -1.
          2   -1    0    0  501    0  0.00000000000E+00 -0.00000000000E+00 -0.19103990111E+04  0.19103990111E+04  0.00000000000E+00 0.  1.
         23    2    1    2    0    0  0.17408384656E+04 -0.78049067122E+02 -0.91648420701E+03  0.19710134562E+04  0.91326461898E+02 0.  0.
         13    1    3    3    0    0  0.45510852895E+03 -0.53571567647E+02 -0.21528592218E+03  0.50630199908E+03  0.00000000000E+00 0. -1.
        -13    1    3    3    0    0  0.12857299366E+04 -0.24477499476E+02 -0.70119828484E+03  0.14647114571E+04  0.00000000000E+00 0.  1.
         22    1    1    2    0    0 -0.17408384656E+04  0.78049067122E+02  0.11601627702E+04  0.20934631293E+04  0.00000000000E+00 0. -1.
<mgrwt>
<rscale>  0 0.40571653E+04</rscale>
<asrwt>0</asrwt>
<pdfrwt beam="1">  1        2 0.29390754E+00 0.40571653E+04</pdfrwt>
<pdfrwt beam="2">  1       -2 0.33139655E+00 0.40571653E+04</pdfrwt>
<totfact> 0.11971195E-01</totfact>
</mgrwt>
</event>
<event>
 6    1  0.5196787E-004  0.1156931E+04  0.7818608E-02  0.9151413E-01
          2   -1    0    0  501    0  0.00000000000E+00  0.00000000000E+00  0.39725876338E+04  0.39725876338E+04  0.00000000000E+00 0.  1.
         -2   -1    0    0    0  501 -0.00000000000E+00 -0.00000000000E+00 -0.84232836187E+02  0.84232836187E+02  0.00000000000E+00 0. -1.
         23    2    1    2    0    0 -0.37695868309E+03 -0.39158107607E+03  0.26135605933E+04  0.26709872003E+04  0.89666390952E+02 0.  0.
         13    1    3    3    0    0 -0.21016671089E+03 -0.15498927401E+03  0.11974611526E+04  0.12256039056E+04  0.00000000000E+00 0. -1.
        -13    1    3    3    0    0 -0.16679197221E+03 -0.23659180207E+03  0.14160994407E+04  0.14453832948E+04  0.00000000000E+00 0.  1.
         22    1    1    2    0    0  0.37695868309E+03  0.39158107607E+03  0.12747942044E+04  0.13858332697E+04  0.00000000000E+00 0.  1.
<mgrwt>
<rscale>  0 0.11569310E+04</rscale>
<asrwt>0</asrwt>
<pdfrwt beam="1">  1        2 0.61116718E+00 0.11569310E+04</pdfrwt>
<pdfrwt beam="2">  1       -2 0.12958901E-01 0.11569310E+04</pdfrwt>
<totfact> 0.16689201E+01</totfact>
</mgrwt>
</event>
<event>
 6    1  0.5196787E-004  0.5289309E+04  0.7818608E-02  0.7785365E-01
         -2   -1    0    0    0  501 -0.00000000000E+00  0.00000000000E+00  0.23477843204E+04  0.23477843204E+04  0.00000000000E+00 0. -1.
          2   -1    0    0  501    0  0.00000000000E+00 -0.00000000000E+00 -0.29790634575E+04  0.29790634575E+04  0.00000000000E+00 0.  1.
         23    2    1    2    0    0  0.22618421169E+03  0.95589077513E+03  0.21563031366E+04  0.23712596124E+04  0.91337072706E+02 0.  0.
         11    1    3    3    0    0  0.11192555257E+03  0.33558124015E+03  0.70318935601E+03  0.78715777863E+03  0.00000000000E+00 0. -1.
        -11    1    3    3    0    0  0.11425865912E+03  0.62030953498E+03  0.14531137806E+04  0.15841018338E+04  0.00000000000E+00 0.  1.
         22    1    1    2    0    0 -0.22618421169E+03 -0.95589077513E+03 -0.27875822736E+04  0.29555881655E+04  0.00000000000E+00 0.  1.
<mgrwt>
<rscale>  0 0.52893094E+04</rscale>
<asrwt>0</asrwt>
<pdfrwt beam="1">  1        2 0.45831746E+00 0.52893094E+04</pdfrwt>
<pdfrwt beam="2">  1       -2 0.36119759E+00 0.52893094E+04</pdfrwt>
<totfact> 0.16868379E-02</totfact>
</mgrwt>
</event>
<event>
 6    1  0.5196787E-004  0.2933222E+04  0.7818608E-02  0.8263061E-01
         -2   -1    0    0    0  501 -0.00000000000E+00  0.00000000000E+00  0.19589708362E+04  0.19589708362E+04  0.00000000000E+00 0. -1.
          2   -1    0    0  501    0  0.00000000000E+00 -0.00000000000E+00 -0.10979987095E+04  0.10979987095E+04  0.00000000000E+00 0.  1.
         23    2    1    2    0    0  0.82133984192E+03 -0.12095027809E+04  0.53133178354E+03  0.15582504697E+04  0.91295943406E+02 0.  0.
         13    1    3    3    0    0  0.41799546609E+03 -0.55349006008E+03  0.28305238233E+03  0.74912622930E+03  0.00000000000E+00 0. -1.
        -13    1    3    3    0    0  0.40334437583E+03 -0.65601272079E+03  0.24827940122E+03  0.80912424041E+03  0.00000000000E+00 0.  1.
         22    1    1    2    0    0 -0.82133984192E+03  0.12095027809E+04  0.32964034312E+03  0.14987190760E+04  0.00000000000E+00 0.  1.
<mgrwt>
<rscale>  0 0.29332217E+04</rscale>
<asrwt>0</asrwt>
<pdfrwt beam="1">  1        2 0.16892288E+00 0.29332217E+04</pdfrwt>
<pdfrwt beam="2">  1       -2 0.30138013E+00 0.29332217E+04</pdfrwt>
<totfact> 0.58614648E-01</totfact>
</mgrwt>
</event>
<event>
 6    1  0.5196787E-004  0.3555111E+04  0.7818608E-02  0.8100852E-01
          2   -1    0    0  501    0  0.00000000000E+00  0.00000000000E+00  0.15922087098E+04  0.15922087098E+04  0.00000000000E+00 0.  1.
         -2   -1    0    0    0  501 -0.00000000000E+00 -0.00000000000E+00 -0.19844781858E+04  0.19844781858E+04  0.00000000000E+00 0. -1.
         23    2    1    2    0    0  0.13331192442E+04 -0.41521528089E+03  0.90854305922E+03  0.16683567616E+04  0.91395540443E+02 0.  0.
         13    1    3    3    0    0  0.87607664082E+03 -0.31755620939E+03  0.61226084981E+03  0.11149957735E+04  0.00000000000E+00 0.  1.
        -13    1    3    3    0    0  0.45704260334E+03 -0.97659071498E+02  0.29628220942E+03  0.55336098808E+03  0.00000000000E+00 0. -1.
         22    1    1    2    0    0 -0.13331192442E+04  0.41521528089E+03 -0.13008125352E+04  0.19083301340E+04  0.00000000000E+00 0. -1.
<mgrwt>
<rscale>  0 0.35551109E+04</rscale>
<asrwt>0</asrwt>
<pdfrwt beam="1">  1        2 0.24495519E+00 0.35551109E+04</pdfrwt>
<pdfrwt beam="2">  1       -2 0.30530433E+00 0.35551109E+04</pdfrwt>
<totfact> 0.27171579E-01</totfact>
</mgrwt>
</event>
<event>
 6    1  0.5196787E-004  0.3868431E+04  0.7818608E-02  0.8031627E-01
          1   -1    0    0  501    0  0.00000000000E+00  0.00000000000E+00  0.19776738973E+04  0.19776738973E+04  0.00000000000E+00 0.  1.
         -1   -1    0    0    0  501 -0.00000000000E+00 -0.00000000000E+00 -0.18917118147E+04  0.18917118147E+04  0.00000000000E+00 0. -1.
         23    2    1    2    0    0 -0.13107348717E+04  0.10228507352E+04 -0.94351278218E+03  0.19138632683E+04  0.91688107428E+02 0.  0.
         13    1    3    3    0    0 -0.73371602804E+03  0.62089615614E+03 -0.57294505280E+03  0.11189804645E+04  0.00000000000E+00 0.  1.
        -13    1    3    3    0    0 -0.57701884371E+03  0.40195457906E+03 -0.37056772939E+03  0.79488280374E+03  0.00000000000E+00 0. -1.
         22    1    1    2    0    0  0.13107348717E+04 -0.10228507352E+04  0.10294748648E+04  0.19555224437E+04  0.00000000000E+00 0.  1.
<mgrwt>
<rscale>  0 0.38684307E+04</rscale>
<asrwt>0</asrwt>
<pdfrwt beam="1">  1        1 0.30425752E+00 0.38684307E+04</pdfrwt>
<pdfrwt beam="2">  1       -1 0.29103259E+00 0.38684307E+04</pdfrwt>
<totfact> 0.92171220E-02</totfact>
</mgrwt>
</event>
<event>
 6    1  0.5196787E-004  0.4421758E+04  0.7818608E-02  0.7924480E-01
         -2   -1    0    0    0  501 -0.00000000000E+00  0.00000000000E+00  0.14142882935E+04  0.14142882935E+04  0.00000000000E+00 0. -1.
          2   -1    0    0  501    0  0.00000000000E+00 -0.00000000000E+00 -0.34561447727E+04  0.34561447727E+04  0.00000000000E+00 0.  1.
         23    2    1    2    0    0 -0.17302509173E+04 -0.83600680036E+03  0.18073521998E+03  0.19323062023E+04  0.92013219496E+02 0.  0.
         11    1    3    3    0    0 -0.47753176647E+03 -0.19524015299E+03  0.23101961108E+02  0.51641940895E+03  0.00000000000E+00 0.  1.
        -11    1    3    3    0    0 -0.12527191508E+04 -0.64076664737E+03  0.15763325888E+03  0.14158867933E+04  0.00000000000E+00 0. -1.
         22    1    1    2    0    0  0.17302509173E+04  0.83600680036E+03 -0.22225916992E+04  0.29381268639E+04  0.00000000000E+00 0.  1.
<mgrwt>
<rscale>  0 0.44217576E+04</rscale>
<asrwt>0</asrwt>
<pdfrwt beam="1">  1        2 0.53171457E+00 0.44217576E+04</pdfrwt>
<pdfrwt beam="2">  1       -2 0.21758282E+00 0.44217576E+04</pdfrwt>
<totfact> 0.67981378E-02</totfact>
</mgrwt>
</event>
<event>
 6    1  0.9604152E-004  0.3234158E+04  0.7818608E-02  0.8179854E-01
         -2   -1    0    0    0  501 -0.00000000000E+00  0.00000000000E+00  0.10289854709E+04  0.10289854709E+04  0.00000000000E+00 0. -1.
          2   -1    0    0  501    0  0.00000000000E+00 -0.00000000000E+00 -0.25412835017E+04  0.25412835017E+04  0.00000000000E+00 0.  1.
         23    2    1    2    0    0  0.14306103843E+04  0.75097930710E+03 -0.75567591085E+03  0.17861464926E+04  0.93044179248E+02 0.  0.
         13    1    3    3    0    0  0.45687280606E+03  0.25952431469E+03 -0.20195689655E+03  0.56291404219E+03  0.00000000000E+00 0. -1.
        -13    1    3    3    0    0  0.97373757824E+03  0.49145499241E+03 -0.55371901430E+03  0.12232324504E+04  0.00000000000E+00 0.  1.
         22    1    1    2    0    0 -0.14306103843E+04 -0.75097930710E+03 -0.75662211993E+03  0.17841224800E+04  0.00000000000E+00 0. -1.
<mgrwt>
<rscale>  0 0.32341576E+04</rscale>
<asrwt>0</asrwt>
<pdfrwt beam="1">  1        2 0.39096669E+00 0.32341576E+04</pdfrwt>
<pdfrwt beam="2">  1       -2 0.15830546E+00 0.32341576E+04</pdfrwt>
<totfact> 0.71701314E-01</totfact>
</mgrwt>
</event>
<event>
 6    1  0.5196787E-004  0.3176940E+04  0.7818608E-02  0.8194934E-01
         -2   -1    0    0    0  501 -0.00000000000E+00  0.00000000000E+00  0.93716749744E+03  0.93716749744E+03  0.00000000000E+00 0. -1.
          2   -1    0    0  501    0  0.00000000000E+00 -0.00000000000E+00 -0.26924072772E+04  0.26924072772E+04  0.00000000000E+00 0.  1.
         23    2    1    2    0    0 -0.31036550768E+03 -0.48216227510E+03  0.81242218012E+03  0.99866330748E+03  0.92148765999E+02 0.  0.
         13    1    3    3    0    0 -0.13995668549E+03 -0.16557777491E+03  0.24743436528E+03  0.32897969311E+03  0.00000000000E+00 0.  1.
        -13    1    3    3    0    0 -0.17040882218E+03 -0.31658450019E+03  0.56498781484E+03  0.66968361437E+03  0.00000000000E+00 0. -1.
         22    1    1    2    0    0  0.31036550768E+03  0.48216227510E+03 -0.25676619599E+04  0.26309114672E+04  0.00000000000E+00 0.  1.
<mgrwt>
<rscale>  0 0.31769398E+04</rscale>
<asrwt>0</asrwt>
<pdfrwt beam="1">  1        2 0.41421650E+00 0.31769398E+04</pdfrwt>
<pdfrwt beam="2">  1       -2 0.14417962E+00 0.31769398E+04</pdfrwt>
<totfact> 0.75265203E-01</totfact>
</mgrwt>
</event>
<event>
 6    1  0.5196787E-004  0.2556019E+04  0.7818608E-02  0.8383296E-01
          2   -1    0    0  501    0  0.00000000000E+00  0.00000000000E+00  0.16900306203E+04  0.16900306203E+04  0.00000000000E+00 0.  1.
         -2   -1    0    0    0  501 -0.00000000000E+00 -0.00000000000E+00 -0.96643716956E+03  0.96643716956E+03  0.00000000000E+00 0. -1.
         23    2    1    2    0    0  0.73409240504E+03  0.69839235627E+03 -0.44594776104E+03  0.11090602196E+04  0.67094133032E+02 0.  0.
         13    1    3    3    0    0  0.13988954612E+03  0.17067968722E+03 -0.10210978917E+03  0.24316054324E+03  0.00000000000E+00 0. -1.
        -13    1    3    3    0    0  0.59420285892E+03  0.52771266905E+03 -0.34383797187E+03  0.86589967636E+03  0.00000000000E+00 0.  1.
         22    1    1    2    0    0 -0.73409240504E+03 -0.69839235627E+03  0.11695412117E+04  0.15474075702E+04  0.00000000000E+00 0.  1.
<mgrwt>
<rscale>  0 0.25560191E+04</rscale>
<asrwt>0</asrwt>
<pdfrwt beam="1">  1        2 0.26000471E+00 0.25560191E+04</pdfrwt>
<pdfrwt beam="2">  1       -2 0.14868264E+00 0.25560191E+04</pdfrwt>
<totfact> 0.27050611E+00</totfact>
</mgrwt>
</event>
<event>
 6    1  0.5196787E-004  0.2436855E+04  0.7818608E-02  0.8425833E-01
         -2   -1    0    0    0  501 -0.00000000000E+00  0.00000000000E+00  0.62902694004E+03  0.62902694004E+03  0.00000000000E+00 0. -1.
          2   -1    0    0  501    0  0.00000000000E+00 -0.00000000000E+00 -0.23600982116E+04  0.23600982116E+04  0.00000000000E+00 0.  1.
         23    2    1    2    0    0 -0.41432578262E+03 -0.27445072500E+03  0.49559066670E+03  0.70767551558E+03  0.90584059467E+02 0.  0.
         13    1    3    3    0    0 -0.23345054211E+02 -0.45964929915E+01  0.54256362192E+02  0.59244173910E+02  0.00000000000E+00 0.  1.
        -13    1    3    3    0    0 -0.39098072841E+03 -0.26985423200E+03  0.44133430451E+03  0.64843134167E+03  0.00000000000E+00 0. -1.
         22    1    1    2    0    0  0.41432578262E+03  0.27445072500E+03 -0.22266619382E+04  0.22814496360E+04  0.00000000000E+00 0.  1.
<mgrwt>
<rscale>  0 0.24368548E+04</rscale>
<asrwt>0</asrwt>
<pdfrwt beam="1">  1        2 0.36309202E+00 0.24368548E+04</pdfrwt>
<pdfrwt beam="2">  1       -2 0.96773377E-01 0.24368548E+04</pdfrwt>
<totfact> 0.33520180E+00</totfact>
</mgrwt>
</event>
<event>
 6    1  0.5196787E-004  0.1713452E+04  0.7818608E-02  0.8753729E-01
          2   -1    0    0  501    0  0.00000000000E+00  0.00000000000E+00  0.21332579928E+04  0.21332579928E+04  0.00000000000E+00 0.  1.
         -2   -1    0    0    0  501 -0.00000000000E+00 -0.00000000000E+00 -0.34406503181E+03  0.34406503181E+03  0.00000000000E+00 0. -1.
         23    2    1    2    0    0  0.67030209227E+03  0.35918695786E+03  0.33382117402E+03  0.83524287921E+03  0.88735142117E+02 0.  0.
         13    1    3    3    0    0  0.55963646837E+03  0.26029170073E+03  0.27083200963E+03  0.67401388979E+03  0.00000000000E+00 0. -1.
        -13    1    3    3    0    0  0.11066562390E+03  0.98895257136E+02  0.62989164391E+02  0.16122898942E+03  0.00000000000E+00 0.  1.
         22    1    1    2    0    0 -0.67030209227E+03 -0.35918695786E+03  0.14553717870E+04  0.16420801454E+04  0.00000000000E+00 0.  1.
<mgrwt>
<rscale>  0 0.17134520E+04</rscale>
<asrwt>0</asrwt>
<pdfrwt beam="1">  1        2 0.32819353E+00 0.17134520E+04</pdfrwt>
<pdfrwt beam="2">  1       -2 0.52933083E-01 0.17134520E+04</pdfrwt>
<totfact> 0.18017172E+01</totfact>
</mgrwt>
</event>
<event>
 6    1  0.5196787E-004  0.8795440E+03  0.7818608E-02  0.9451520E-01
          2   -1    0    0  501    0  0.00000000000E+00  0.00000000000E+00  0.12352421957E+04  0.12352421957E+04  0.00000000000E+00 0.  1.
         -2   -1    0    0    0  501 -0.00000000000E+00 -0.00000000000E+00 -0.15656799800E+03  0.15656799800E+03  0.00000000000E+00 0. -1.
         23    2    1    2    0    0  0.41331251721E+03  0.19402835938E+02  0.34103451197E+03  0.54604662573E+03  0.10324084553E+03 0.  0.
         11    1    3    3    0    0  0.30974864690E+03 -0.18803254190E+02  0.28884374674E+03  0.42394397820E+03  0.00000000000E+00 0.  1.
        -11    1    3    3    0    0  0.10356387031E+03  0.38206090128E+02  0.52190765235E+02  0.12210264753E+03  0.00000000000E+00 0. -1.
         22    1    1    2    0    0 -0.41331251721E+03 -0.19402835938E+02  0.73763968568E+03  0.84576356792E+03  0.00000000000E+00 0.  1.
<mgrwt>
<rscale>  0 0.87954397E+03</rscale>
<asrwt>0</asrwt>
<pdfrwt beam="1">  1        2 0.19003725E+00 0.87954397E+03</pdfrwt>
<pdfrwt beam="2">  1       -2 0.24087385E-01 0.87954397E+03</pdfrwt>
<totfact> 0.27747045E+02</totfact>
</mgrwt>
</event>
<event>
 6    1  0.5196787E-004  0.1829692E+04  0.7818608E-02  0.8690667E-01
         -2   -1    0    0    0  501 -0.00000000000E+00  0.00000000000E+00  0.30196642449E+03  0.30196642449E+03  0.00000000000E+00 0. -1.
          2   -1    0    0  501    0  0.00000000000E+00 -0.00000000000E+00 -0.27716426998E+04  0.27716426998E+04  0.00000000000E+00 0.  1.
         23    2    1    2    0    0 -0.64222358949E+03 -0.51997739542E+03 -0.18891675125E+04  0.20637487110E+04  0.85306630055E+02 0.  0.
         11    1    3    3    0    0 -0.32319869455E+03 -0.30745002145E+03 -0.10737204049E+04  0.11626944653E+04  0.00000000000E+00 0. -1.
        -11    1    3    3    0    0 -0.31902489494E+03 -0.21252737397E+03 -0.81544710763E+03  0.90105424566E+03  0.00000000000E+00 0.  1.
         22    1    1    2    0    0  0.64222358949E+03  0.51997739542E+03 -0.58050876277E+03  0.10098604133E+04  0.00000000000E+00 0. -1.
<mgrwt>
<rscale>  0 0.18296918E+04</rscale>
<asrwt>0</asrwt>
<pdfrwt beam="1">  1        2 0.42640658E+00 0.18296918E+04</pdfrwt>
<pdfrwt beam="2">  1       -2 0.46456372E-01 0.18296918E+04</pdfrwt>
<totfact> 0.99747342E+00</totfact>
</mgrwt>
</event>
<event>
 6    1  0.5196787E-004  0.6471533E+03  0.7818608E-02  0.9812135E-01
          2   -1    0    0  501    0  0.00000000000E+00  0.00000000000E+00  0.88512338164E+03  0.88512338164E+03  0.00000000000E+00 0.  1.
         -2   -1    0    0    0  501 -0.00000000000E+00 -0.00000000000E+00 -0.11829069868E+03  0.11829069868E+03  0.00000000000E+00 0. -1.
         23    2    1    2    0    0 -0.17584579694E+03 -0.52793824381E+02 -0.80836257910E+01  0.20704468252E+03  0.95358394272E+02 0.  0.
         11    1    3    3    0    0 -0.11165967021E+03 -0.79780587215E+02 -0.68974306359E+01  0.13740596274E+03  0.00000000000E+00 0. -1.
        -11    1    3    3    0    0 -0.64186126733E+02  0.26986762833E+02 -0.11861951551E+01  0.69638719777E+02  0.00000000000E+00 0.  1.
         22    1    1    2    0    0  0.17584579694E+03  0.52793824381E+02  0.77491630875E+03  0.79636939780E+03  0.00000000000E+00 0.  1.
<mgrwt>
<rscale>  0 0.64715335E+03</rscale>
<asrwt>0</asrwt>
<pdfrwt beam="1">  1        2 0.13617282E+00 0.64715335E+03</pdfrwt>
<pdfrwt beam="2">  1       -2 0.18198570E-01 0.64715335E+03</pdfrwt>
<totfact> 0.76002658E+02</totfact>
</mgrwt>
</event>
<event>
 6    1  0.5196787E-004  0.2589534E+04  0.7818608E-02  0.8371765E-01
          2   -1    0    0  501    0  0.00000000000E+00  0.00000000000E+00  0.29019496155E+04  0.29019496155E+04  0.00000000000E+00 0.  1.
         -2   -1    0    0    0  501 -0.00000000000E+00 -0.00000000000E+00 -0.57768809526E+03  0.57768809526E+03  0.00000000000E+00 0. -1.
         23    2    1    2    0    0 -0.80363625050E+03  0.83213396509E+03  0.38763845276E+03  0.12238037043E+04  0.95675376911E+02 0.  0.
         11    1    3    3    0    0 -0.17161841765E+03  0.23627157499E+03  0.89072555611E+02  0.30530486172E+03  0.00000000000E+00 0. -1.
        -11    1    3    3    0    0 -0.63201783285E+03  0.59586239010E+03  0.29856589715E+03  0.91849884263E+03  0.00000000000E+00 0.  1.
         22    1    1    2    0    0  0.80363625050E+03 -0.83213396509E+03  0.19366230675E+04  0.22558340064E+04  0.00000000000E+00 0.  1.
<mgrwt>
<rscale>  0 0.25895341E+04</rscale>
<asrwt>0</asrwt>
<pdfrwt beam="1">  1        2 0.44645378E+00 0.25895341E+04</pdfrwt>
<pdfrwt beam="2">  1       -2 0.88875093E-01 0.25895341E+04</pdfrwt>
<totfact> 0.19294429E+00</totfact>
</mgrwt>
</event>
<event>
 6    1  0.5196787E-004  0.5444810E+04  0.7818608E-02  0.7763329E-01
          2   -1    0    0  501    0  0.00000000000E+00  0.00000000000E+00  0.38989521191E+04  0.38989521191E+04  0.00000000000E+00 0.  1.
         -2   -1    0    0    0  501 -0.00000000000E+00 -0.00000000000E+00 -0.19008925380E+04  0.19008925380E+04  0.00000000000E+00 0. -1.
         23    2    1    2    0    0  0.23080027310E+04  0.75468253237E+02  0.25336557421E+04  0.34293098417E+04  0.90457209295E+02 0.  0.
         11    1    3    3    0    0  0.19572934610E+03  0.31170918024E+02  0.20970162231E+03  0.28854180538E+03  0.00000000000E+00 0.  1.
        -11    1    3    3    0    0  0.21122733849E+04  0.44297335213E+02  0.23239541198E+04  0.31407680363E+04  0.00000000000E+00 0. -1.
         22    1    1    2    0    0 -0.23080027310E+04 -0.75468253237E+02 -0.53559616103E+03  0.23705348155E+04  0.00000000000E+00 0. -1.
<mgrwt>
<rscale>  0 0.54448100E+04</rscale>
<asrwt>0</asrwt>
<pdfrwt beam="1">  1        2 0.59983879E+00 0.54448100E+04</pdfrwt>
<pdfrwt beam="2">  1       -2 0.29244501E+00 0.54448100E+04</pdfrwt>
<totfact> 0.10189608E-02</totfact>
</mgrwt>
</event>
<event>
 6    1  0.5196787E-004  0.1916998E+04  0.7818608E-02  0.8646441E-01
         -2   -1    0    0    0  501 -0.00000000000E+00  0.00000000000E+00  0.32734246313E+03  0.32734246313E+03  0.00000000000E+00 0. -1.
          2   -1    0    0  501    0  0.00000000000E+00 -0.00000000000E+00 -0.28066040380E+04  0.28066040380E+04  0.00000000000E+00 0.  1.
         23    2    1    2    0    0 -0.67376249236E+03 -0.65936873543E+03 -0.15053806448E+04  0.17785251308E+04  0.90872050074E+02 0.  0.
         13    1    3    3    0    0 -0.58332936023E+03 -0.52379578937E+03 -0.12347412387E+04  0.14626076363E+04  0.00000000000E+00 0. -1.
        -13    1    3    3    0    0 -0.90433132128E+02 -0.13557294606E+03 -0.27063940618E+03  0.31591749440E+03  0.00000000000E+00 0.  1.
         22    1    1    2    0    0  0.67376249236E+03  0.65936873543E+03 -0.97388093000E+03  0.13554213703E+04  0.00000000000E+00 0. -1.
<mgrwt>
<rscale>  0 0.19169984E+04</rscale>
<asrwt>0</asrwt>
<pdfrwt beam="1">  1        2 0.43178522E+00 0.19169984E+04</pdfrwt>
<pdfrwt beam="2">  1       -2 0.50360380E-01 0.19169984E+04</pdfrwt>
<totfact> 0.80067598E+00</totfact>
</mgrwt>
</event>
<event>
 6    1  0.5196787E-004  0.5340625E+03  0.7818608E-02  0.1005252E+00
          2   -1    0    0  501    0  0.00000000000E+00  0.00000000000E+00  0.23794967683E+04  0.23794967683E+04  0.00000000000E+00 0.  1.
         -2   -1    0    0    0  501 -0.00000000000E+00 -0.00000000000E+00 -0.29966710050E+02  0.29966710050E+02  0.00000000000E+00 0. -1.
         23    2    1    2    0    0  0.19016538159E+02 -0.25283097807E+03  0.14482131095E+04  0.14731636470E+04  0.92761996234E+02 0.  0.
         11    1    3    3    0    0 -0.28664037864E+02 -0.89642614436E+02  0.67138864756E+03  0.67795290504E+03  0.00000000000E+00 0.  1.
        -11    1    3    3    0    0  0.47680576023E+02 -0.16318836363E+03  0.77682446198E+03  0.79521074194E+03  0.00000000000E+00 0. -1.
         22    1    1    2    0    0 -0.19016538159E+02  0.25283097807E+03  0.90131694875E+03  0.93629983140E+03  0.00000000000E+00 0. -1.
<mgrwt>
<rscale>  0 0.53406250E+03</rscale>
<asrwt>0</asrwt>
<pdfrwt beam="1">  1        2 0.36607628E+00 0.53406250E+03</pdfrwt>
<pdfrwt beam="2">  1       -2 0.46102650E-02 0.53406250E+03</pdfrwt>
<totfact> 0.10050620E+03</totfact>
</mgrwt>
</event>
<event>
 6    1  0.5196787E-004  0.5856865E+04  0.7818608E-02  0.7708406E-01
          2   -1    0    0  501    0  0.00000000000E+00  0.00000000000E+00  0.46356353867E+04  0.46356353867E+04  0.00000000000E+00 0.  1.
         -2   -1    0    0    0  501 -0.00000000000E+00 -0.00000000000E+00 -0.18499551287E+04  0.18499551287E+04  0.00000000000E+00 0. -1.
         23    2    1    2    0    0  0.16929969650E+04  0.79909603377E+03  0.38856623735E+04  0.43142421211E+04  0.97569482142E+02 0.  0.
         13    1    3    3    0    0  0.71031820159E+03  0.36373675385E+03  0.17501916408E+04  0.19235454642E+04  0.00000000000E+00 0.  1.
        -13    1    3    3    0    0  0.98267876344E+03  0.43535927992E+03  0.21354707327E+04  0.23906966569E+04  0.00000000000E+00 0. -1.
         22    1    1    2    0    0 -0.16929969650E+04 -0.79909603377E+03 -0.10999821155E+04  0.21713483942E+04  0.00000000000E+00 0. -1.
<mgrwt>
<rscale>  0 0.58568652E+04</rscale>
<asrwt>0</asrwt>
<pdfrwt beam="1">  1        2 0.71317467E+00 0.58568652E+04</pdfrwt>
<pdfrwt beam="2">  1       -2 0.28460848E+00 0.58568652E+04</pdfrwt>
<totfact> 0.23787997E-03</totfact>
</mgrwt>
</event>
<event>
 6    1  0.5196787E-004  0.3084275E+04  0.7818608E-02  0.8220067E-01
          2   -1    0    0  501    0  0.00000000000E+00  0.00000000000E+00  0.25139204413E+04  0.25139204413E+04  0.00000000000E+00 0.  1.
         -2   -1    0    0    0  501 -0.00000000000E+00 -0.00000000000E+00 -0.94600797808E+03  0.94600797808E+03  0.00000000000E+00 0. -1.
         23    2    1    2    0    0  0.24193148915E+03 -0.15157838230E+03  0.24831532740E+04  0.25011935273E+04  0.91717107239E+02 0.  0.
         11    1    3    3    0    0  0.70498319015E+01  0.42346363150E+01  0.27506758611E+03  0.27519049621E+03  0.00000000000E+00 0. -1.
        -11    1    3    3    0    0  0.23488165725E+03 -0.15581301862E+03  0.22080856879E+04  0.22260030311E+04  0.00000000000E+00 0.  1.
         22    1    1    2    0    0 -0.24193148915E+03  0.15157838230E+03 -0.91524081078E+03  0.95873489200E+03  0.00000000000E+00 0. -1.
<mgrwt>
<rscale>  0 0.30842755E+04</rscale>
<asrwt>0</asrwt>
<pdfrwt beam="1">  1        2 0.38675699E+00 0.30842755E+04</pdfrwt>
<pdfrwt beam="2">  1       -2 0.14553969E+00 0.30842755E+04</pdfrwt>
<totfact> 0.94237492E-01</totfact>
</mgrwt>
</event>
<event>
 6    1  0.5196787E-004  0.3224041E+04  0.7818608E-02  0.8182497E-01
          2   -1    0    0  501    0  0.00000000000E+00  0.00000000000E+00  0.15010130476E+04  0.15010130476E+04  0.00000000000E+00 0. -1.
         -2   -1    0    0    0  501 -0.00000000000E+00 -0.00000000000E+00 -0.17312374350E+04  0.17312374350E+04  0.00000000000E+00 0.  1.
         23    2    1    2    0    0 -0.13920038987E+04  0.20045242451E+03  0.67194906551E+03  0.15613905341E+04  0.92567946454E+02 0.  0.
         11    1    3    3    0    0 -0.86568942242E+03  0.10534828720E+03  0.46127872117E+03  0.98655688954E+03  0.00000000000E+00 0.  1.
        -11    1    3    3    0    0 -0.52631447632E+03  0.95104137306E+02  0.21067034434E+03  0.57483364454E+03  0.00000000000E+00 0. -1.
         22    1    1    2    0    0  0.13920038987E+04 -0.20045242451E+03 -0.90217345292E+03  0.16708599486E+04  0.00000000000E+00 0.  1.
<mgrwt>
<rscale>  0 0.32240409E+04</rscale>
<asrwt>0</asrwt>
<pdfrwt beam="1">  1        2 0.23092508E+00 0.32240409E+04</pdfrwt>
<pdfrwt beam="2">  1       -2 0.26634422E+00 0.32240409E+04</pdfrwt>
<totfact> 0.54361043E-01</totfact>
</mgrwt>
</event>
<event>
 6    1  0.5196787E-004  0.4525278E+04  0.7818608E-02  0.7906226E-01
         -2   -1    0    0    0  501 -0.00000000000E+00  0.00000000000E+00  0.15142246220E+04  0.15142246220E+04  0.00000000000E+00 0. -1.
          2   -1    0    0  501    0  0.00000000000E+00 -0.00000000000E+00 -0.33809617629E+04  0.33809617629E+04  0.00000000000E+00 0.  1.
         23    2    1    2    0    0 -0.33347394970E+03  0.76011618168E+03  0.13421862222E+04  0.15806471054E+04  0.89442338423E+02 0.  0.
         11    1    3    3    0    0 -0.49706451163E+02  0.17794485771E+03  0.35044036072E+03  0.39616101536E+03  0.00000000000E+00 0. -1.
        -11    1    3    3    0    0 -0.28376749854E+03  0.58217132397E+03  0.99174586150E+03  0.11844860900E+04  0.00000000000E+00 0.  1.
         22    1    1    2    0    0  0.33347394970E+03 -0.76011618168E+03 -0.32089233631E+04  0.33145392795E+04  0.00000000000E+00 0.  1.
<mgrwt>
<rscale>  0 0.45252781E+04</rscale>
<asrwt>0</asrwt>
<pdfrwt beam="1">  1        2 0.52014795E+00 0.45252781E+04</pdfrwt>
<pdfrwt beam="2">  1       -2 0.23295764E+00 0.45252781E+04</pdfrwt>
<totfact> 0.60769994E-02</totfact>
</mgrwt>
</event>
<event>
 6    1  0.5196787E-004  0.2931271E+04  0.7818608E-02  0.8263634E-01
         -2   -1    0    0    0  501 -0.00000000000E+00  0.00000000000E+00  0.13455989898E+04  0.13455989898E+04  0.00000000000E+00 0. -1.
          2   -1    0    0  501    0  0.00000000000E+00 -0.00000000000E+00 -0.15963802264E+04  0.15963802264E+04  0.00000000000E+00 0.  1.
         23    2    1    2    0    0  0.15727526850E+03  0.99521321632E+03 -0.11918320950E+04  0.15632981168E+04  0.90842739634E+02 0.  0.
         13    1    3    3    0    0  0.72886364392E+01  0.17456269905E+03 -0.25166094508E+03  0.30636333234E+03  0.00000000000E+00 0.  1.
        -13    1    3    3    0    0  0.14998663206E+03  0.82065051726E+03 -0.94017114988E+03  0.12569347844E+04  0.00000000000E+00 0. -1.
         22    1    1    2    0    0 -0.15727526850E+03 -0.99521321632E+03  0.94105085827E+03  0.13786810994E+04  0.00000000000E+00 0. -1.
<mgrwt>
<rscale>  0 0.29312711E+04</rscale>
<asrwt>0</asrwt>
<pdfrwt beam="1">  1        2 0.24559696E+00 0.29312711E+04</pdfrwt>
<pdfrwt beam="2">  1       -2 0.20701523E+00 0.29312711E+04</pdfrwt>
<totfact> 0.11546602E+00</totfact>
</mgrwt>
</event>
<event>
 6    1  0.5196787E-004  0.4386124E+04  0.7818608E-02  0.7930882E-01
          2   -1    0    0  501    0  0.00000000000E+00  0.00000000000E+00  0.26060556960E+04  0.26060556960E+04  0.00000000000E+00 0.  1.
         -2   -1    0    0    0  501 -0.00000000000E+00 -0.00000000000E+00 -0.18455171057E+04  0.18455171057E+04  0.00000000000E+00 0. -1.
         23    2    1    2    0    0  0.83394797911E+02 -0.20412667347E+04  0.11870633458E+04  0.23645538890E+04  0.90945767740E+02 0.  0.
         11    1    3    3    0    0  0.56855989671E+02 -0.82234219259E+03  0.52303470137E+03  0.97624002382E+03  0.00000000000E+00 0. -1.
        -11    1    3    3    0    0  0.26538808240E+02 -0.12189245421E+04  0.66402864443E+03  0.13883138652E+04  0.00000000000E+00 0.  1.
         22    1    1    2    0    0 -0.83394797911E+02  0.20412667347E+04 -0.42652475552E+03  0.20870189126E+04  0.00000000000E+00 0. -1.
<mgrwt>
<rscale>  0 0.43861237E+04</rscale>
<asrwt>0</asrwt>
<pdfrwt beam="1">  1        2 0.40093165E+00 0.43861237E+04</pdfrwt>
<pdfrwt beam="2">  1       -2 0.28392571E+00 0.43861237E+04</pdfrwt>
<totfact> 0.91983693E-02</totfact>
</mgrwt>
</event>
<event>
 6    1  0.5196787E-004  0.2583025E+04  0.7818608E-02  0.8373990E-01
         -2   -1    0    0    0  501 -0.00000000000E+00  0.00000000000E+00  0.44595931107E+03  0.44595931107E+03  0.00000000000E+00 0. -1.
          2   -1    0    0  501    0  0.00000000000E+00 -0.00000000000E+00 -0.37402628369E+04  0.37402628369E+04  0.00000000000E+00 0.  1.
         23    2    1    2    0    0 -0.88786211538E+03 -0.79880900711E+03 -0.24389284025E+04  0.27171879185E+04  0.91342576229E+02 0.  0.
         13    1    3    3    0    0 -0.48349256314E+03 -0.38239643801E+03 -0.12026449549E+04  0.13514240570E+04  0.00000000000E+00 0. -1.
        -13    1    3    3    0    0 -0.40436955223E+03 -0.41641256910E+03 -0.12362834476E+04  0.13657638615E+04  0.00000000000E+00 0.  1.
         22    1    1    2    0    0  0.88786211538E+03  0.79880900711E+03 -0.85537512337E+03  0.14690342295E+04  0.00000000000E+00 0. -1.
<mgrwt>
<rscale>  0 0.25830254E+04</rscale>
<asrwt>0</asrwt>
<pdfrwt beam="1">  1        2 0.57542505E+00 0.25830254E+04</pdfrwt>
<pdfrwt beam="2">  1       -2 0.68609125E-01 0.25830254E+04</pdfrwt>
<totfact> 0.93872631E-01</totfact>
</mgrwt>
</event>
<event>
 6    1  0.5196787E-004  0.4307591E+04  0.7818608E-02  0.7945216E-01
          2   -1    0    0  501    0  0.00000000000E+00  0.00000000000E+00  0.19110779029E+04  0.19110779029E+04  0.00000000000E+00 0.  1.
         -2   -1    0    0    0  501 -0.00000000000E+00 -0.00000000000E+00 -0.24273400784E+04  0.24273400784E+04  0.00000000000E+00 0. -1.
         23    2    1    2    0    0 -0.90237208065E+03  0.17509194866E+04 -0.11331994681E+04  0.22742944280E+04  0.90992804300E+02 0.  0.
         13    1    3    3    0    0 -0.18868525250E+03  0.35646945301E+03 -0.19066582157E+03  0.44612335845E+03  0.00000000000E+00 0. -1.
        -13    1    3    3    0    0 -0.71368682815E+03  0.13944500335E+04 -0.94253364651E+03  0.18281710696E+04  0.00000000000E+00 0.  1.
         22    1    1    2    0    0  0.90237208065E+03 -0.17509194866E+04  0.61693729264E+03  0.20641235533E+04  0.00000000000E+00 0.  1.
<mgrwt>
<rscale>  0 0.43075914E+04</rscale>
<asrwt>0</asrwt>
<pdfrwt beam="1">  1        2 0.29401199E+00 0.43075914E+04</pdfrwt>
<pdfrwt beam="2">  1       -2 0.37343693E+00 0.43075914E+04</pdfrwt>
<totfact> 0.63569267E-02</totfact>
</mgrwt>
</event>
<event>
 6    1  0.5196787E-004  0.1580134E+04  0.7818608E-02  0.8832846E-01
         -2   -1    0    0    0  501 -0.00000000000E+00  0.00000000000E+00  0.86938525253E+03  0.86938525253E+03  0.00000000000E+00 0. -1.
          2   -1    0    0  501    0  0.00000000000E+00 -0.00000000000E+00 -0.71798528086E+03  0.71798528086E+03  0.00000000000E+00 0.  1.
         23    2    1    2    0    0  0.70351522896E+03 -0.35224758913E+03  0.10925340476E+03  0.79946928670E+03  0.90569269080E+02 0.  0.
         11    1    3    3    0    0  0.35471510927E+03 -0.15224362216E+03  0.93081681147E+02  0.39707068464E+03  0.00000000000E+00 0.  1.
        -11    1    3    3    0    0  0.34880011969E+03 -0.20000396697E+03  0.16171723613E+02  0.40239860206E+03  0.00000000000E+00 0. -1.
         22    1    1    2    0    0 -0.70351522896E+03  0.35224758913E+03  0.42146566905E+02  0.78790124669E+03  0.00000000000E+00 0.  1.
<mgrwt>
<rscale>  0 0.15801339E+04</rscale>
<asrwt>0</asrwt>
<pdfrwt beam="1">  1        2 0.11045927E+00 0.15801339E+04</pdfrwt>
<pdfrwt beam="2">  1       -2 0.13375158E+00 0.15801339E+04</pdfrwt>
<totfact> 0.15386226E+01</totfact>
</mgrwt>
</event>
<event>
 6    1  0.5196787E-004  0.1529465E+04  0.7818608E-02  0.8865092E-01
         -2   -1    0    0    0  501 -0.00000000000E+00  0.00000000000E+00  0.33552162780E+03  0.33552162780E+03  0.00000000000E+00 0. -1.
          2   -1    0    0  501    0  0.00000000000E+00 -0.00000000000E+00 -0.17430048664E+04  0.17430048664E+04  0.00000000000E+00 0.  1.
         23    2    1    2    0    0 -0.52141152399E+02  0.50567209078E+03 -0.14781247422E+04  0.15652885521E+04  0.82780038525E+02 0.  0.
         11    1    3    3    0    0 -0.30869194791E+02  0.29627545215E+03 -0.98681278535E+03  0.10307916977E+04  0.00000000000E+00 0. -1.
        -11    1    3    3    0    0 -0.21271957608E+02  0.20939663863E+03 -0.49131195686E+03  0.53449685444E+03  0.00000000000E+00 0.  1.
         22    1    1    2    0    0  0.52141152399E+02 -0.50567209078E+03  0.70641503576E+02  0.51323794209E+03  0.00000000000E+00 0. -1.
<mgrwt>
<rscale>  0 0.15294650E+04</rscale>
<asrwt>0</asrwt>
<pdfrwt beam="1">  1        2 0.26815460E+00 0.15294650E+04</pdfrwt>
<pdfrwt beam="2">  1       -2 0.51618711E-01 0.15294650E+04</pdfrwt>
<totfact> 0.31716959E+01</totfact>
</mgrwt>
</event>
<event>
 6    1  0.5196787E-004  0.2203856E+04  0.7818608E-02  0.8516825E-01
         -2   -1    0    0    0  501 -0.00000000000E+00  0.00000000000E+00  0.86624578109E+03  0.86624578109E+03  0.00000000000E+00 0. -1.
          2   -1    0    0  501    0  0.00000000000E+00 -0.00000000000E+00 -0.14017328541E+04  0.14017328541E+04  0.00000000000E+00 0.  1.
         23    2    1    2    0    0 -0.82763858971E+03  0.11129821917E+03 -0.10050132473E+04  0.13099453596E+04  0.92370390657E+02 0.  0.
         11    1    3    3    0    0 -0.29388380515E+03  0.71595178182E+02 -0.41196331972E+03  0.51108447175E+03  0.00000000000E+00 0.  1.
        -11    1    3    3    0    0 -0.53375478456E+03  0.39703040983E+02 -0.59304992759E+03  0.79886088783E+03  0.00000000000E+00 0. -1.
         22    1    1    2    0    0  0.82763858971E+03 -0.11129821917E+03  0.46952617431E+03  0.95803327559E+03  0.00000000000E+00 0. -1.
<mgrwt>
<rscale>  0 0.22038559E+04</rscale>
<asrwt>0</asrwt>
<pdfrwt beam="1">  1        2 0.21565121E+00 0.22038559E+04</pdfrwt>
<pdfrwt beam="2">  1       -2 0.13326858E+00 0.22038559E+04</pdfrwt>
<totfact> 0.53799649E+00</totfact>
</mgrwt>
</event>
<event>
 6    1  0.5196787E-004  0.5417906E+04  0.7818608E-02  0.7767087E-01
         -2   -1    0    0    0  501 -0.00000000000E+00  0.00000000000E+00  0.28858748086E+04  0.28858748086E+04  0.00000000000E+00 0. -1.
          2   -1    0    0  501    0  0.00000000000E+00 -0.00000000000E+00 -0.25428776721E+04  0.25428776721E+04  0.00000000000E+00 0.  1.
         23    2    1    2    0    0 -0.24245384249E+04  0.11752767629E+04  0.44522840724E+03  0.27324377224E+04  0.91244337224E+02 0.  0.
         13    1    3    3    0    0 -0.18929842216E+04  0.87738950329E+03  0.33233004629E+03  0.21127339784E+04  0.00000000000E+00 0. -1.
        -13    1    3    3    0    0 -0.53155420328E+03  0.29788725957E+03  0.11289836096E+03  0.61970374402E+03  0.00000000000E+00 0.  1.
         22    1    1    2    0    0  0.24245384249E+04 -0.11752767629E+04 -0.10223127066E+03  0.26963147583E+04  0.00000000000E+00 0.  1.
<mgrwt>
<rscale>  0 0.54179061E+04</rscale>
<asrwt>0</asrwt>
<pdfrwt beam="1">  1        2 0.39121195E+00 0.54179061E+04</pdfrwt>
<pdfrwt beam="2">  1       -2 0.44398074E+00 0.54179061E+04</pdfrwt>
<totfact> 0.88360328E-03</totfact>
</mgrwt>
</event>
<event>
 6    1  0.5196787E-004  0.2417664E+04  0.7818608E-02  0.8432920E-01
          2   -1    0    0  501    0  0.00000000000E+00  0.00000000000E+00  0.21140784036E+04  0.21140784036E+04  0.00000000000E+00 0.  1.
         -2   -1    0    0    0  501 -0.00000000000E+00 -0.00000000000E+00 -0.69121137411E+03  0.69121137411E+03  0.00000000000E+00 0. -1.
         23    2    1    2    0    0  0.82493791360E+03  0.40030029947E+03 -0.19856249614E+03  0.94255077354E+03  0.90620112373E+02 0.  0.
         13    1    3    3    0    0  0.59696518947E+03  0.29338861217E+03 -0.18488998817E+03  0.69038295381E+03  0.00000000000E+00 0. -1.
        -13    1    3    3    0    0  0.22797272413E+03  0.10691168730E+03 -0.13672507967E+02  0.25216781972E+03  0.00000000000E+00 0.  1.
         22    1    1    2    0    0 -0.82493791360E+03 -0.40030029947E+03  0.16214295256E+04  0.18627390041E+04  0.00000000000E+00 0.  1.
<mgrwt>
<rscale>  0 0.24176642E+04</rscale>
<asrwt>0</asrwt>
<pdfrwt beam="1">  1        2 0.32524283E+00 0.24176642E+04</pdfrwt>
<pdfrwt beam="2">  1       -2 0.10634021E+00 0.24176642E+04</pdfrwt>
<totfact> 0.36938920E+00</totfact>
</mgrwt>
</event>
<event>
 6    1  0.7915881E-004  0.4341791E+04  0.7818608E-02  0.7938935E-01
          1   -1    0    0  501    0  0.00000000000E+00  0.00000000000E+00  0.16264255744E+04  0.16264255744E+04  0.00000000000E+00 0.  1.
         -1   -1    0    0    0  501 -0.00000000000E+00 -0.00000000000E+00 -0.28976353496E+04  0.28976353496E+04  0.00000000000E+00 0. -1.
         23    2    1    2    0    0 -0.84527822448E+03  0.95492498292E+03  0.11931415366E+04  0.17492808628E+04  0.10009900513E+03 0.  0.
         13    1    3    3    0    0 -0.28345449938E+03  0.32737359957E+03  0.34176931129E+03  0.55165767379E+03  0.00000000000E+00 0.  1.
        -13    1    3    3    0    0 -0.56182372510E+03  0.62755138335E+03  0.85137222532E+03  0.11976231890E+04  0.00000000000E+00 0. -1.
         22    1    1    2    0    0  0.84527822448E+03 -0.95492498292E+03 -0.24643513118E+04  0.27747800612E+04  0.00000000000E+00 0. -1.
<mgrwt>
<rscale>  0 0.43417914E+04</rscale>
<asrwt>0</asrwt>
<pdfrwt beam="1">  1        1 0.25021932E+00 0.43417914E+04</pdfrwt>
<pdfrwt beam="2">  1       -1 0.44579005E+00 0.43417914E+04</pdfrwt>
<totfact> 0.14099342E-02</totfact>
</mgrwt>
</event>
<event>
 6    1  0.5196787E-004  0.1987560E+04  0.7818608E-02  0.8612459E-01
         -2   -1    0    0    0  501 -0.00000000000E+00  0.00000000000E+00  0.14035361763E+04  0.14035361763E+04  0.00000000000E+00 0. -1.
          2   -1    0    0  501    0  0.00000000000E+00 -0.00000000000E+00 -0.70365014551E+03  0.70365014551E+03  0.00000000000E+00 0.  1.
         23    2    1    2    0    0 -0.59530623315E+03  0.54673489399E+03 -0.25909407515E+03  0.85301272971E+03  0.84808146637E+02 0.  0.
         13    1    3    3    0    0 -0.19313969906E+03  0.14952683670E+03 -0.43835911978E+02  0.24815883105E+03  0.00000000000E+00 0. -1.
        -13    1    3    3    0    0 -0.40216653409E+03  0.39720805729E+03 -0.21525816318E+03  0.60485389866E+03  0.00000000000E+00 0.  1.
         22    1    1    2    0    0  0.59530623315E+03 -0.54673489399E+03  0.95898010594E+03  0.12541735921E+04  0.00000000000E+00 0. -1.
<mgrwt>
<rscale>  0 0.19875597E+04</rscale>
<asrwt>0</asrwt>
<pdfrwt beam="1">  1        2 0.10825387E+00 0.19875597E+04</pdfrwt>
<pdfrwt beam="2">  1       -2 0.21592864E+00 0.19875597E+04</pdfrwt>
<totfact> 0.39689292E+00</totfact>
</mgrwt>
</event>
<event>
 6    1  0.5196787E-004  0.2351072E+04  0.7818608E-02  0.8458052E-01
          2   -1    0    0  501    0  0.00000000000E+00  0.00000000000E+00  0.10787873703E+04  0.10787873703E+04  0.00000000000E+00 0.  1.
         -2   -1    0    0    0  501 -0.00000000000E+00 -0.00000000000E+00 -0.12809610238E+04  0.12809610238E+04  0.00000000000E+00 0. -1.
         23    2    1    2    0    0  0.10943545300E+04 -0.23350287817E+03 -0.45704163714E+03  0.12121016190E+04  0.90376131143E+02 0.  0.
         11    1    3    3    0    0  0.55355083282E+03 -0.73275299597E+02 -0.21558213931E+03  0.59855112801E+03  0.00000000000E+00 0. -1.
        -11    1    3    3    0    0  0.54080369722E+03 -0.16022757857E+03 -0.24145949783E+03  0.61355049096E+03  0.00000000000E+00 0.  1.
         22    1    1    2    0    0 -0.10943545300E+04  0.23350287817E+03  0.25486798362E+03  0.11476467752E+04  0.00000000000E+00 0. -1.
<mgrwt>
<rscale>  0 0.23510717E+04</rscale>
<asrwt>0</asrwt>
<pdfrwt beam="1">  1        2 0.16596729E+00 0.23510717E+04</pdfrwt>
<pdfrwt beam="2">  1       -2 0.19707093E+00 0.23510717E+04</pdfrwt>
<totfact> 0.28187677E+00</totfact>
</mgrwt>
</event>
<event>
 6    1  0.5196787E-004  0.4071850E+04  0.7818608E-02  0.7990207E-01
         -2   -1    0    0    0  501 -0.00000000000E+00  0.00000000000E+00  0.22806419954E+04  0.22806419954E+04  0.00000000000E+00 0. -1.
          2   -1    0    0  501    0  0.00000000000E+00 -0.00000000000E+00 -0.18174666044E+04  0.18174666044E+04  0.00000000000E+00 0.  1.
         23    2    1    2    0    0  0.10123722321E+04  0.12578358916E+04 -0.10146754318E+04  0.19092523412E+04  0.92895661785E+02 0.  0.
         11    1    3    3    0    0  0.75930122272E+03  0.89734847141E+03 -0.70275553667E+03  0.13695393278E+04  0.00000000000E+00 0.  1.
        -11    1    3    3    0    0  0.25307100939E+03  0.36048742016E+03 -0.31191989514E+03  0.53971301344E+03  0.00000000000E+00 0. -1.
         22    1    1    2    0    0 -0.10123722321E+04 -0.12578358916E+04  0.14778508227E+04  0.21888562586E+04  0.00000000000E+00 0. -1.
<mgrwt>
<rscale>  0 0.40718500E+04</rscale>
<asrwt>0</asrwt>
<pdfrwt beam="1">  1        2 0.27961025E+00 0.40718500E+04</pdfrwt>
<pdfrwt beam="2">  1       -2 0.35086800E+00 0.40718500E+04</pdfrwt>
<totfact> 0.10165661E-01</totfact>
</mgrwt>
</event>
<event>
 6    1  0.5196787E-004  0.1848676E+04  0.7818608E-02  0.8680834E-01
          2   -1    0    0  501    0  0.00000000000E+00  0.00000000000E+00  0.14947785189E+04  0.14947785189E+04  0.00000000000E+00 0.  1.
         -2   -1    0    0    0  501 -0.00000000000E+00 -0.00000000000E+00 -0.57159041158E+03  0.57159041158E+03  0.00000000000E+00 0. -1.
         23    2    1    2    0    0 -0.24562781931E+03  0.25400648150E+03  0.14146448339E+04  0.14610739344E+04  0.93084462974E+02 0.  0.
         11    1    3    3    0    0 -0.28182232683E+02  0.61973914302E+02  0.40078289871E+03  0.40652421354E+03  0.00000000000E+00 0. -1.
        -11    1    3    3    0    0 -0.21744558662E+03  0.19203256720E+03  0.10138619352E+04  0.10545497208E+04  0.00000000000E+00 0.  1.
         22    1    1    2    0    0  0.24562781931E+03 -0.25400648150E+03 -0.49145672658E+03  0.60529499615E+03  0.00000000000E+00 0. -1.
<mgrwt>
<rscale>  0 0.18486764E+04</rscale>
<asrwt>0</asrwt>
<pdfrwt beam="1">  1        2 0.22996592E+00 0.18486764E+04</pdfrwt>
<pdfrwt beam="2">  1       -2 0.87936987E-01 0.18486764E+04</pdfrwt>
<totfact> 0.13398962E+01</totfact>
</mgrwt>
</event>
<event>
 6    1  0.5196787E-004  0.1410133E+04  0.7818608E-02  0.8946517E-01
         -2   -1    0    0    0  501 -0.00000000000E+00  0.00000000000E+00  0.43176440857E+03  0.43176440857E+03  0.00000000000E+00 0. -1.
          2   -1    0    0  501    0  0.00000000000E+00 -0.00000000000E+00 -0.11513651010E+04  0.11513651010E+04  0.00000000000E+00 0.  1.
         23    2    1    2    0    0 -0.45303225962E+03 -0.50344531414E+03 -0.56928955993E+03  0.88937966336E+03  0.90609988145E+02 0.  0.
         11    1    3    3    0    0 -0.25468809613E+03 -0.32534417852E+03 -0.38965621870E+03  0.56793206423E+03  0.00000000000E+00 0. -1.
        -11    1    3    3    0    0 -0.19834416350E+03 -0.17810113562E+03 -0.17963334123E+03  0.32144759912E+03  0.00000000000E+00 0.  1.
         22    1    1    2    0    0  0.45303225962E+03  0.50344531414E+03 -0.15031113251E+03  0.69374984623E+03  0.00000000000E+00 0. -1.
<mgrwt>
<rscale>  0 0.14101326E+04</rscale>
<asrwt>0</asrwt>
<pdfrwt beam="1">  1        2 0.17713309E+00 0.14101326E+04</pdfrwt>
<pdfrwt beam="2">  1       -2 0.66425294E-01 0.14101326E+04</pdfrwt>
<totfact> 0.41063143E+01</totfact>
</mgrwt>
</event>
<event>
 6    1  0.5196787E-004  0.3288776E+04  0.7818608E-02  0.8165757E-01
          2   -1    0    0  501    0  0.00000000000E+00  0.00000000000E+00  0.26172729961E+04  0.26172729961E+04  0.00000000000E+00 0.  1.
         -2   -1    0    0    0  501 -0.00000000000E+00 -0.00000000000E+00 -0.10331406411E+04  0.10331406411E+04  0.00000000000E+00 0. -1.
         23    2    1    2    0    0 -0.31064487690E+03 -0.15985216151E+04  0.54917154683E+03  0.17209278332E+04  0.90728306950E+02 0.  0.
         11    1    3    3    0    0 -0.27672221973E+03 -0.15258046748E+04  0.52048226599E+03  0.16357129583E+04  0.00000000000E+00 0.  1.
        -11    1    3    3    0    0 -0.33922657173E+02 -0.72716940272E+02  0.28689280836E+02  0.85214874917E+02  0.00000000000E+00 0. -1.
         22    1    1    2    0    0  0.31064487690E+03  0.15985216151E+04  0.10349608082E+04  0.19294858040E+04  0.00000000000E+00 0. -1.
<mgrwt>
<rscale>  0 0.32887755E+04</rscale>
<asrwt>0</asrwt>
<pdfrwt beam="1">  1        2 0.40265738E+00 0.32887755E+04</pdfrwt>
<pdfrwt beam="2">  1       -2 0.15894472E+00 0.32887755E+04</pdfrwt>
<totfact> 0.63720720E-01</totfact>
</mgrwt>
</event>
<event>
 6    1  0.5196787E-004  0.5092994E+04  0.7818608E-02  0.7814320E-01
         -2   -1    0    0    0  501 -0.00000000000E+00  0.00000000000E+00  0.16110614030E+04  0.16110614030E+04  0.00000000000E+00 0. -1.
          2   -1    0    0  501    0  0.00000000000E+00 -0.00000000000E+00 -0.40250781182E+04  0.40250781182E+04  0.00000000000E+00 0.  1.
         23    2    1    2    0    0  0.17264205496E+04 -0.29848813217E+03  0.83637254842E+03  0.19436263602E+04  0.92419203067E+02 0.  0.
         13    1    3    3    0    0  0.14629586795E+04 -0.28382100368E+03  0.69627396983E+03  0.16448707856E+04  0.00000000000E+00 0. -1.
        -13    1    3    3    0    0  0.26346187009E+03 -0.14667128491E+02  0.14009857859E+03  0.29875557463E+03  0.00000000000E+00 0.  1.
         22    1    1    2    0    0 -0.17264205496E+04  0.29848813217E+03 -0.32503892636E+04  0.36925131610E+04  0.00000000000E+00 0.  1.
<mgrwt>
<rscale>  0 0.50929944E+04</rscale>
<asrwt>0</asrwt>
<pdfrwt beam="1">  1        2 0.61924278E+00 0.50929944E+04</pdfrwt>
<pdfrwt beam="2">  1       -2 0.24785560E+00 0.50929944E+04</pdfrwt>
<totfact> 0.15550606E-02</totfact>
</mgrwt>
</event>
<event>
 6    1  0.5196787E-004  0.3290107E+04  0.7818608E-02  0.8165417E-01
          2   -1    0    0  501    0  0.00000000000E+00  0.00000000000E+00  0.12503977954E+04  0.12503977954E+04  0.00000000000E+00 0.  1.
         -2   -1    0    0    0  501 -0.00000000000E+00 -0.00000000000E+00 -0.21642721285E+04  0.21642721285E+04  0.00000000000E+00 0. -1.
         23    2    1    2    0    0 -0.32632406483E+03  0.10952561817E+04  0.76902215023E+03  0.13804098440E+04  0.89792933054E+02 0.  0.
         11    1    3    3    0    0 -0.21013782718E+03  0.59616598105E+03  0.46309979741E+03  0.78360270911E+03  0.00000000000E+00 0.  1.
        -11    1    3    3    0    0 -0.11618623765E+03  0.49909020069E+03  0.30592235282E+03  0.59680713484E+03  0.00000000000E+00 0. -1.
         22    1    1    2    0    0  0.32632406483E+03 -0.10952561817E+04 -0.16828964834E+04  0.20342600799E+04  0.00000000000E+00 0. -1.
<mgrwt>
<rscale>  0 0.32901070E+04</rscale>
<asrwt>0</asrwt>
<pdfrwt beam="1">  1        2 0.19236889E+00 0.32901070E+04</pdfrwt>
<pdfrwt beam="2">  1       -2 0.33296494E+00 0.32901070E+04</pdfrwt>
<totfact> 0.29389744E-01</totfact>
</mgrwt>
</event>
<event>
 6    1  0.5196787E-004  0.2712040E+04  0.7818608E-02  0.8331109E-01
         -2   -1    0    0    0  501 -0.00000000000E+00  0.00000000000E+00  0.14206672716E+04  0.14206672716E+04  0.00000000000E+00 0. -1.
          2   -1    0    0  501    0  0.00000000000E+00 -0.00000000000E+00 -0.12943144333E+04  0.12943144333E+04  0.00000000000E+00 0.  1.
         23    2    1    2    0    0  0.12204792364E+04 -0.20578583519E+03  0.61336860257E+03  0.13849058683E+04  0.99125399769E+02 0.  0.
         13    1    3    3    0    0  0.24147045415E+03 -0.79204884878E+02  0.13956440595E+03  0.28993036651E+03  0.00000000000E+00 0.  1.
        -13    1    3    3    0    0  0.97900878226E+03 -0.12658095031E+03  0.47380419662E+03  0.10949755018E+04  0.00000000000E+00 0. -1.
         22    1    1    2    0    0 -0.12204792364E+04  0.20578583519E+03 -0.48701576430E+03  0.13300758366E+04  0.00000000000E+00 0. -1.
<mgrwt>
<rscale>  0 0.27120399E+04</rscale>
<asrwt>0</asrwt>
<pdfrwt beam="1">  1        2 0.19912530E+00 0.27120399E+04</pdfrwt>
<pdfrwt beam="2">  1       -2 0.21856420E+00 0.27120399E+04</pdfrwt>
<totfact> 0.14736228E+00</totfact>
</mgrwt>
</event>
<event>
 6    1  0.5196787E-004  0.3037109E+04  0.7818608E-02  0.8233213E-01
         -2   -1    0    0    0  501 -0.00000000000E+00  0.00000000000E+00  0.14143157318E+04  0.14143157318E+04  0.00000000000E+00 0. -1.
          2   -1    0    0  501    0  0.00000000000E+00 -0.00000000000E+00 -0.16304758662E+04  0.16304758662E+04  0.00000000000E+00 0.  1.
         23    2    1    2    0    0 -0.14099037960E+04  0.33050009673E+03 -0.56158456547E+03  0.15560414291E+04  0.93961038591E+02 0.  0.
         13    1    3    3    0    0 -0.61343669330E+03  0.19016880011E+03 -0.23590564678E+03  0.68419311851E+03  0.00000000000E+00 0. -1.
        -13    1    3    3    0    0 -0.79646710273E+03  0.14033129662E+03 -0.32567891869E+03  0.87184831056E+03  0.00000000000E+00 0.  1.
         22    1    1    2    0    0  0.14099037960E+04 -0.33050009673E+03  0.34542443102E+03  0.14887501690E+04  0.00000000000E+00 0.  1.
<mgrwt>
<rscale>  0 0.30371089E+04</rscale>
<asrwt>0</asrwt>
<pdfrwt beam="1">  1        2 0.25084244E+00 0.30371089E+04</pdfrwt>
<pdfrwt beam="2">  1       -2 0.21758704E+00 0.30371089E+04</pdfrwt>
<totfact> 0.93700016E-01</totfact>
</mgrwt>
</event>
<event>
 6    1  0.5196787E-004  0.2601262E+04  0.7818608E-02  0.8367773E-01
         -2   -1    0    0    0  501 -0.00000000000E+00  0.00000000000E+00  0.69973205995E+03  0.69973205995E+03  0.00000000000E+00 0. -1.
          2   -1    0    0  501    0  0.00000000000E+00 -0.00000000000E+00 -0.24175544877E+04  0.24175544877E+04  0.00000000000E+00 0.  1.
         23    2    1    2    0    0  0.53200609458E+03 -0.33814112292E+03  0.50084693370E+03  0.81080358887E+03  0.95837910252E+02 0.  0.
         11    1    3    3    0    0  0.40651881436E+03 -0.20843758093E+03  0.37018917369E+03  0.58799982644E+03  0.00000000000E+00 0. -1.
        -11    1    3    3    0    0  0.12548728022E+03 -0.12970354199E+03  0.13065776001E+03  0.22280376243E+03  0.00000000000E+00 0.  1.
         22    1    1    2    0    0 -0.53200609458E+03  0.33814112292E+03 -0.22186693615E+04  0.23064829588E+04  0.00000000000E+00 0.  1.
<mgrwt>
<rscale>  0 0.26012615E+04</rscale>
<asrwt>0</asrwt>
<pdfrwt beam="1">  1        2 0.37193146E+00 0.26012615E+04</pdfrwt>
<pdfrwt beam="2">  1       -2 0.10765109E+00 0.26012615E+04</pdfrwt>
<totfact> 0.23777417E+00</totfact>
</mgrwt>
</event>
<event>
 6    1  0.5196787E-004  0.3493311E+04  0.7818608E-02  0.8115377E-01
         -2   -1    0    0    0  501 -0.00000000000E+00  0.00000000000E+00  0.14689607407E+04  0.14689607407E+04  0.00000000000E+00 0. -1.
          2   -1    0    0  501    0  0.00000000000E+00 -0.00000000000E+00 -0.20768460202E+04  0.20768460202E+04  0.00000000000E+00 0.  1.
         23    2    1    2    0    0  0.16044674613E+04  0.47507529990E+03  0.20028131479E+03  0.16875426196E+04  0.87607722201E+02 0.  0.
         11    1    3    3    0    0  0.65975072212E+03  0.16819409717E+03  0.46975179563E+02  0.68247119877E+03  0.00000000000E+00 0.  1.
        -11    1    3    3    0    0  0.94471673915E+03  0.30688120273E+03  0.15330613523E+03  0.10050714208E+04  0.00000000000E+00 0. -1.
         22    1    1    2    0    0 -0.16044674613E+04 -0.47507529990E+03 -0.80816659427E+03  0.18582641413E+04  0.00000000000E+00 0.  1.
<mgrwt>
<rscale>  0 0.34933109E+04</rscale>
<asrwt>0</asrwt>
<pdfrwt beam="1">  1        2 0.31951477E+00 0.34933109E+04</pdfrwt>
<pdfrwt beam="2">  1       -2 0.22599396E+00 0.34933109E+04</pdfrwt>
<totfact> 0.45089818E-01</totfact>
</mgrwt>
</event>
<event>
 6    1  0.5196787E-004  0.6872456E+03  0.7818608E-02  0.9739296E-01
         -2   -1    0    0    0  501 -0.00000000000E+00  0.00000000000E+00  0.34345071166E+02  0.34345071166E+02  0.00000000000E+00 0. -1.
          2   -1    0    0  501    0  0.00000000000E+00 -0.00000000000E+00 -0.34379494593E+04  0.34379494593E+04  0.00000000000E+00 0.  1.
         23    2    1    2    0    0  0.14566661957E+03 -0.63069152247E+02 -0.32374033963E+04  0.32424701373E+04  0.87380540008E+02 0.  0.
         13    1    3    3    0    0  0.74863024575E+02 -0.19836216001E+00 -0.20213454855E+04  0.20227313424E+04  0.00000000000E+00 0. -1.
        -13    1    3    3    0    0  0.70803594994E+02 -0.62870790087E+02 -0.12160579108E+04  0.12197387949E+04  0.00000000000E+00 0.  1.
         22    1    1    2    0    0 -0.14566661957E+03  0.63069152247E+02 -0.16620099188E+03  0.22982439323E+03  0.00000000000E+00 0. -1.
<mgrwt>
<rscale>  0 0.68724557E+03</rscale>
<asrwt>0</asrwt>
<pdfrwt beam="1">  1        2 0.52891526E+00 0.68724557E+03</pdfrwt>
<pdfrwt beam="2">  1       -2 0.52838575E-02 0.68724557E+03</pdfrwt>
<totfact> 0.18411481E+02</totfact>
</mgrwt>
</event>
<event>
 6    1  0.5196787E-004  0.1709514E+04  0.7818608E-02  0.8755957E-01
          2   -1    0    0  501    0  0.00000000000E+00  0.00000000000E+00  0.93875442461E+03  0.93875442461E+03  0.00000000000E+00 0.  1.
         -2   -1    0    0    0  501 -0.00000000000E+00 -0.00000000000E+00 -0.77827500257E+03  0.77827500257E+03  0.00000000000E+00 0. -1.
         23    2    1    2    0    0  0.28517854064E+03  0.62330860130E+03  0.58930858022E+03  0.90849070862E+03  0.90721289825E+02 0.  0.
         11    1    3    3    0    0  0.10899437478E+03  0.34393420695E+03  0.32200059947E+03  0.48358546143E+03  0.00000000000E+00 0.  1.
        -11    1    3    3    0    0  0.17618416586E+03  0.27937439435E+03  0.26730798075E+03  0.42490524719E+03  0.00000000000E+00 0. -1.
         22    1    1    2    0    0 -0.28517854064E+03 -0.62330860130E+03 -0.42882915818E+03  0.80853871855E+03  0.00000000000E+00 0. -1.
<mgrwt>
<rscale>  0 0.17095135E+04</rscale>
<asrwt>0</asrwt>
<pdfrwt beam="1">  1        2 0.14442376E+00 0.17095135E+04</pdfrwt>
<pdfrwt beam="2">  1       -2 0.11973462E+00 0.17095135E+04</pdfrwt>
<totfact> 0.14022154E+01</totfact>
</mgrwt>
</event>
<event>
 6    1  0.5196787E-004  0.3579295E+04  0.7818608E-02  0.8095251E-01
         -2   -1    0    0    0  501 -0.00000000000E+00  0.00000000000E+00  0.12017568965E+04  0.12017568965E+04  0.00000000000E+00 0.  1.
          2   -1    0    0  501    0  0.00000000000E+00 -0.00000000000E+00 -0.26651291908E+04  0.26651291908E+04  0.00000000000E+00 0. -1.
         23    2    1    2    0    0 -0.12814854669E+02 -0.73200965036E+03 -0.24950552607E+04  0.26018279495E+04  0.90584636143E+02 0.  0.
         11    1    3    3    0    0 -0.46971563706E+02 -0.24300468038E+03 -0.83244134491E+03  0.86845621375E+03  0.00000000000E+00 0.  1.
        -11    1    3    3    0    0  0.34156709036E+02 -0.48900496998E+03 -0.16626139158E+04  0.17333717358E+04  0.00000000000E+00 0. -1.
         22    1    1    2    0    0  0.12814854669E+02  0.73200965036E+03  0.10316829665E+04  0.12650581378E+04  0.00000000000E+00 0.  1.
<mgrwt>
<rscale>  0 0.35792946E+04</rscale>
<asrwt>0</asrwt>
<pdfrwt beam="1">  1        2 0.41001987E+00 0.35792946E+04</pdfrwt>
<pdfrwt beam="2">  1       -2 0.18488568E+00 0.35792946E+04</pdfrwt>
<totfact> 0.38160687E-01</totfact>
</mgrwt>
</event>
<event>
 6    1  0.5196787E-004  0.4099801E+04  0.7818608E-02  0.7984711E-01
         -2   -1    0    0    0  501 -0.00000000000E+00  0.00000000000E+00  0.21729444462E+04  0.21729444462E+04  0.00000000000E+00 0. -1.
          2   -1    0    0  501    0  0.00000000000E+00 -0.00000000000E+00 -0.19338237054E+04  0.19338237054E+04  0.00000000000E+00 0.  1.
         23    2    1    2    0    0 -0.87944038071E+03 -0.19087250384E+03  0.19633730561E+04  0.21618018941E+04  0.93305819994E+02 0.  0.
         13    1    3    3    0    0 -0.86700644257E+03 -0.19670207052E+03  0.19473949574E+04  0.21407332847E+04  0.00000000000E+00 0.  1.
        -13    1    3    3    0    0 -0.12433938141E+02  0.58295666857E+01  0.15978098642E+02  0.21068609391E+02  0.00000000000E+00 0. -1.
         22    1    1    2    0    0  0.87944038071E+03  0.19087250384E+03 -0.17242523153E+04  0.19449662575E+04  0.00000000000E+00 0.  1.
<mgrwt>
<rscale>  0 0.40998007E+04</rscale>
<asrwt>0</asrwt>
<pdfrwt beam="1">  1        2 0.29751134E+00 0.40998007E+04</pdfrwt>
<pdfrwt beam="2">  1       -2 0.33429914E+00 0.40998007E+04</pdfrwt>
<totfact> 0.11105839E-01</totfact>
</mgrwt>
</event>
<event>
 6    1  0.5196787E-004  0.1439409E+04  0.7818608E-02  0.8925776E-01
         -2   -1    0    0    0  501 -0.00000000000E+00  0.00000000000E+00  0.48876732547E+03  0.48876732547E+03  0.00000000000E+00 0. -1.
          2   -1    0    0  501    0  0.00000000000E+00 -0.00000000000E+00 -0.10597570536E+04  0.10597570536E+04  0.00000000000E+00 0.  1.
         23    2    1    2    0    0 -0.19633406546E+03 -0.50567550338E+03 -0.79017861121E+03  0.96346152223E+03  0.98087140982E+02 0.  0.
         13    1    3    3    0    0 -0.63392262052E+02 -0.17797136354E+03 -0.19762275801E+03  0.27339923118E+03  0.00000000000E+00 0.  1.
        -13    1    3    3    0    0 -0.13294180341E+03 -0.32770413984E+03 -0.59255585321E+03  0.69006229105E+03  0.00000000000E+00 0. -1.
         22    1    1    2    0    0  0.19633406546E+03  0.50567550338E+03  0.21918888308E+03  0.58506285683E+03  0.00000000000E+00 0. -1.
<mgrwt>
<rscale>  0 0.14394091E+04</rscale>
<asrwt>0</asrwt>
<pdfrwt beam="1">  1        2 0.16303955E+00 0.14394091E+04</pdfrwt>
<pdfrwt beam="2">  1       -2 0.75194973E-01 0.14394091E+04</pdfrwt>
<totfact> 0.35570210E+01</totfact>
</mgrwt>
</event>
<event>
 6    1  0.5196787E-004  0.3515085E+04  0.7818608E-02  0.8110224E-01
         -2   -1    0    0    0  501 -0.00000000000E+00  0.00000000000E+00  0.25512788293E+04  0.25512788293E+04  0.00000000000E+00 0.  1.
          2   -1    0    0  501    0  0.00000000000E+00 -0.00000000000E+00 -0.12107478856E+04  0.12107478856E+04  0.00000000000E+00 0. -1.
         23    2    1    2    0    0 -0.13028235006E+04 -0.11548682332E+04  0.42232499540E+03  0.17937351021E+04  0.89763606171E+02 0.  0.
         13    1    3    3    0    0 -0.10443425630E+04 -0.96218754617E+03  0.32172346605E+03  0.14560090149E+04  0.00000000000E+00 0. -1.
        -13    1    3    3    0    0 -0.25848093761E+03 -0.19268068700E+03  0.10060152935E+03  0.33772608717E+03  0.00000000000E+00 0.  1.
         22    1    1    2    0    0  0.13028235006E+04  0.11548682332E+04  0.91820594834E+03  0.19682916129E+04  0.00000000000E+00 0.  1.
<mgrwt>
<rscale>  0 0.35150849E+04</rscale>
<asrwt>0</asrwt>
<pdfrwt beam="1">  1        2 0.18626891E+00 0.35150849E+04</pdfrwt>
<pdfrwt beam="2">  1       -2 0.39250443E+00 0.35150849E+04</pdfrwt>
<totfact> 0.12714065E-01</totfact>
</mgrwt>
</event>
<event>
 6    1  0.5196787E-004  0.3741681E+04  0.7818608E-02  0.8058787E-01
          2   -1    0    0  501    0  0.00000000000E+00  0.00000000000E+00  0.25768786188E+04  0.25768786188E+04  0.00000000000E+00 0.  1.
         -2   -1    0    0    0  501 -0.00000000000E+00 -0.00000000000E+00 -0.13582498727E+04  0.13582498727E+04  0.00000000000E+00 0. -1.
         23    2    1    2    0    0  0.81445364784E+03 -0.16828759642E+04  0.63006026656E+03  0.19750725968E+04  0.92355657802E+02 0.  0.
         11    1    3    3    0    0  0.44772128988E+03 -0.95181385605E+03  0.30760388750E+03  0.10959124607E+04  0.00000000000E+00 0. -1.
        -11    1    3    3    0    0  0.36673235796E+03 -0.73106210816E+03  0.32245637907E+03  0.87916013602E+03  0.00000000000E+00 0.  1.
         22    1    1    2    0    0 -0.81445364784E+03  0.16828759642E+04  0.58856847952E+03  0.19600558947E+04  0.00000000000E+00 0.  1.
<mgrwt>
<rscale>  0 0.37416815E+04</rscale>
<asrwt>0</asrwt>
<pdfrwt beam="1">  1        2 0.39644286E+00 0.37416815E+04</pdfrwt>
<pdfrwt beam="2">  1       -2 0.20896152E+00 0.37416815E+04</pdfrwt>
<totfact> 0.29412455E-01</totfact>
</mgrwt>
</event>
<event>
 6    1  0.5196787E-004  0.2093392E+04  0.7818608E-02  0.8564160E-01
         -2   -1    0    0    0  501 -0.00000000000E+00  0.00000000000E+00  0.12700957557E+04  0.12700957557E+04  0.00000000000E+00 0. -1.
          2   -1    0    0  501    0  0.00000000000E+00 -0.00000000000E+00 -0.86259079142E+03  0.86259079142E+03  0.00000000000E+00 0.  1.
         23    2    1    2    0    0  0.92822411020E+03 -0.16749127305E+03  0.66166498592E+03  0.11558290130E+04  0.92123983818E+02 0.  0.
         11    1    3    3    0    0  0.50388603843E+03 -0.10117967389E+03  0.41476528631E+03  0.66043069951E+03  0.00000000000E+00 0. -1.
        -11    1    3    3    0    0  0.42433807177E+03 -0.66311599157E+02  0.24689969961E+03  0.49539831349E+03  0.00000000000E+00 0.  1.
         22    1    1    2    0    0 -0.92822411020E+03  0.16749127305E+03 -0.25416002166E+03  0.97685753409E+03  0.00000000000E+00 0.  1.
<mgrwt>
<rscale>  0 0.20933924E+04</rscale>
<asrwt>0</asrwt>
<pdfrwt beam="1">  1        2 0.13270628E+00 0.20933924E+04</pdfrwt>
<pdfrwt beam="2">  1       -2 0.19539935E+00 0.20933924E+04</pdfrwt>
<totfact> 0.40892976E+00</totfact>
</mgrwt>
</event>
<event>
 6    1  0.5196787E-004  0.3639061E+04  0.7818608E-02  0.8081602E-01
          2   -1    0    0  501    0  0.00000000000E+00  0.00000000000E+00  0.37404683199E+04  0.37404683199E+04  0.00000000000E+00 0.  1.
         -2   -1    0    0    0  501 -0.00000000000E+00 -0.00000000000E+00 -0.88510093433E+03  0.88510093433E+03  0.00000000000E+00 0. -1.
         23    2    1    2    0    0  0.52649201023E+03 -0.17129227740E+04  0.18165853074E+04  0.25542492711E+04  0.11361731161E+03 0.  0.
         13    1    3    3    0    0  0.40126779291E+03 -0.11356920601E+04  0.12456899548E+04  0.17327884350E+04  0.00000000000E+00 0.  1.
        -13    1    3    3    0    0  0.12522421732E+03 -0.57723071386E+03  0.57089535259E+03  0.82146083609E+03  0.00000000000E+00 0. -1.
         22    1    1    2    0    0 -0.52649201023E+03  0.17129227740E+04  0.10387820782E+04  0.20713199831E+04  0.00000000000E+00 0.  1.
<mgrwt>
<rscale>  0 0.36390614E+04</rscale>
<asrwt>0</asrwt>
<pdfrwt beam="1">  1        2 0.57545666E+00 0.36390614E+04</pdfrwt>
<pdfrwt beam="2">  1       -2 0.13616938E+00 0.36390614E+04</pdfrwt>
<totfact> 0.17036042E-01</totfact>
</mgrwt>
</event>
<event>
 6    1  0.5196787E-004  0.6800704E+03  0.7818608E-02  0.9751935E-01
         -2   -1    0    0    0  501 -0.00000000000E+00  0.00000000000E+00  0.22054853693E+03  0.22054853693E+03  0.00000000000E+00 0.  1.
          2   -1    0    0  501    0  0.00000000000E+00 -0.00000000000E+00 -0.52425614620E+03  0.52425614620E+03  0.00000000000E+00 0. -1.
         23    2    1    2    0    0 -0.22475030319E+03  0.55217228636E+02  0.10877502899E+03  0.27183156763E+03  0.92188682091E+02 0.  0.
         11    1    3    3    0    0 -0.11071305266E+03  0.68717612286E+02  0.33559142724E+02  0.13455744620E+03  0.00000000000E+00 0. -1.
        -11    1    3    3    0    0 -0.11403725054E+03 -0.13500383650E+02  0.75215886270E+02  0.13727412144E+03  0.00000000000E+00 0.  1.
         22    1    1    2    0    0  0.22475030319E+03 -0.55217228636E+02 -0.41248263826E+03  0.47297311551E+03  0.00000000000E+00 0. -1.
<mgrwt>
<rscale>  0 0.68007037E+03</rscale>
<asrwt>0</asrwt>
<pdfrwt beam="1">  1        2 0.80654791E-01 0.68007037E+03</pdfrwt>
<pdfrwt beam="2">  1       -2 0.33930545E-01 0.68007037E+03</pdfrwt>
<totfact> 0.47686197E+02</totfact>
</mgrwt>
</event>
<event>
 6    1  0.5196787E-004  0.4308938E+04  0.7818608E-02  0.7944967E-01
          2   -1    0    0  501    0  0.00000000000E+00  0.00000000000E+00  0.35975692562E+04  0.35975692562E+04  0.00000000000E+00 0. -1.
         -2   -1    0    0    0  501 -0.00000000000E+00 -0.00000000000E+00 -0.12902425704E+04  0.12902425704E+04  0.00000000000E+00 0.  1.
         23    2    1    2    0    0 -0.16829008873E+04 -0.64334415622E+03  0.24922439059E+04  0.30766681331E+04  0.92520349698E+02 0.  0.
         13    1    3    3    0    0 -0.12800291203E+04 -0.48856154237E+03  0.18261683913E+04  0.22829931937E+04  0.00000000000E+00 0. -1.
        -13    1    3    3    0    0 -0.40287176707E+03 -0.15478261385E+03  0.66607551460E+03  0.79367493938E+03  0.00000000000E+00 0.  1.
         22    1    1    2    0    0  0.16829008873E+04  0.64334415622E+03 -0.18491722004E+03  0.18111436934E+04  0.00000000000E+00 0.  1.
<mgrwt>
<rscale>  0 0.43089382E+04</rscale>
<asrwt>0</asrwt>
<pdfrwt beam="1">  1        2 0.55347219E+00 0.43089382E+04</pdfrwt>
<pdfrwt beam="2">  1       -2 0.19849886E+00 0.43089382E+04</pdfrwt>
<totfact> 0.72412212E-02</totfact>
</mgrwt>
</event>
<event>
 6    1  0.5196787E-004  0.9936347E+03  0.7818608E-02  0.9315554E-01
         -2   -1    0    0    0  501 -0.00000000000E+00  0.00000000000E+00  0.17823770690E+03  0.17823770690E+03  0.00000000000E+00 0. -1.
          2   -1    0    0  501    0  0.00000000000E+00 -0.00000000000E+00 -0.13848217856E+04  0.13848217856E+04  0.00000000000E+00 0.  1.
         23    2    1    2    0    0 -0.32374761448E+03 -0.36223916212E+03 -0.48650230895E+03  0.69441256562E+03  0.97440167446E+02 0.  0.
         13    1    3    3    0    0 -0.19212003931E+03 -0.25530085265E+03 -0.36890983658E+03  0.48804006229E+03  0.00000000000E+00 0.  1.
        -13    1    3    3    0    0 -0.13162757517E+03 -0.10693830946E+03 -0.11759247236E+03  0.20637250334E+03  0.00000000000E+00 0. -1.
         22    1    1    2    0    0  0.32374761448E+03  0.36223916212E+03 -0.72008176980E+03  0.86864692692E+03  0.00000000000E+00 0.  1.
<mgrwt>
<rscale>  0 0.99363466E+03</rscale>
<asrwt>0</asrwt>
<pdfrwt beam="1">  1        2 0.21304950E+00 0.99363466E+03</pdfrwt>
<pdfrwt beam="2">  1       -2 0.27421186E-01 0.99363466E+03</pdfrwt>
<totfact> 0.17840881E+02</totfact>
</mgrwt>
</event>
<event>
 6    1  0.5196787E-004  0.1862122E+04  0.7818608E-02  0.8673944E-01
         -2   -1    0    0    0  501 -0.00000000000E+00  0.00000000000E+00  0.92620294484E+03  0.92620294484E+03  0.00000000000E+00 0. -1.
          2   -1    0    0  501    0  0.00000000000E+00 -0.00000000000E+00 -0.93594461594E+03  0.93594461594E+03  0.00000000000E+00 0.  1.
         23    2    1    2    0    0  0.11141766362E+03  0.61221343461E+03 -0.69433112721E+03  0.93700870164E+03  0.93115022701E+02 0.  0.
         11    1    3    3    0    0  0.16816939299E+02  0.31160542497E+03 -0.38276406290E+03  0.49385127130E+03  0.00000000000E+00 0.  1.
        -11    1    3    3    0    0  0.94600724321E+02  0.30060800964E+03 -0.31156706431E+03  0.44315743034E+03  0.00000000000E+00 0. -1.
         22    1    1    2    0    0 -0.11141766362E+03 -0.61221343461E+03  0.68458945611E+03  0.92513885915E+03  0.00000000000E+00 0. -1.
<mgrwt>
<rscale>  0 0.18621221E+04</rscale>
<asrwt>0</asrwt>
<pdfrwt beam="1">  1        2 0.14399148E+00 0.18621221E+04</pdfrwt>
<pdfrwt beam="2">  1       -2 0.14249276E+00 0.18621221E+04</pdfrwt>
<totfact> 0.89363879E+00</totfact>
</mgrwt>
</event>
<event>
 6    1  0.5196787E-004  0.3733820E+03  0.7818608E-02  0.1053407E+00
         -2   -1    0    0    0  501 -0.00000000000E+00  0.00000000000E+00  0.48544440383E+02  0.48544440383E+02  0.00000000000E+00 0. -1.
          2   -1    0    0  501    0  0.00000000000E+00 -0.00000000000E+00 -0.71797175522E+03  0.71797175522E+03  0.00000000000E+00 0.  1.
         23    2    1    2    0    0 -0.78669822622E+02 -0.13856933042E+03 -0.50447047023E+03  0.53716676590E+03  0.93098220857E+02 0.  0.
         11    1    3    3    0    0 -0.23707450281E+02 -0.42876950921E+01 -0.18161775336E+03  0.18320872213E+03  0.00000000000E+00 0. -1.
        -11    1    3    3    0    0 -0.54962372341E+02 -0.13428163533E+03 -0.32285271687E+03  0.35395804377E+03  0.00000000000E+00 0.  1.
         22    1    1    2    0    0  0.78669822622E+02  0.13856933042E+03 -0.16495684461E+03  0.22934942971E+03  0.00000000000E+00 0. -1.
<mgrwt>
<rscale>  0 0.37338204E+03</rscale>
<asrwt>0</asrwt>
<pdfrwt beam="1">  1        2 0.11045719E+00 0.37338204E+03</pdfrwt>
<pdfrwt beam="2">  1       -2 0.74683757E-02 0.37338204E+03</pdfrwt>
<totfact> 0.43032571E+03</totfact>
</mgrwt>
</event>
<event>
 6    1  0.5196787E-004  0.1445450E+04  0.7818608E-02  0.8921561E-01
          2   -1    0    0  501    0  0.00000000000E+00  0.00000000000E+00  0.27892752423E+04  0.27892752423E+04  0.00000000000E+00 0.  1.
         -2   -1    0    0    0  501 -0.00000000000E+00 -0.00000000000E+00 -0.18726430755E+03  0.18726430755E+03  0.00000000000E+00 0. -1.
         23    2    1    2    0    0 -0.53279075165E+03 -0.22127148884E+03  0.21924962879E+04  0.22690585941E+04  0.93594198665E+02 0.  0.
         11    1    3    3    0    0 -0.18014451095E+03 -0.77011711080E+02  0.92568776235E+03  0.94619272975E+03  0.00000000000E+00 0. -1.
        -11    1    3    3    0    0 -0.35264624070E+03 -0.14425977776E+03  0.12668085256E+04  0.13228658643E+04  0.00000000000E+00 0.  1.
         22    1    1    2    0    0  0.53279075165E+03  0.22127148884E+03  0.40951464683E+03  0.70748095577E+03  0.00000000000E+00 0. -1.
<mgrwt>
<rscale>  0 0.14454504E+04</rscale>
<asrwt>0</asrwt>
<pdfrwt beam="1">  1        2 0.42911924E+00 0.14454504E+04</pdfrwt>
<pdfrwt beam="2">  1       -2 0.28809895E-01 0.14454504E+04</pdfrwt>
<totfact> 0.25326625E+01</totfact>
</mgrwt>
</event>
<event>
 6    1  0.5196787E-004  0.1169612E+04  0.7818608E-02  0.9139879E-01
          2   -1    0    0  501    0  0.00000000000E+00  0.00000000000E+00  0.23621198975E+04  0.23621198975E+04  0.00000000000E+00 0.  1.
         -2   -1    0    0    0  501 -0.00000000000E+00 -0.00000000000E+00 -0.14478446413E+03  0.14478446413E+03  0.00000000000E+00 0. -1.
         23    2    1    2    0    0 -0.26988509679E+03  0.11616655633E+03  0.21906490536E+04  0.22118708090E+04  0.84241114321E+02 0.  0.
         11    1    3    3    0    0 -0.18003189951E+03  0.32666677193E+02  0.12965141245E+04  0.13093614748E+04  0.00000000000E+00 0.  1.
        -11    1    3    3    0    0 -0.89853197271E+02  0.83499879137E+02  0.89413492918E+03  0.90250933427E+03  0.00000000000E+00 0. -1.
         22    1    1    2    0    0  0.26988509679E+03 -0.11616655633E+03  0.26686379679E+02  0.29503355256E+03  0.00000000000E+00 0. -1.
<mgrwt>
<rscale>  0 0.11696124E+04</rscale>
<asrwt>0</asrwt>
<pdfrwt beam="1">  1        2 0.36340303E+00 0.11696124E+04</pdfrwt>
<pdfrwt beam="2">  1       -2 0.22274535E-01 0.11696124E+04</pdfrwt>
<totfact> 0.73346034E+01</totfact>
</mgrwt>
</event>
<event>
 6    1  0.5196787E-004  0.1007637E+04  0.7818608E-02  0.9300208E-01
         -2   -1    0    0    0  501 -0.00000000000E+00  0.00000000000E+00  0.26615083704E+03  0.26615083704E+03  0.00000000000E+00 0. -1.
          2   -1    0    0  501    0  0.00000000000E+00 -0.00000000000E+00 -0.95371845557E+03  0.95371845557E+03  0.00000000000E+00 0.  1.
         23    2    1    2    0    0  0.58388729694E+02  0.47699829347E+03 -0.51265787693E+03  0.70846922080E+03  0.90409746803E+02 0.  0.
         13    1    3    3    0    0  0.70332393884E+02  0.24905992230E+03 -0.30372550563E+03  0.39903217075E+03  0.00000000000E+00 0. -1.
        -13    1    3    3    0    0 -0.11943664190E+02  0.22793837117E+03 -0.20893237130E+03  0.30943705005E+03  0.00000000000E+00 0.  1.
         22    1    1    2    0    0 -0.58388729694E+02 -0.47699829347E+03 -0.17490974161E+03  0.51140007180E+03  0.00000000000E+00 0. -1.
<mgrwt>
<rscale>  0 0.10076368E+04</rscale>
<asrwt>0</asrwt>
<pdfrwt beam="1">  1        2 0.14672592E+00 0.10076368E+04</pdfrwt>
<pdfrwt beam="2">  1       -2 0.40946283E-01 0.10076368E+04</pdfrwt>
<totfact> 0.15207589E+02</totfact>
</mgrwt>
</event>
<event>
 6    1  0.5196787E-004  0.2250592E+04  0.7818608E-02  0.8497661E-01
          2   -1    0    0  501    0  0.00000000000E+00  0.00000000000E+00  0.96181623163E+03  0.96181623163E+03  0.00000000000E+00 0. -1.
         -2   -1    0    0    0  501 -0.00000000000E+00 -0.00000000000E+00 -0.13165622983E+04  0.13165622983E+04  0.00000000000E+00 0.  1.
         23    2    1    2    0    0 -0.14091096913E+03  0.10926265071E+04 -0.40025911355E+03  0.11757634463E+04  0.92324094951E+02 0.  0.
         11    1    3    3    0    0 -0.40795373164E+02  0.21181889924E+03 -0.11540393688E+03  0.24464173233E+03  0.00000000000E+00 0. -1.
        -11    1    3    3    0    0 -0.10011559597E+03  0.88080760783E+03 -0.28485517666E+03  0.93112171398E+03  0.00000000000E+00 0.  1.
         22    1    1    2    0    0  0.14091096913E+03 -0.10926265071E+04  0.45513046888E+02  0.11026150836E+04  0.00000000000E+00 0.  1.
<mgrwt>
<rscale>  0 0.22505919E+04</rscale>
<asrwt>0</asrwt>
<pdfrwt beam="1">  1        2 0.14797173E+00 0.22505919E+04</pdfrwt>
<pdfrwt beam="2">  1       -2 0.20254804E+00 0.22505919E+04</pdfrwt>
<totfact> 0.31060330E+00</totfact>
</mgrwt>
</event>
<event>
 6    1  0.5196787E-004  0.3526893E+04  0.7818608E-02  0.8107446E-01
          2   -1    0    0  501    0  0.00000000000E+00  0.00000000000E+00  0.18740582929E+04  0.18740582929E+04  0.00000000000E+00 0.  1.
         -2   -1    0    0    0  501 -0.00000000000E+00 -0.00000000000E+00 -0.16593633127E+04  0.16593633127E+04  0.00000000000E+00 0. -1.
         23    2    1    2    0    0  0.69594054211E+03  0.91957880360E+03 -0.12279074662E+04  0.16865160225E+04  0.81370354317E+02 0.  0.
         13    1    3    3    0    0  0.24362820816E+03  0.38282983976E+03 -0.50422904693E+03  0.67835117881E+03  0.00000000000E+00 0. -1.
        -13    1    3    3    0    0  0.45231233395E+03  0.53674896385E+03 -0.72367841924E+03  0.10081648437E+04  0.00000000000E+00 0.  1.
         22    1    1    2    0    0 -0.69594054211E+03 -0.91957880360E+03  0.14426024464E+04  0.18469055830E+04  0.00000000000E+00 0.  1.
<mgrwt>
<rscale>  0 0.35268930E+04</rscale>
<asrwt>0</asrwt>
<pdfrwt beam="1">  1        2 0.28831666E+00 0.35268930E+04</pdfrwt>
<pdfrwt beam="2">  1       -2 0.25528666E+00 0.35268930E+04</pdfrwt>
<totfact> 0.38378990E-01</totfact>
</mgrwt>
</event>
<event>
 6    1  0.5196787E-004  0.4890552E+04  0.7818608E-02  0.7845616E-01
         -2   -1    0    0    0  501 -0.00000000000E+00  0.00000000000E+00  0.26210073526E+04  0.26210073526E+04  0.00000000000E+00 0. -1.
          2   -1    0    0  501    0  0.00000000000E+00 -0.00000000000E+00 -0.22813271328E+04  0.22813271328E+04  0.00000000000E+00 0.  1.
         23    2    1    2    0    0 -0.94211282060E+03 -0.15120418870E+04 -0.15078624295E+04  0.23357684770E+04  0.91203273931E+02 0.  0.
         11    1    3    3    0    0 -0.74807124831E+03 -0.11309134566E+04 -0.11625754134E+04  0.17861011815E+04  0.00000000000E+00 0. -1.
        -11    1    3    3    0    0 -0.19404157229E+03 -0.38112843035E+03 -0.34528701611E+03  0.54966729545E+03  0.00000000000E+00 0.  1.
         22    1    1    2    0    0  0.94211282060E+03  0.15120418870E+04  0.18475426493E+04  0.25665660084E+04  0.00000000000E+00 0. -1.
<mgrwt>
<rscale>  0 0.48905522E+04</rscale>
<asrwt>0</asrwt>
<pdfrwt beam="1">  1        2 0.35097341E+00 0.48905522E+04</pdfrwt>
<pdfrwt beam="2">  1       -2 0.40323190E+00 0.48905522E+04</pdfrwt>
<totfact> 0.24133468E-02</totfact>
</mgrwt>
</event>
<event>
 6    1  0.5196787E-004  0.2017171E+04  0.7818608E-02  0.8598635E-01
         -2   -1    0    0    0  501 -0.00000000000E+00  0.00000000000E+00  0.12399247754E+04  0.12399247754E+04  0.00000000000E+00 0. -1.
          2   -1    0    0  501    0  0.00000000000E+00 -0.00000000000E+00 -0.82040826404E+03  0.82040826404E+03  0.00000000000E+00 0.  1.
         23    2    1    2    0    0  0.14914949631E+02 -0.35546147766E+03 -0.75152777629E+03  0.83643760214E+03  0.90876542180E+02 0.  0.
         11    1    3    3    0    0  0.51259617126E+02 -0.20265124324E+03 -0.46066566060E+03  0.50587342843E+03  0.00000000000E+00 0.  1.
        -11    1    3    3    0    0 -0.36344667495E+02 -0.15281023441E+03 -0.29086211568E+03  0.33056417370E+03  0.00000000000E+00 0. -1.
         22    1    1    2    0    0 -0.14914949631E+02  0.35546147766E+03  0.11710442876E+04  0.12238954373E+04  0.00000000000E+00 0. -1.
<mgrwt>
<rscale>  0 0.20171708E+04</rscale>
<asrwt>0</asrwt>
<pdfrwt beam="1">  1        2 0.12621666E+00 0.20171708E+04</pdfrwt>
<pdfrwt beam="2">  1       -2 0.19075766E+00 0.20171708E+04</pdfrwt>
<totfact> 0.47310514E+00</totfact>
</mgrwt>
</event>
<event>
 6    1  0.5196787E-004  0.2440597E+03  0.7818608E-02  0.1117118E+00
          2   -1    0    0  501    0  0.00000000000E+00  0.00000000000E+00  0.27127809264E+02  0.27127809264E+02  0.00000000000E+00 0.  1.
         -2   -1    0    0    0  501 -0.00000000000E+00 -0.00000000000E+00 -0.54893048645E+03  0.54893048645E+03  0.00000000000E+00 0. -1.
         23    2    1    2    0    0 -0.83574797629E+02  0.93811720626E+01 -0.15138836523E+03  0.19621686079E+03  0.92248935718E+02 0.  0.
         11    1    3    3    0    0 -0.26341602194E+02 -0.72994651395E+01  0.59404094246E+01  0.27972319561E+02  0.00000000000E+00 0. -1.
        -11    1    3    3    0    0 -0.57233195435E+02  0.16680637202E+02 -0.15732877466E+03  0.16824454122E+03  0.00000000000E+00 0.  1.
         22    1    1    2    0    0  0.83574797629E+02 -0.93811720626E+01 -0.37041431195E+03  0.37984143493E+03  0.00000000000E+00 0. -1.
<mgrwt>
<rscale>  0 0.24405968E+03</rscale>
<asrwt>0</asrwt>
<pdfrwt beam="1">  1        2 0.41735091E-02 0.24405968E+03</pdfrwt>
<pdfrwt beam="2">  1       -2 0.84450844E-01 0.24405968E+03</pdfrwt>
<totfact> 0.25075464E+03</totfact>
</mgrwt>
</event>
<event>
 6    1  0.5196787E-004  0.2649716E+04  0.7818608E-02  0.8351507E-01
          2   -1    0    0  501    0  0.00000000000E+00  0.00000000000E+00  0.20582080181E+04  0.20582080181E+04  0.00000000000E+00 0.  1.
         -2   -1    0    0    0  501 -0.00000000000E+00 -0.00000000000E+00 -0.85280451693E+03  0.85280451693E+03  0.00000000000E+00 0. -1.
         23    2    1    2    0    0  0.54681281849E+03 -0.11868962322E+04  0.83209004438E+03  0.15519356934E+04  0.91671315290E+02 0.  0.
         11    1    3    3    0    0  0.24515177976E+03 -0.45457169922E+03  0.29202686579E+03  0.59330811152E+03  0.00000000000E+00 0. -1.
        -11    1    3    3    0    0  0.30166103873E+03 -0.73232453297E+03  0.54006317859E+03  0.95862758188E+03  0.00000000000E+00 0.  1.
         22    1    1    2    0    0 -0.54681281849E+03  0.11868962322E+04  0.37331345679E+03  0.13590768416E+04  0.00000000000E+00 0. -1.
<mgrwt>
<rscale>  0 0.26497163E+04</rscale>
<asrwt>0</asrwt>
<pdfrwt beam="1">  1        2 0.31664739E+00 0.26497163E+04</pdfrwt>
<pdfrwt beam="2">  1       -2 0.13120070E+00 0.26497163E+04</pdfrwt>
<totfact> 0.23175276E+00</totfact>
</mgrwt>
</event>
<event>
 6    1  0.5196787E-004  0.4233324E+04  0.7818608E-02  0.7959063E-01
          2   -1    0    0  501    0  0.00000000000E+00  0.00000000000E+00  0.27162966203E+04  0.27162966203E+04  0.00000000000E+00 0.  1.
         -2   -1    0    0    0  501 -0.00000000000E+00 -0.00000000000E+00 -0.16493991758E+04  0.16493991758E+04  0.00000000000E+00 0. -1.
         23    2    1    2    0    0 -0.44261663251E+02  0.63015853993E+03 -0.15485856003E+04  0.16750062121E+04  0.92030260386E+02 0.  0.
         11    1    3    3    0    0 -0.71488052498E+02  0.45185959849E+03 -0.11409827349E+04  0.12292799680E+04  0.00000000000E+00 0. -1.
        -11    1    3    3    0    0  0.27226389247E+02  0.17829894143E+03 -0.40760286534E+03  0.44572624404E+03  0.00000000000E+00 0.  1.
         22    1    1    2    0    0  0.44261663251E+02 -0.63015853993E+03  0.26154830448E+04  0.26906895841E+04  0.00000000000E+00 0.  1.
<mgrwt>
<rscale>  0 0.42333237E+04</rscale>
<asrwt>0</asrwt>
<pdfrwt beam="1">  1        2 0.41789179E+00 0.42333237E+04</pdfrwt>
<pdfrwt beam="2">  1       -2 0.25375372E+00 0.42333237E+04</pdfrwt>
<totfact> 0.12248195E-01</totfact>
</mgrwt>
</event>
<event>
 6    1  0.5196787E-004  0.1460818E+04  0.7818608E-02  0.8910935E-01
         -2   -1    0    0    0  501 -0.00000000000E+00  0.00000000000E+00  0.36793709458E+03  0.36793709458E+03  0.00000000000E+00 0. -1.
          2   -1    0    0  501    0  0.00000000000E+00 -0.00000000000E+00 -0.14499681780E+04  0.14499681780E+04  0.00000000000E+00 0.  1.
         23    2    1    2    0    0 -0.23601925248E+03  0.30383060371E+03  0.22878415526E+03  0.45179593828E+03  0.61312778921E+02 0.  0.
         13    1    3    3    0    0 -0.20872900294E+03  0.24571248051E+03  0.21050312929E+03  0.38503764386E+03  0.00000000000E+00 0. -1.
        -13    1    3    3    0    0 -0.27290249538E+02  0.58118123198E+02  0.18281025975E+02  0.66758294425E+02  0.00000000000E+00 0.  1.
         22    1    1    2    0    0  0.23601925248E+03 -0.30383060371E+03 -0.13108152387E+04  0.13661093343E+04  0.00000000000E+00 0.  1.
<mgrwt>
<rscale>  0 0.14608177E+04</rscale>
<asrwt>0</asrwt>
<pdfrwt beam="1">  1        2 0.22307203E+00 0.14608177E+04</pdfrwt>
<pdfrwt beam="2">  1       -2 0.56605707E-01 0.14608177E+04</pdfrwt>
<totfact> 0.38436937E+01</totfact>
</mgrwt>
</event>
<event>
 6    1  0.5196787E-004  0.8327548E+03  0.7818608E-02  0.9513780E-01
         -2   -1    0    0    0  501 -0.00000000000E+00  0.00000000000E+00  0.18748538719E+03  0.18748538719E+03  0.00000000000E+00 0. -1.
          2   -1    0    0  501    0  0.00000000000E+00 -0.00000000000E+00 -0.92471286001E+03  0.92471286001E+03  0.00000000000E+00 0.  1.
         23    2    1    2    0    0 -0.28702057514E+03 -0.22571638195E+03 -0.12009566271E+03  0.39513453547E+03  0.91540358756E+02 0.  0.
         13    1    3    3    0    0 -0.18114974712E+03 -0.11926767559E+03 -0.11365777150E+03  0.24486342794E+03  0.00000000000E+00 0.  1.
        -13    1    3    3    0    0 -0.10587082802E+03 -0.10644870636E+03 -0.64378912036E+01  0.15027110752E+03  0.00000000000E+00 0. -1.
         22    1    1    2    0    0  0.28702057514E+03  0.22571638195E+03 -0.61713181011E+03  0.71706371173E+03  0.00000000000E+00 0.  1.
<mgrwt>
<rscale>  0 0.83275482E+03</rscale>
<asrwt>0</asrwt>
<pdfrwt beam="1">  1        2 0.14226351E+00 0.83275482E+03</pdfrwt>
<pdfrwt beam="2">  1       -2 0.28843906E-01 0.83275482E+03</pdfrwt>
<totfact> 0.31236520E+02</totfact>
</mgrwt>
</event>
<event>
 6    1  0.5196787E-004  0.1428273E+04  0.7818608E-02  0.8933604E-01
          2   -1    0    0  501    0  0.00000000000E+00  0.00000000000E+00  0.24611357152E+04  0.24611357152E+04  0.00000000000E+00 0.  1.
         -2   -1    0    0    0  501 -0.00000000000E+00 -0.00000000000E+00 -0.20721765450E+03  0.20721765450E+03  0.00000000000E+00 0. -1.
         23    2    1    2    0    0  0.66959263498E+03 -0.16190642135E+03  0.80090088832E+03  0.10603027208E+04  0.90728390235E+02 0.  0.
         13    1    3    3    0    0  0.55000525753E+03 -0.14649520766E+03  0.70597072459E+03  0.90684138258E+03  0.00000000000E+00 0. -1.
        -13    1    3    3    0    0  0.11958737745E+03 -0.15411213690E+02  0.94930163736E+02  0.15346133825E+03  0.00000000000E+00 0.  1.
         22    1    1    2    0    0 -0.66959263498E+03  0.16190642135E+03  0.14530171724E+04  0.16080506489E+04  0.00000000000E+00 0.  1.
<mgrwt>
<rscale>  0 0.14282728E+04</rscale>
<asrwt>0</asrwt>
<pdfrwt beam="1">  1        2 0.37863624E+00 0.14282728E+04</pdfrwt>
<pdfrwt beam="2">  1       -2 0.31879641E-01 0.14282728E+04</pdfrwt>
<totfact> 0.32680477E+01</totfact>
</mgrwt>
</event>
<event>
 6    1  0.5196787E-004  0.1371825E+04  0.7818608E-02  0.8974469E-01
          2   -1    0    0  501    0  0.00000000000E+00  0.00000000000E+00  0.13066927541E+04  0.13066927541E+04  0.00000000000E+00 0.  1.
         -2   -1    0    0    0  501 -0.00000000000E+00 -0.00000000000E+00 -0.36005091949E+03  0.36005091949E+03  0.00000000000E+00 0. -1.
         23    2    1    2    0    0 -0.11374296850E+03 -0.64880363842E+03  0.25734650305E+03  0.71332263428E+03  0.93372018413E+02 0.  0.
         13    1    3    3    0    0 -0.81282097576E+02 -0.30997183282E+03  0.83686434458E+02  0.33119893696E+03  0.00000000000E+00 0.  1.
        -13    1    3    3    0    0 -0.32460870926E+02 -0.33883180560E+03  0.17366006860E+03  0.38212369732E+03  0.00000000000E+00 0. -1.
         22    1    1    2    0    0  0.11374296850E+03  0.64880363842E+03  0.68929533155E+03  0.95342103931E+03  0.00000000000E+00 0. -1.
<mgrwt>
<rscale>  0 0.13718250E+04</rscale>
<asrwt>0</asrwt>
<pdfrwt beam="1">  1        2 0.20102965E+00 0.13718250E+04</pdfrwt>
<pdfrwt beam="2">  1       -2 0.55392450E-01 0.13718250E+04</pdfrwt>
<totfact> 0.48938909E+01</totfact>
</mgrwt>
</event>
<event>
 6    1  0.5196787E-004  0.1738936E+04  0.7818608E-02  0.8739464E-01
          2   -1    0    0  501    0  0.00000000000E+00  0.00000000000E+00  0.13247355018E+04  0.13247355018E+04  0.00000000000E+00 0.  1.
         -2   -1    0    0    0  501 -0.00000000000E+00 -0.00000000000E+00 -0.57066111309E+03  0.57066111309E+03  0.00000000000E+00 0. -1.
         23    2    1    2    0    0 -0.27472959710E+03  0.81434843666E+03  0.50330846743E+03  0.10001182922E+04  0.90980532018E+02 0.  0.
         11    1    3    3    0    0 -0.11808157605E+03  0.47396554131E+03  0.30964431020E+03  0.57833052124E+03  0.00000000000E+00 0.  1.
        -11    1    3    3    0    0 -0.15664802105E+03  0.34038289535E+03  0.19366415722E+03  0.42178777097E+03  0.00000000000E+00 0. -1.
         22    1    1    2    0    0  0.27472959710E+03 -0.81434843666E+03  0.25076592130E+03  0.89527832270E+03  0.00000000000E+00 0.  1.
<mgrwt>
<rscale>  0 0.17389365E+04</rscale>
<asrwt>0</asrwt>
<pdfrwt beam="1">  1        2 0.20380546E+00 0.17389365E+04</pdfrwt>
<pdfrwt beam="2">  1       -2 0.87794018E-01 0.17389365E+04</pdfrwt>
<totfact> 0.16977405E+01</totfact>
</mgrwt>
</event>
<event>
 6    1  0.5196787E-004  0.1659796E+04  0.7818608E-02  0.8784632E-01
          2   -1    0    0  501    0  0.00000000000E+00  0.00000000000E+00  0.13671610517E+04  0.13671610517E+04  0.00000000000E+00 0.  1.
         -2   -1    0    0    0  501 -0.00000000000E+00 -0.00000000000E+00 -0.50376697829E+03  0.50376697829E+03  0.00000000000E+00 0. -1.
         23    2    1    2    0    0 -0.37338282575E+03  0.73659235277E+03  0.37752581237E+03  0.91277825264E+03  0.93034245069E+02 0.  0.
         13    1    3    3    0    0 -0.23212054749E+03  0.36102212094E+03  0.21219637954E+03  0.47879455287E+03  0.00000000000E+00 0.  1.
        -13    1    3    3    0    0 -0.14126227826E+03  0.37557023184E+03  0.16532943283E+03  0.43398369976E+03  0.00000000000E+00 0. -1.
         22    1    1    2    0    0  0.37338282575E+03 -0.73659235277E+03  0.48586826101E+03  0.95814977732E+03  0.00000000000E+00 0.  1.
<mgrwt>
<rscale>  0 0.16597959E+04</rscale>
<asrwt>0</asrwt>
<pdfrwt beam="1">  1        2 0.21033247E+00 0.16597959E+04</pdfrwt>
<pdfrwt beam="2">  1       -2 0.77502612E-01 0.16597959E+04</pdfrwt>
<totfact> 0.21412240E+01</totfact>
</mgrwt>
</event>
<event>
 6    1  0.5196787E-004  0.7155170E+04  0.7818608E-02  0.7561641E-01
          2   -1    0    0  501    0  0.00000000000E+00  0.00000000000E+00  0.27296919364E+04  0.27296919364E+04  0.00000000000E+00 0.  1.
         -2   -1    0    0    0  501 -0.00000000000E+00 -0.00000000000E+00 -0.46888495361E+04  0.46888495361E+04  0.00000000000E+00 0. -1.
         23    2    1    2    0    0 -0.86897223766E+03 -0.24041887255E+04 -0.35738187175E+04  0.43949067883E+04  0.88256870402E+02 0.  0.
         11    1    3    3    0    0 -0.60770046016E+03 -0.16799714174E+04 -0.25662285430E+04  0.31268406974E+04  0.00000000000E+00 0.  1.
        -11    1    3    3    0    0 -0.26127177750E+03 -0.72421730812E+03 -0.10075901745E+04  0.12680660909E+04  0.00000000000E+00 0. -1.
         22    1    1    2    0    0  0.86897223766E+03  0.24041887255E+04  0.16146611178E+04  0.30236346841E+04  0.00000000000E+00 0.  1.
<mgrwt>
<rscale>  0 0.71551701E+04</rscale>
<asrwt>0</asrwt>
<pdfrwt beam="1">  1        2 0.41995261E+00 0.71551701E+04</pdfrwt>
<pdfrwt beam="2">  1       -2 0.72136146E+00 0.71551701E+04</pdfrwt>
<totfact> 0.30464523E-04</totfact>
</mgrwt>
</event>
<event>
 6    1  0.5196787E-004  0.1930161E+04  0.7818608E-02  0.8639987E-01
          2   -1    0    0  501    0  0.00000000000E+00  0.00000000000E+00  0.14770859141E+04  0.14770859141E+04  0.00000000000E+00 0.  1.
         -2   -1    0    0    0  501 -0.00000000000E+00 -0.00000000000E+00 -0.63055237616E+03  0.63055237616E+03  0.00000000000E+00 0. -1.
         23    2    1    2    0    0 -0.39210909005E+03  0.46486330378E+03  0.12394454736E+04  0.13836029190E+04  0.91019370168E+02 0.  0.
         11    1    3    3    0    0 -0.29728847094E+03  0.28630971977E+03  0.82723756159E+03  0.92448670834E+03  0.00000000000E+00 0. -1.
        -11    1    3    3    0    0 -0.94820619104E+02  0.17855358401E+03  0.41220791197E+03  0.45911621062E+03  0.00000000000E+00 0.  1.
         22    1    1    2    0    0  0.39210909005E+03 -0.46486330378E+03 -0.39291193563E+03  0.72403537128E+03  0.00000000000E+00 0. -1.
<mgrwt>
<rscale>  0 0.19301606E+04</rscale>
<asrwt>0</asrwt>
<pdfrwt beam="1">  1        2 0.22724399E+00 0.19301606E+04</pdfrwt>
<pdfrwt beam="2">  1       -2 0.97008058E-01 0.19301606E+04</pdfrwt>
<totfact> 0.10844520E+01</totfact>
</mgrwt>
</event>
<event>
 6    1  0.5196787E-004  0.2409116E+04  0.7818608E-02  0.8436098E-01
          2   -1    0    0  501    0  0.00000000000E+00  0.00000000000E+00  0.84843575716E+03  0.84843575716E+03  0.00000000000E+00 0.  1.
         -2   -1    0    0    0  501 -0.00000000000E+00 -0.00000000000E+00 -0.17101591569E+04  0.17101591569E+04  0.00000000000E+00 0. -1.
         23    2    1    2    0    0  0.90615750988E+03 -0.56888830704E+03  0.15211812173E+03  0.10846105284E+04  0.92112630540E+02 0.  0.
         13    1    3    3    0    0  0.32920893040E+03 -0.18596761973E+03  0.94659280329E+02  0.38977282460E+03  0.00000000000E+00 0.  1.
        -13    1    3    3    0    0  0.57694857948E+03 -0.38292068731E+03  0.57458841399E+02  0.69483770378E+03  0.00000000000E+00 0. -1.
         22    1    1    2    0    0 -0.90615750988E+03  0.56888830704E+03 -0.10138415215E+04  0.14739843857E+04  0.00000000000E+00 0. -1.
<mgrwt>
<rscale>  0 0.24091162E+04</rscale>
<asrwt>0</asrwt>
<pdfrwt beam="1">  1        2 0.13052858E+00 0.24091162E+04</pdfrwt>
<pdfrwt beam="2">  1       -2 0.26310140E+00 0.24091162E+04</pdfrwt>
<totfact> 0.15268803E+00</totfact>
</mgrwt>
</event>
<event>
 6    1  0.5196787E-004  0.4392086E+04  0.7818608E-02  0.7929807E-01
         -2   -1    0    0    0  501 -0.00000000000E+00  0.00000000000E+00  0.16046130757E+04  0.16046130757E+04  0.00000000000E+00 0. -1.
          2   -1    0    0  501    0  0.00000000000E+00 -0.00000000000E+00 -0.30054626644E+04  0.30054626644E+04  0.00000000000E+00 0.  1.
         23    2    1    2    0    0 -0.69860191963E+03 -0.17767457485E+04 -0.18377603918E+04  0.26515658100E+04  0.92562897752E+02 0.  0.
         11    1    3    3    0    0 -0.37358379206E+03 -0.94068835374E+03 -0.91026269713E+03  0.13612632392E+04  0.00000000000E+00 0. -1.
        -11    1    3    3    0    0 -0.32501812757E+03 -0.83605739472E+03 -0.92749769472E+03  0.12903025708E+04  0.00000000000E+00 0.  1.
         22    1    1    2    0    0  0.69860191963E+03  0.17767457485E+04  0.43691080312E+03  0.19585099302E+04  0.00000000000E+00 0. -1.
<mgrwt>
<rscale>  0 0.43920859E+04</rscale>
<asrwt>0</asrwt>
<pdfrwt beam="1">  1        2 0.46237887E+00 0.43920859E+04</pdfrwt>
<pdfrwt beam="2">  1       -2 0.24686355E+00 0.43920859E+04</pdfrwt>
<totfact> 0.88660285E-02</totfact>
</mgrwt>
</event>
<event>
 6    1  0.5196787E-004  0.2892392E+04  0.7818608E-02  0.8275145E-01
         -2   -1    0    0    0  501 -0.00000000000E+00  0.00000000000E+00  0.20729511334E+04  0.20729511334E+04  0.00000000000E+00 0. -1.
          2   -1    0    0  501    0  0.00000000000E+00 -0.00000000000E+00 -0.10089399705E+04  0.10089399705E+04  0.00000000000E+00 0.  1.
         23    2    1    2    0    0  0.13111704411E+04  0.30112039375E+03 -0.28977698988E+02  0.13485515327E+04  0.88938811899E+02 0.  0.
         11    1    3    3    0    0  0.80222734159E+03  0.22066074326E+03 -0.42551340226E+02  0.83310892911E+03  0.00000000000E+00 0.  1.
        -11    1    3    3    0    0  0.50894309948E+03  0.80459650488E+02  0.13573641237E+02  0.51544260359E+03  0.00000000000E+00 0. -1.
         22    1    1    2    0    0 -0.13111704411E+04 -0.30112039375E+03  0.10929888619E+04  0.17333395712E+04  0.00000000000E+00 0. -1.
<mgrwt>
<rscale>  0 0.28923923E+04</rscale>
<asrwt>0</asrwt>
<pdfrwt beam="1">  1        2 0.15522153E+00 0.28923923E+04</pdfrwt>
<pdfrwt beam="2">  1       -2 0.31891556E+00 0.28923923E+04</pdfrwt>
<totfact> 0.52196647E-01</totfact>
</mgrwt>
</event>
<event>
 6    1  0.5196787E-004  0.1298353E+04  0.7818608E-02  0.9030873E-01
          2   -1    0    0  501    0  0.00000000000E+00  0.00000000000E+00  0.12215162869E+04  0.12215162869E+04  0.00000000000E+00 0.  1.
         -2   -1    0    0    0  501 -0.00000000000E+00 -0.00000000000E+00 -0.34500556021E+03  0.34500556021E+03  0.00000000000E+00 0. -1.
         23    2    1    2    0    0 -0.52104635919E+03 -0.27957379767E+03  0.75449413059E+03  0.96275130585E+03  0.89318906461E+02 0.  0.
         13    1    3    3    0    0 -0.34764556865E+03 -0.13795436920E+03  0.46261018487E+03  0.59489245459E+03  0.00000000000E+00 0.  1.
        -13    1    3    3    0    0 -0.17340079054E+03 -0.14161942847E+03  0.29188394572E+03  0.36785885126E+03  0.00000000000E+00 0. -1.
         22    1    1    2    0    0  0.52104635919E+03  0.27957379767E+03  0.12201659608E+03  0.60377054125E+03  0.00000000000E+00 0. -1.
<mgrwt>
<rscale>  0 0.12983527E+04</rscale>
<asrwt>0</asrwt>
<pdfrwt beam="1">  1        2 0.18792558E+00 0.12983527E+04</pdfrwt>
<pdfrwt beam="2">  1       -2 0.53077779E-01 0.12983527E+04</pdfrwt>
<totfact> 0.60325821E+01</totfact>
</mgrwt>
</event>
<event>
 6    1  0.6187142E-004  0.4761101E+04  0.7818608E-02  0.7866455E-01
         -2   -1    0    0    0  501 -0.00000000000E+00  0.00000000000E+00  0.30638876375E+04  0.30638876375E+04  0.00000000000E+00 0. -1.
          2   -1    0    0  501    0  0.00000000000E+00 -0.00000000000E+00 -0.18496175943E+04  0.18496175943E+04  0.00000000000E+00 0.  1.
         23    2    1    2    0    0  0.32156475893E+03 -0.21531284030E+04 -0.38437445384E+03  0.22125739031E+04  0.91508152601E+02 0.  0.
         13    1    3    3    0    0  0.15878065007E+03 -0.12602225473E+04 -0.25915170759E+03  0.12963532586E+04  0.00000000000E+00 0.  1.
        -13    1    3    3    0    0  0.16278410886E+03 -0.89290585575E+03 -0.12522274625E+03  0.91622064455E+03  0.00000000000E+00 0. -1.
         22    1    1    2    0    0 -0.32156475893E+03  0.21531284030E+04  0.15986444970E+04  0.27009313286E+04  0.00000000000E+00 0. -1.
<mgrwt>
<rscale>  0 0.47611009E+04</rscale>
<asrwt>0</asrwt>
<pdfrwt beam="1">  1        2 0.28455655E+00 0.47611009E+04</pdfrwt>
<pdfrwt beam="2">  1       -2 0.47136733E+00 0.47611009E+04</pdfrwt>
<totfact> 0.15143999E-02</totfact>
</mgrwt>
</event>
<event>
 6    1  0.5196787E-004  0.2858890E+04  0.7818608E-02  0.8285215E-01
          2   -1    0    0  501    0  0.00000000000E+00  0.00000000000E+00  0.35064501353E+04  0.35064501353E+04  0.00000000000E+00 0. -1.
         -2   -1    0    0    0  501 -0.00000000000E+00 -0.00000000000E+00 -0.58272976412E+03  0.58272976412E+03  0.00000000000E+00 0.  1.
         23    2    1    2    0    0 -0.58372703072E+03  0.40091262850E+02 -0.39841917415E+03  0.71590912546E+03  0.10697421109E+03 0.  0.
         13    1    3    3    0    0 -0.34730087074E+03 -0.23622557501E+02 -0.20599796096E+03  0.40448866481E+03  0.00000000000E+00 0.  1.
        -13    1    3    3    0    0 -0.23642615998E+03  0.63713820351E+02 -0.19242121320E+03  0.31142046066E+03  0.00000000000E+00 0. -1.
         22    1    1    2    0    0  0.58372703072E+03 -0.40091262850E+02  0.33221395454E+04  0.33732707740E+04  0.00000000000E+00 0. -1.
<mgrwt>
<rscale>  0 0.28588899E+04</rscale>
<asrwt>0</asrwt>
<pdfrwt beam="1">  1        2 0.53945386E+00 0.28588899E+04</pdfrwt>
<pdfrwt beam="2">  1       -2 0.89650735E-01 0.28588899E+04</pdfrwt>
<totfact> 0.74267230E-01</totfact>
</mgrwt>
</event>
<event>
 6    1  0.5196787E-004  0.1261953E+04  0.7818608E-02  0.9060293E-01
         -2   -1    0    0    0  501 -0.00000000000E+00  0.00000000000E+00  0.73450867523E+03  0.73450867523E+03  0.00000000000E+00 0.  1.
          2   -1    0    0  501    0  0.00000000000E+00 -0.00000000000E+00 -0.54203785149E+03  0.54203785149E+03  0.00000000000E+00 0. -1.
         23    2    1    2    0    0  0.68771718567E+02  0.21890614818E+03  0.68789588938E+03  0.73056534879E+03  0.88744144859E+02 0.  0.
         13    1    3    3    0    0  0.51357774790E+02  0.22151258754E+03  0.61863952564E+03  0.65910568967E+03  0.00000000000E+00 0.  1.
        -13    1    3    3    0    0  0.17413943777E+02 -0.26064393548E+01  0.69256363737E+02  0.71459659124E+02  0.00000000000E+00 0. -1.
         22    1    1    2    0    0 -0.68771718567E+02 -0.21890614818E+03 -0.49542506564E+03  0.54598117793E+03  0.00000000000E+00 0. -1.
<mgrwt>
<rscale>  0 0.12619533E+04</rscale>
<asrwt>0</asrwt>
<pdfrwt beam="1">  1        2 0.83390438E-01 0.12619533E+04</pdfrwt>
<pdfrwt beam="2">  1       -2 0.11300133E+00 0.12619533E+04</pdfrwt>
<totfact> 0.33872049E+01</totfact>
</mgrwt>
</event>
<event>
 6    1  0.5196787E-004  0.2309784E+04  0.7818608E-02  0.8474074E-01
         -2   -1    0    0    0  501 -0.00000000000E+00  0.00000000000E+00  0.68630917083E+03  0.68630917083E+03  0.00000000000E+00 0. -1.
          2   -1    0    0  501    0  0.00000000000E+00 -0.00000000000E+00 -0.19434028684E+04  0.19434028684E+04  0.00000000000E+00 0.  1.
         23    2    1    2    0    0  0.46134697054E+03  0.12683000282E+03 -0.18239594324E+04  0.18879144671E+04  0.92011667856E+02 0.  0.
         11    1    3    3    0    0  0.34779985062E+03  0.64423776922E+02 -0.14346055829E+04  0.14775683868E+04  0.00000000000E+00 0. -1.
        -11    1    3    3    0    0  0.11354711993E+03  0.62406225903E+02 -0.38935384947E+03  0.41034608024E+03  0.00000000000E+00 0.  1.
         22    1    1    2    0    0 -0.46134697054E+03 -0.12683000282E+03  0.56686573480E+03  0.74179757221E+03  0.00000000000E+00 0. -1.
<mgrwt>
<rscale>  0 0.23097837E+04</rscale>
<asrwt>0</asrwt>
<pdfrwt beam="1">  1        2 0.29898506E+00 0.23097837E+04</pdfrwt>
<pdfrwt beam="2">  1       -2 0.10558603E+00 0.23097837E+04</pdfrwt>
<totfact> 0.47197569E+00</totfact>
</mgrwt>
</event>
<event>
 6    1  0.5196787E-004  0.1032491E+04  0.7818608E-02  0.9273610E-01
         -2   -1    0    0    0  501 -0.00000000000E+00  0.00000000000E+00  0.79323963727E+03  0.79323963727E+03  0.00000000000E+00 0. -1.
          2   -1    0    0  501    0  0.00000000000E+00 -0.00000000000E+00 -0.33597600158E+03  0.33597600158E+03  0.00000000000E+00 0.  1.
         23    2    1    2    0    0 -0.47275535474E+03  0.19005928760E+03  0.28826985872E+03  0.59239252563E+03  0.90604827398E+02 0.  0.
         11    1    3    3    0    0 -0.28943764579E+02 -0.96032450038E+01  0.22479149504E+02  0.37885036426E+02  0.00000000000E+00 0. -1.
        -11    1    3    3    0    0 -0.44381159016E+03  0.19966253260E+03  0.26579070922E+03  0.55450748921E+03  0.00000000000E+00 0.  1.
         22    1    1    2    0    0  0.47275535474E+03 -0.19005928760E+03  0.16899377697E+03  0.53682311322E+03  0.00000000000E+00 0.  1.
<mgrwt>
<rscale>  0 0.10324911E+04</rscale>
<asrwt>0</asrwt>
<pdfrwt beam="1">  1        2 0.51688616E-01 0.10324911E+04</pdfrwt>
<pdfrwt beam="2">  1       -2 0.12203687E+00 0.10324911E+04</pdfrwt>
<totfact> 0.49071252E+01</totfact>
</mgrwt>
</event>
<event>
 6    1  0.5196787E-004  0.1733216E+04  0.7818608E-02  0.8742643E-01
          2   -1    0    0  501    0  0.00000000000E+00  0.00000000000E+00  0.13928323938E+04  0.13928323938E+04  0.00000000000E+00 0.  1.
         -2   -1    0    0    0  501 -0.00000000000E+00 -0.00000000000E+00 -0.53919609272E+03  0.53919609272E+03  0.00000000000E+00 0. -1.
         23    2    1    2    0    0 -0.72024691184E+03  0.16235938272E+03 -0.72543363905E+02  0.74757715574E+03  0.92156828094E+02 0.  0.
         13    1    3    3    0    0 -0.57777647185E+03  0.16358380291E+03 -0.42657951490E+02  0.60200084122E+03  0.00000000000E+00 0. -1.
        -13    1    3    3    0    0 -0.14247043999E+03 -0.12244201845E+01 -0.29885412415E+02  0.14557631452E+03  0.00000000000E+00 0.  1.
         22    1    1    2    0    0  0.72024691184E+03 -0.16235938272E+03  0.92617966499E+03  0.11844513308E+04  0.00000000000E+00 0.  1.
<mgrwt>
<rscale>  0 0.17332164E+04</rscale>
<asrwt>0</asrwt>
<pdfrwt beam="1">  1        2 0.21428191E+00 0.17332164E+04</pdfrwt>
<pdfrwt beam="2">  1       -2 0.82953245E-01 0.17332164E+04</pdfrwt>
<totfact> 0.17657876E+01</totfact>
</mgrwt>
</event>
<event>
 6    1  0.5196787E-004  0.2594902E+04  0.7818608E-02  0.8369935E-01
         -2   -1    0    0    0  501 -0.00000000000E+00  0.00000000000E+00  0.61216101017E+03  0.61216101017E+03  0.00000000000E+00 0. -1.
          2   -1    0    0  501    0  0.00000000000E+00 -0.00000000000E+00 -0.27498965912E+04  0.27498965912E+04  0.00000000000E+00 0.  1.
         23    2    1    2    0    0  0.65900839244E+03 -0.10963775978E+04 -0.80198501457E+03  0.15125805201E+04  0.91564009793E+02 0.  0.
         13    1    3    3    0    0  0.53235917239E+03 -0.88725309771E+03 -0.60492664032E+03  0.11985660549E+04  0.00000000000E+00 0. -1.
        -13    1    3    3    0    0  0.12664922006E+03 -0.20912450012E+03 -0.19705837425E+03  0.31401446520E+03  0.00000000000E+00 0.  1.
         22    1    1    2    0    0 -0.65900839244E+03  0.10963775978E+04 -0.13357505665E+04  0.18494770813E+04  0.00000000000E+00 0.  1.
<mgrwt>
<rscale>  0 0.25949023E+04</rscale>
<asrwt>0</asrwt>
<pdfrwt beam="1">  1        2 0.42306102E+00 0.25949023E+04</pdfrwt>
<pdfrwt beam="2">  1       -2 0.94178616E-01 0.25949023E+04</pdfrwt>
<totfact> 0.20861193E+00</totfact>
</mgrwt>
</event>
<event>
 6    1  0.5196787E-004  0.2396047E+04  0.7818608E-02  0.8440985E-01
          2   -1    0    0  501    0  0.00000000000E+00  0.00000000000E+00  0.63802608065E+03  0.63802608065E+03  0.00000000000E+00 0.  1.
         -2   -1    0    0    0  501 -0.00000000000E+00 -0.00000000000E+00 -0.22495321721E+04  0.22495321721E+04  0.00000000000E+00 0. -1.
         23    2    1    2    0    0  0.13193692784E+03 -0.95436015064E+03  0.46720834729E+02  0.96976598331E+03  0.10026253497E+03 0.  0.
         13    1    3    3    0    0  0.34824397433E+02 -0.43714805278E+03 -0.21795622678E+02  0.43907426237E+03  0.00000000000E+00 0. -1.
        -13    1    3    3    0    0  0.97112530412E+02 -0.51721209786E+03  0.68516457407E+02  0.53069172094E+03  0.00000000000E+00 0.  1.
         22    1    1    2    0    0 -0.13193692784E+03  0.95436015064E+03 -0.16582269262E+04  0.19177922694E+04  0.00000000000E+00 0.  1.
<mgrwt>
<rscale>  0 0.23960469E+04</rscale>
<asrwt>0</asrwt>
<pdfrwt beam="1">  1        2 0.98157858E-01 0.23960469E+04</pdfrwt>
<pdfrwt beam="2">  1       -2 0.34608188E+00 0.23960469E+04</pdfrwt>
<totfact> 0.68202976E-01</totfact>
</mgrwt>
</event>
<event>
 6    1  0.5196787E-004  0.1094696E+04  0.7818608E-02  0.9210377E-01
         -2   -1    0    0    0  501 -0.00000000000E+00  0.00000000000E+00  0.21103392169E+03  0.21103392169E+03  0.00000000000E+00 0. -1.
          2   -1    0    0  501    0  0.00000000000E+00 -0.00000000000E+00 -0.14196284248E+04  0.14196284248E+04  0.00000000000E+00 0.  1.
         23    2    1    2    0    0 -0.44921070611E+03  0.26803793038E+03 -0.82604673174E+03  0.98260572240E+03  0.97602315993E+02 0.  0.
         11    1    3    3    0    0 -0.20874369110E+03  0.90909396816E+02 -0.43013773080E+03  0.48667947816E+03  0.00000000000E+00 0.  1.
        -11    1    3    3    0    0 -0.24046701501E+03  0.17712853357E+03 -0.39590900093E+03  0.49592624424E+03  0.00000000000E+00 0. -1.
         22    1    1    2    0    0  0.44921070611E+03 -0.26803793038E+03 -0.38254777133E+03  0.64805662404E+03  0.00000000000E+00 0.  1.
<mgrwt>
<rscale>  0 0.10946959E+04</rscale>
<asrwt>0</asrwt>
<pdfrwt beam="1">  1        2 0.21840437E+00 0.10946959E+04</pdfrwt>
<pdfrwt beam="2">  1       -2 0.32466758E-01 0.10946959E+04</pdfrwt>
<totfact> 0.12367357E+02</totfact>
</mgrwt>
</event>
<event>
 6    1  0.5196787E-004  0.2490440E+04  0.7818608E-02  0.8406399E-01
          2   -1    0    0  501    0  0.00000000000E+00  0.00000000000E+00  0.28345593697E+04  0.28345593697E+04  0.00000000000E+00 0. -1.
         -2   -1    0    0    0  501 -0.00000000000E+00 -0.00000000000E+00 -0.54702418866E+03  0.54702418866E+03  0.00000000000E+00 0.  1.
         23    2    1    2    0    0  0.94120680560E+03 -0.69120731675E+03  0.56476852338E+03  0.13003428797E+04  0.91051162661E+02 0.  0.
         13    1    3    3    0    0  0.65776505558E+03 -0.45330948111E+03  0.42431860666E+03  0.90453890683E+03  0.00000000000E+00 0. -1.
        -13    1    3    3    0    0  0.28344175002E+03 -0.23789783564E+03  0.14044991671E+03  0.39580397290E+03  0.00000000000E+00 0.  1.
         22    1    1    2    0    0 -0.94120680560E+03  0.69120731675E+03  0.17227666577E+04  0.20812406787E+04  0.00000000000E+00 0. -1.
<mgrwt>
<rscale>  0 0.24904398E+04</rscale>
<asrwt>0</asrwt>
<pdfrwt beam="1">  1        2 0.43608605E+00 0.24904398E+04</pdfrwt>
<pdfrwt beam="2">  1       -2 0.84157569E-01 0.24904398E+04</pdfrwt>
<totfact> 0.24239704E+00</totfact>
</mgrwt>
</event>
<event>
 6    1  0.5196787E-004  0.1949056E+04  0.7818608E-02  0.8630816E-01
         -2   -1    0    0    0  501 -0.00000000000E+00  0.00000000000E+00  0.21951820235E+03  0.21951820235E+03  0.00000000000E+00 0. -1.
          2   -1    0    0  501    0  0.00000000000E+00 -0.00000000000E+00 -0.43263160606E+04  0.43263160606E+04  0.00000000000E+00 0.  1.
         23    2    1    2    0    0 -0.38778539607E+03 -0.73840315882E+03 -0.89233997892E+03  0.12249373666E+04  0.92650826714E+02 0.  0.
         11    1    3    3    0    0 -0.13193982997E+03 -0.32208307680E+03 -0.41780577345E+03  0.54378974928E+03  0.00000000000E+00 0.  1.
        -11    1    3    3    0    0 -0.25584556609E+03 -0.41632008202E+03 -0.47453420547E+03  0.68114761729E+03  0.00000000000E+00 0. -1.
         22    1    1    2    0    0  0.38778539607E+03  0.73840315882E+03 -0.32144578793E+04  0.33208968963E+04  0.00000000000E+00 0.  1.
<mgrwt>
<rscale>  0 0.19490563E+04</rscale>
<asrwt>0</asrwt>
<pdfrwt beam="1">  1        2 0.66558706E+00 0.19490563E+04</pdfrwt>
<pdfrwt beam="2">  1       -2 0.33772032E-01 0.19490563E+04</pdfrwt>
<totfact> 0.13953047E+00</totfact>
</mgrwt>
</event>
<event>
 6    1  0.5196787E-004  0.1778091E+04  0.7818608E-02  0.8718038E-01
         -2   -1    0    0    0  501 -0.00000000000E+00  0.00000000000E+00  0.68579795918E+03  0.68579795918E+03  0.00000000000E+00 0. -1.
          2   -1    0    0  501    0  0.00000000000E+00 -0.00000000000E+00 -0.11525284303E+04  0.11525284303E+04  0.00000000000E+00 0.  1.
         23    2    1    2    0    0  0.43232737889E+03 -0.24997590916E+03 -0.99130651876E+03  0.11140509257E+04  0.95004911760E+02 0.  0.
         11    1    3    3    0    0  0.10636787482E+03 -0.36649825855E+02 -0.15564315253E+03  0.19204719591E+03  0.00000000000E+00 0.  1.
        -11    1    3    3    0    0  0.32595950406E+03 -0.21332608330E+03 -0.83566336623E+03  0.92200372980E+03  0.00000000000E+00 0. -1.
         22    1    1    2    0    0 -0.43232737889E+03  0.24997590916E+03  0.52457604762E+03  0.72427546378E+03  0.00000000000E+00 0. -1.
<mgrwt>
<rscale>  0 0.17780907E+04</rscale>
<asrwt>0</asrwt>
<pdfrwt beam="1">  1        2 0.17731207E+00 0.17780907E+04</pdfrwt>
<pdfrwt beam="2">  1       -2 0.10550738E+00 0.17780907E+04</pdfrwt>
<totfact> 0.13904406E+01</totfact>
</mgrwt>
</event>
<event>
 6    1  0.5196787E-004  0.1136402E+04  0.7818608E-02  0.9170421E-01
         -2   -1    0    0    0  501 -0.00000000000E+00  0.00000000000E+00  0.11780638163E+03  0.11780638163E+03  0.00000000000E+00 0. -1.
          2   -1    0    0  501    0  0.00000000000E+00 -0.00000000000E+00 -0.27405338784E+04  0.27405338784E+04  0.00000000000E+00 0.  1.
         23    2    1    2    0    0  0.35430240059E+03  0.27480362937E+02 -0.24234240813E+04  0.24509004328E+04  0.87425923571E+02 0.  0.
         11    1    3    3    0    0  0.22897988198E+03 -0.10302080659E+02 -0.13216939120E+04  0.13414219009E+04  0.00000000000E+00 0.  1.
        -11    1    3    3    0    0  0.12532251861E+03  0.37782443596E+02 -0.11017301693E+04  0.11094785319E+04  0.00000000000E+00 0. -1.
         22    1    1    2    0    0 -0.35430240059E+03 -0.27480362937E+02 -0.19930341543E+03  0.40743982723E+03  0.00000000000E+00 0. -1.
<mgrwt>
<rscale>  0 0.11364020E+04</rscale>
<asrwt>0</asrwt>
<pdfrwt beam="1">  1        2 0.42162058E+00 0.11364020E+04</pdfrwt>
<pdfrwt beam="2">  1       -2 0.18124059E-01 0.11364020E+04</pdfrwt>
<totfact> 0.63922168E+01</totfact>
</mgrwt>
</event>
<event>
 6    1  0.5196787E-004  0.2676756E+04  0.7818608E-02  0.8342586E-01
          2   -1    0    0  501    0  0.00000000000E+00  0.00000000000E+00  0.25246868922E+04  0.25246868922E+04  0.00000000000E+00 0.  1.
         -2   -1    0    0    0  501 -0.00000000000E+00 -0.00000000000E+00 -0.70949619978E+03  0.70949619978E+03  0.00000000000E+00 0. -1.
         23    2    1    2    0    0  0.10351695855E+04  0.44357920399E+02  0.19293011943E+04  0.21917988526E+04  0.90749194499E+02 0.  0.
         13    1    3    3    0    0  0.16149575489E+03  0.11772243985E+02  0.37533774967E+03  0.40877608896E+03  0.00000000000E+00 0. -1.
        -13    1    3    3    0    0  0.87367383058E+03  0.32585676413E+02  0.15539634446E+04  0.17830227636E+04  0.00000000000E+00 0.  1.
         22    1    1    2    0    0 -0.10351695855E+04 -0.44357920399E+02 -0.11411050189E+03  0.10423842393E+04  0.00000000000E+00 0. -1.
<mgrwt>
<rscale>  0 0.26767561E+04</rscale>
<asrwt>0</asrwt>
<pdfrwt beam="1">  1        2 0.38841336E+00 0.26767561E+04</pdfrwt>
<pdfrwt beam="2">  1       -2 0.10915326E+00 0.26767561E+04</pdfrwt>
<totfact> 0.19812815E+00</totfact>
</mgrwt>
</event>
<event>
 6    1  0.5196787E-004  0.1769699E+04  0.7818608E-02  0.8722581E-01
          4   -1    0    0  501    0  0.00000000000E+00  0.00000000000E+00  0.35422239076E+03  0.35422239076E+03  0.00000000000E+00 0.  1.
         -4   -1    0    0    0  501 -0.00000000000E+00 -0.00000000000E+00 -0.22103601728E+04  0.22103601728E+04  0.00000000000E+00 0. -1.
         23    2    1    2    0    0  0.47017454492E+03 -0.41017137906E+03 -0.18349650011E+04  0.19402805938E+04  0.91036061094E+02 0.  0.
         11    1    3    3    0    0  0.14521254742E+03 -0.14520408373E+03 -0.73364034276E+03  0.76183926283E+03  0.00000000000E+00 0. -1.
        -11    1    3    3    0    0  0.32496199750E+03 -0.26496729533E+03 -0.11013246583E+04  0.11784413309E+04  0.00000000000E+00 0.  1.
         22    1    1    2    0    0 -0.47017454492E+03  0.41017137906E+03 -0.21172781001E+02  0.62430196984E+03  0.00000000000E+00 0.  1.
<mgrwt>
<rscale>  0 0.17696995E+04</rscale>
<asrwt>0</asrwt>
<pdfrwt beam="1">  1        4 0.54495753E-01 0.17696995E+04</pdfrwt>
<pdfrwt beam="2">  1       -4 0.34005541E+00 0.17696995E+04</pdfrwt>
<totfact> 0.10549939E-01</totfact>
</mgrwt>
</event>
<event>
 6    1  0.5196787E-004  0.2194593E+04  0.7818608E-02  0.8520682E-01
          2   -1    0    0  501    0  0.00000000000E+00  0.00000000000E+00  0.13341202571E+04  0.13341202571E+04  0.00000000000E+00 0.  1.
         -2   -1    0    0    0  501 -0.00000000000E+00 -0.00000000000E+00 -0.90251225738E+03  0.90251225738E+03  0.00000000000E+00 0. -1.
         23    2    1    2    0    0  0.40450635122E+03 -0.11659322674E+03  0.12468709726E+04  0.13190960935E+04  0.90043949850E+02 0.  0.
         11    1    3    3    0    0  0.24614434193E+03 -0.50798958957E+02  0.85887002507E+03  0.89488842392E+03  0.00000000000E+00 0. -1.
        -11    1    3    3    0    0  0.15836200928E+03 -0.65794267787E+02  0.38800094753E+03  0.42420766960E+03  0.00000000000E+00 0.  1.
         22    1    1    2    0    0 -0.40450635122E+03  0.11659322674E+03 -0.81526297292E+03  0.91753642092E+03  0.00000000000E+00 0. -1.
<mgrwt>
<rscale>  0 0.21945933E+04</rscale>
<asrwt>0</asrwt>
<pdfrwt beam="1">  1        2 0.20524927E+00 0.21945933E+04</pdfrwt>
<pdfrwt beam="2">  1       -2 0.13884804E+00 0.21945933E+04</pdfrwt>
<totfact> 0.53002795E+00</totfact>
</mgrwt>
</event>
<event>
 6    1  0.5196787E-004  0.3278060E+04  0.7818608E-02  0.8168501E-01
          2   -1    0    0  501    0  0.00000000000E+00  0.00000000000E+00  0.22518406094E+04  0.22518406094E+04  0.00000000000E+00 0.  1.
         -2   -1    0    0    0  501 -0.00000000000E+00 -0.00000000000E+00 -0.11929881910E+04  0.11929881910E+04  0.00000000000E+00 0. -1.
         23    2    1    2    0    0 -0.12460428839E+04 -0.59533487828E+03  0.14552820853E+04  0.20080953643E+04  0.86916963023E+02 0.  0.
         13    1    3    3    0    0 -0.77944790289E+03 -0.41100209403E+03  0.89356490982E+03  0.12549581677E+04  0.00000000000E+00 0.  1.
        -13    1    3    3    0    0 -0.46659498100E+03 -0.18433278425E+03  0.56171717548E+03  0.75313719658E+03  0.00000000000E+00 0. -1.
         22    1    1    2    0    0  0.12460428839E+04  0.59533487828E+03 -0.39642966687E+03  0.14367334362E+04  0.00000000000E+00 0. -1.
<mgrwt>
<rscale>  0 0.32780599E+04</rscale>
<asrwt>0</asrwt>
<pdfrwt beam="1">  1        2 0.34643702E+00 0.32780599E+04</pdfrwt>
<pdfrwt beam="2">  1       -2 0.18353665E+00 0.32780599E+04</pdfrwt>
<totfact> 0.69251516E-01</totfact>
</mgrwt>
</event>
<event>
 6    1  0.5196787E-004  0.5916940E+04  0.7818608E-02  0.7700786E-01
          2   -1    0    0  501    0  0.00000000000E+00  0.00000000000E+00  0.24054209402E+04  0.24054209402E+04  0.00000000000E+00 0.  1.
         -2   -1    0    0    0  501 -0.00000000000E+00 -0.00000000000E+00 -0.36386746913E+04  0.36386746913E+04  0.00000000000E+00 0. -1.
         23    2    1    2    0    0  0.27282986896E+04 -0.34944254534E+03  0.49377533344E+03  0.27962727775E+04  0.97997622550E+02 0.  0.
         13    1    3    3    0    0  0.14941943028E+04 -0.14917669461E+03  0.29490613410E+03  0.15303071354E+04  0.00000000000E+00 0. -1.
        -13    1    3    3    0    0  0.12341043868E+04 -0.20026585073E+03  0.19886919934E+03  0.12659656421E+04  0.00000000000E+00 0.  1.
         22    1    1    2    0    0 -0.27282986896E+04  0.34944254534E+03 -0.17270290845E+04  0.32478228540E+04  0.00000000000E+00 0. -1.
<mgrwt>
<rscale>  0 0.59169398E+04</rscale>
<asrwt>0</asrwt>
<pdfrwt beam="1">  1        2 0.37006476E+00 0.59169398E+04</pdfrwt>
<pdfrwt beam="2">  1       -2 0.55979611E+00 0.59169398E+04</pdfrwt>
<totfact> 0.20763361E-03</totfact>
</mgrwt>
</event>
<event>
 6    1  0.5196787E-004  0.3785237E+04  0.7818608E-02  0.8049330E-01
          2   -1    0    0  501    0  0.00000000000E+00  0.00000000000E+00  0.50266385430E+04  0.50266385430E+04  0.00000000000E+00 0.  1.
         -2   -1    0    0    0  501 -0.00000000000E+00 -0.00000000000E+00 -0.71260438060E+03  0.71260438060E+03  0.00000000000E+00 0. -1.
         23    2    1    2    0    0  0.12120889356E+04 -0.12736670577E+04  0.11009611827E+04  0.20765628482E+04  0.92792105810E+02 0.  0.
         11    1    3    3    0    0  0.67429369975E+03 -0.72857086869E+03  0.56959255364E+03  0.11445187554E+04  0.00000000000E+00 0. -1.
        -11    1    3    3    0    0  0.53779523589E+03 -0.54509618902E+03  0.53136862903E+03  0.93204409281E+03  0.00000000000E+00 0.  1.
         22    1    1    2    0    0 -0.12120889356E+04  0.12736670577E+04  0.32130729798E+04  0.36626800754E+04  0.00000000000E+00 0.  1.
<mgrwt>
<rscale>  0 0.37852369E+04</rscale>
<asrwt>0</asrwt>
<pdfrwt beam="1">  1        2 0.77332899E+00 0.37852369E+04</pdfrwt>
<pdfrwt beam="2">  1       -2 0.10963145E+00 0.37852369E+04</pdfrwt>
<totfact> 0.16706722E-02</totfact>
</mgrwt>
</event>
<event>
 6    1  0.5196787E-004  0.2383898E+04  0.7818608E-02  0.8445556E-01
         -2   -1    0    0    0  501 -0.00000000000E+00  0.00000000000E+00  0.40482455143E+03  0.40482455143E+03  0.00000000000E+00 0. -1.
          2   -1    0    0  501    0  0.00000000000E+00 -0.00000000000E+00 -0.35095276500E+04  0.35095276500E+04  0.00000000000E+00 0.  1.
         23    2    1    2    0    0  0.40081675548E+03  0.87286185103E+03 -0.40051791905E+03  0.10446554635E+04  0.91370408394E+02 0.  0.
         13    1    3    3    0    0  0.11764068425E+03  0.19954569939E+03 -0.63322792268E+02  0.24014077696E+03  0.00000000000E+00 0.  1.
        -13    1    3    3    0    0  0.28317607123E+03  0.67331615164E+03 -0.33719512679E+03  0.80451468657E+03  0.00000000000E+00 0. -1.
         22    1    1    2    0    0 -0.40081675548E+03 -0.87286185103E+03 -0.27041851795E+04  0.28696967379E+04  0.00000000000E+00 0.  1.
<mgrwt>
<rscale>  0 0.23838985E+04</rscale>
<asrwt>0</asrwt>
<pdfrwt beam="1">  1        2 0.53992732E+00 0.23838985E+04</pdfrwt>
<pdfrwt beam="2">  1       -2 0.62280702E-01 0.23838985E+04</pdfrwt>
<totfact> 0.17282779E+00</totfact>
</mgrwt>
</event>
<event>
 6    1  0.5196787E-004  0.1105743E+04  0.7818608E-02  0.9199612E-01
          2   -1    0    0  501    0  0.00000000000E+00  0.00000000000E+00  0.38905916459E+03  0.38905916459E+03  0.00000000000E+00 0.  1.
         -2   -1    0    0    0  501 -0.00000000000E+00 -0.00000000000E+00 -0.78565702355E+03  0.78565702355E+03  0.00000000000E+00 0. -1.
         23    2    1    2    0    0  0.19567899165E+03 -0.15046710369E+03 -0.72058589942E+03  0.76740934136E+03  0.93501025144E+02 0.  0.
         13    1    3    3    0    0  0.65236515911E+02 -0.25969901719E+01 -0.21649549047E+03  0.22612572777E+03  0.00000000000E+00 0. -1.
        -13    1    3    3    0    0  0.13044247574E+03 -0.14787011351E+03 -0.50409040896E+03  0.54128361360E+03  0.00000000000E+00 0.  1.
         22    1    1    2    0    0 -0.19567899165E+03  0.15046710369E+03  0.32398804046E+03  0.40730684677E+03  0.00000000000E+00 0.  1.
<mgrwt>
<rscale>  0 0.11057433E+04</rscale>
<asrwt>0</asrwt>
<pdfrwt beam="1">  1        2 0.59855256E-01 0.11057433E+04</pdfrwt>
<pdfrwt beam="2">  1       -2 0.12087031E+00 0.11057433E+04</pdfrwt>
<totfact> 0.42453009E+01</totfact>
</mgrwt>
</event>
<event>
 6    1  0.5196787E-004  0.3264944E+04  0.7818608E-02  0.8171873E-01
          2   -1    0    0  501    0  0.00000000000E+00  0.00000000000E+00  0.30607916917E+04  0.30607916917E+04  0.00000000000E+00 0.  1.
         -2   -1    0    0    0  501 -0.00000000000E+00 -0.00000000000E+00 -0.87067805674E+03  0.87067805674E+03  0.00000000000E+00 0. -1.
         23    2    1    2    0    0  0.10071454396E+04  0.12258961378E+04  0.63973399274E+03  0.17131730343E+04  0.92406639174E+02 0.  0.
         13    1    3    3    0    0  0.29938111950E+03  0.32250850712E+03  0.21174442007E+03  0.48834054850E+03  0.00000000000E+00 0.  1.
        -13    1    3    3    0    0  0.70776432007E+03  0.90338763064E+03  0.42798957267E+03  0.12248324858E+04  0.00000000000E+00 0. -1.
         22    1    1    2    0    0 -0.10071454396E+04 -0.12258961378E+04  0.15503796422E+04  0.22182967141E+04  0.00000000000E+00 0.  1.
<mgrwt>
<rscale>  0 0.32649436E+04</rscale>
<asrwt>0</asrwt>
<pdfrwt beam="1">  1        2 0.47089102E+00 0.32649436E+04</pdfrwt>
<pdfrwt beam="2">  1       -2 0.13395047E+00 0.32649436E+04</pdfrwt>
<totfact> 0.53688801E-01</totfact>
</mgrwt>
</event>
<event>
 6    1  0.5196787E-004  0.1931442E+04  0.7818608E-02  0.8639362E-01
          2   -1    0    0  501    0  0.00000000000E+00  0.00000000000E+00  0.10507919848E+04  0.10507919848E+04  0.00000000000E+00 0.  1.
         -2   -1    0    0    0  501 -0.00000000000E+00 -0.00000000000E+00 -0.88753711437E+03  0.88753711437E+03  0.00000000000E+00 0. -1.
         23    2    1    2    0    0  0.15767653662E+03 -0.44187362865E+03  0.92646209761E+03  0.10424499413E+04  0.90860706114E+02 0.  0.
         11    1    3    3    0    0  0.55528259262E+02 -0.24853681678E+03  0.56937456700E+03  0.62373178083E+03  0.00000000000E+00 0. -1.
        -11    1    3    3    0    0  0.10214827736E+03 -0.19333681187E+03  0.35708753061E+03  0.41871816047E+03  0.00000000000E+00 0.  1.
         22    1    1    2    0    0 -0.15767653662E+03  0.44187362865E+03 -0.76320722718E+03  0.89587915788E+03  0.00000000000E+00 0. -1.
<mgrwt>
<rscale>  0 0.19314418E+04</rscale>
<asrwt>0</asrwt>
<pdfrwt beam="1">  1        2 0.16166031E+00 0.19314418E+04</pdfrwt>
<pdfrwt beam="2">  1       -2 0.13654417E+00 0.19314418E+04</pdfrwt>
<totfact> 0.83700969E+00</totfact>
</mgrwt>
</event>
<event>
 6    1  0.5196787E-004  0.1890017E+04  0.7818608E-02  0.8659841E-01
          2   -1    0    0  501    0  0.00000000000E+00  0.00000000000E+00  0.30284319732E+04  0.30284319732E+04  0.00000000000E+00 0.  1.
         -2   -1    0    0    0  501 -0.00000000000E+00 -0.00000000000E+00 -0.29488578417E+03  0.29488578417E+03  0.00000000000E+00 0. -1.
         23    2    1    2    0    0  0.11880403173E+03 -0.37320147828E+03  0.28779599360E+04  0.29058862400E+04  0.90153786952E+02 0.  0.
         13    1    3    3    0    0 -0.15622410070E+00 -0.13871709546E+03  0.94617809140E+03  0.95629254814E+03  0.00000000000E+00 0.  1.
        -13    1    3    3    0    0  0.11896025583E+03 -0.23448438282E+03  0.19317818446E+04  0.19495936919E+04  0.00000000000E+00 0. -1.
         22    1    1    2    0    0 -0.11880403173E+03  0.37320147828E+03 -0.14441374700E+03  0.41743151734E+03  0.00000000000E+00 0. -1.
<mgrwt>
<rscale>  0 0.18900175E+04</rscale>
<asrwt>0</asrwt>
<pdfrwt beam="1">  1        2 0.46591259E+00 0.18900175E+04</pdfrwt>
<pdfrwt beam="2">  1       -2 0.45367046E-01 0.18900175E+04</pdfrwt>
<totfact> 0.72400583E+00</totfact>
</mgrwt>
</event>
<event>
 6    1  0.5196787E-004  0.2647679E+04  0.7818608E-02  0.8352184E-01
         -2   -1    0    0    0  501 -0.00000000000E+00  0.00000000000E+00  0.96481688080E+03  0.96481688080E+03  0.00000000000E+00 0. -1.
          2   -1    0    0  501    0  0.00000000000E+00 -0.00000000000E+00 -0.18164598276E+04  0.18164598276E+04  0.00000000000E+00 0.  1.
         23    2    1    2    0    0  0.10005439831E+04 -0.17096355589E+03  0.46386200710E+03  0.11196900921E+04  0.90670509074E+02 0.  0.
         13    1    3    3    0    0  0.56554105819E+03 -0.96322757544E+02  0.31131491581E+03  0.65271106849E+03  0.00000000000E+00 0.  1.
        -13    1    3    3    0    0  0.43500292493E+03 -0.74640798345E+02  0.15254709129E+03  0.46697902366E+03  0.00000000000E+00 0. -1.
         22    1    1    2    0    0 -0.10005439831E+04  0.17096355589E+03 -0.13155049539E+04  0.16615866163E+04  0.00000000000E+00 0.  1.
<mgrwt>
<rscale>  0 0.26476791E+04</rscale>
<asrwt>0</asrwt>
<pdfrwt beam="1">  1        2 0.27945536E+00 0.26476791E+04</pdfrwt>
<pdfrwt beam="2">  1       -2 0.14843337E+00 0.26476791E+04</pdfrwt>
<totfact> 0.22937062E+00</totfact>
</mgrwt>
</event>
<event>
 6    1  0.5196787E-004  0.1554466E+04  0.7818608E-02  0.8849020E-01
         -3   -1    0    0    0  501 -0.00000000000E+00  0.00000000000E+00  0.81673642817E+03  0.81673642817E+03  0.00000000000E+00 0. -1.
          3   -1    0    0  501    0  0.00000000000E+00 -0.00000000000E+00 -0.73964028172E+03  0.73964028172E+03  0.00000000000E+00 0.  1.
         23    2    1    2    0    0 -0.12132047510E+03  0.65611479247E+03 -0.35512993612E+03  0.76137692056E+03  0.91500082325E+02 0.  0.
         11    1    3    3    0    0 -0.87889594574E+02  0.27167077914E+03 -0.12181526951E+03  0.31043284774E+03  0.00000000000E+00 0. -1.
        -11    1    3    3    0    0 -0.33430880527E+02  0.38444401333E+03 -0.23331466661E+03  0.45094407282E+03  0.00000000000E+00 0.  1.
         22    1    1    2    0    0  0.12132047510E+03 -0.65611479247E+03  0.43222608257E+03  0.79499978933E+03  0.00000000000E+00 0. -1.
<mgrwt>
<rscale>  0 0.15544660E+04</rscale>
<asrwt>0</asrwt>
<pdfrwt beam="1">  1        3 0.11379081E+00 0.15544660E+04</pdfrwt>
<pdfrwt beam="2">  1       -3 0.12565176E+00 0.15544660E+04</pdfrwt>
<totfact> 0.81941445E-01</totfact>
</mgrwt>
</event>
<event>
 6    1  0.5196787E-004  0.2919259E+04  0.7818608E-02  0.8267170E-01
         -2   -1    0    0    0  501 -0.00000000000E+00  0.00000000000E+00  0.13090748111E+04  0.13090748111E+04  0.00000000000E+00 0. -1.
          2   -1    0    0  501    0  0.00000000000E+00 -0.00000000000E+00 -0.16274993198E+04  0.16274993198E+04  0.00000000000E+00 0.  1.
         23    2    1    2    0    0 -0.12171053106E+04 -0.15952595130E+02  0.64829594862E+03  0.13821776998E+04  0.92345733405E+02 0.  0.
         11    1    3    3    0    0 -0.10090442500E+04 -0.25691430196E+02  0.49951200382E+03  0.11262071701E+04  0.00000000000E+00 0. -1.
        -11    1    3    3    0    0 -0.20806106061E+03  0.97388350666E+01  0.14878394480E+03  0.25597052971E+03  0.00000000000E+00 0.  1.
         22    1    1    2    0    0  0.12171053106E+04  0.15952595130E+02 -0.96672045730E+03  0.15543964311E+04  0.00000000000E+00 0.  1.
<mgrwt>
<rscale>  0 0.29192591E+04</rscale>
<asrwt>0</asrwt>
<pdfrwt beam="1">  1        2 0.25038451E+00 0.29192591E+04</pdfrwt>
<pdfrwt beam="2">  1       -2 0.20139613E+00 0.29192591E+04</pdfrwt>
<totfact> 0.12079896E+00</totfact>
</mgrwt>
</event>
<event>
 6    1  0.5196787E-004  0.5652807E+03  0.7818608E-02  0.9980176E-01
          2   -1    0    0  501    0  0.00000000000E+00  0.00000000000E+00  0.52437383525E+03  0.52437383525E+03  0.00000000000E+00 0.  1.
         -2   -1    0    0    0  501 -0.00000000000E+00 -0.00000000000E+00 -0.15234469108E+03  0.15234469108E+03  0.00000000000E+00 0. -1.
         23    2    1    2    0    0 -0.48276148446E+02  0.39071862752E+02  0.51238171306E+03  0.52323875385E+03  0.85945195835E+02 0.  0.
         13    1    3    3    0    0  0.24082593274E+02  0.10874219799E+01  0.13096966523E+03  0.13316984266E+03  0.00000000000E+00 0. -1.
        -13    1    3    3    0    0 -0.72358741720E+02  0.37984440772E+02  0.38141204783E+03  0.39006891119E+03  0.00000000000E+00 0.  1.
         22    1    1    2    0    0  0.48276148446E+02 -0.39071862752E+02 -0.14035256889E+03  0.15347977248E+03  0.00000000000E+00 0. -1.
<mgrwt>
<rscale>  0 0.56528071E+03</rscale>
<asrwt>0</asrwt>
<pdfrwt beam="1">  1        2 0.80672897E-01 0.56528071E+03</pdfrwt>
<pdfrwt beam="2">  1       -2 0.23437645E-01 0.56528071E+03</pdfrwt>
<totfact> 0.94116962E+02</totfact>
</mgrwt>
</event>
<event>
 6    1  0.5196787E-004  0.2885390E+04  0.7818608E-02  0.8277238E-01
         -2   -1    0    0    0  501 -0.00000000000E+00  0.00000000000E+00  0.92864548322E+03  0.92864548322E+03  0.00000000000E+00 0.  1.
          2   -1    0    0  501    0  0.00000000000E+00 -0.00000000000E+00 -0.22412949661E+04  0.22412949661E+04  0.00000000000E+00 0. -1.
         23    2    1    2    0    0  0.52716001510E+03 -0.12065594090E+04 -0.13069427806E+02  0.13199156905E+04  0.91232292023E+02 0.  0.
         13    1    3    3    0    0  0.35138595553E+03 -0.74254345445E+03 -0.44803833597E+02  0.82270909501E+03  0.00000000000E+00 0. -1.
        -13    1    3    3    0    0  0.17577405957E+03 -0.46401595451E+03  0.31734405791E+02  0.49720659546E+03  0.00000000000E+00 0.  1.
         22    1    1    2    0    0 -0.52716001510E+03  0.12065594090E+04 -0.12995800551E+04  0.18500247589E+04  0.00000000000E+00 0. -1.
<mgrwt>
<rscale>  0 0.28853897E+04</rscale>
<asrwt>0</asrwt>
<pdfrwt beam="1">  1        2 0.34481461E+00 0.28853897E+04</pdfrwt>
<pdfrwt beam="2">  1       -2 0.14286854E+00 0.28853897E+04</pdfrwt>
<totfact> 0.14405609E+00</totfact>
</mgrwt>
</event>
<event>
 6    1  0.5196787E-004  0.3068559E+04  0.7818608E-02  0.8224420E-01
          2   -1    0    0  501    0  0.00000000000E+00  0.00000000000E+00  0.15057923212E+04  0.15057923212E+04  0.00000000000E+00 0.  1.
         -2   -1    0    0    0  501 -0.00000000000E+00 -0.00000000000E+00 -0.15633061160E+04  0.15633061160E+04  0.00000000000E+00 0. -1.
         23    2    1    2    0    0 -0.94158604133E+03  0.11353863241E+04  0.38823499111E+03  0.15281966368E+04  0.94721561306E+02 0.  0.
         11    1    3    3    0    0 -0.13853088789E+03  0.12413351777E+03  0.64853219631E+02  0.19699207403E+03  0.00000000000E+00 0. -1.
        -11    1    3    3    0    0 -0.80305515344E+03  0.10112528063E+04  0.32338177148E+03  0.13312045628E+04  0.00000000000E+00 0.  1.
         22    1    1    2    0    0  0.94158604133E+03 -0.11353863241E+04 -0.44574878599E+03  0.15409018004E+04  0.00000000000E+00 0.  1.
<mgrwt>
<rscale>  0 0.30685595E+04</rscale>
<asrwt>0</asrwt>
<pdfrwt beam="1">  1        2 0.23166036E+00 0.30685595E+04</pdfrwt>
<pdfrwt beam="2">  1       -2 0.24050863E+00 0.30685595E+04</pdfrwt>
<totfact> 0.78867623E-01</totfact>
</mgrwt>
</event>
<event>
 6    1  0.5196787E-004  0.1766400E+04  0.7818608E-02  0.8724374E-01
         -2   -1    0    0    0  501 -0.00000000000E+00  0.00000000000E+00  0.24367807292E+03  0.24367807292E+03  0.00000000000E+00 0. -1.
          2   -1    0    0  501    0  0.00000000000E+00 -0.00000000000E+00 -0.32011183988E+04  0.32011183988E+04  0.00000000000E+00 0.  1.
         23    2    1    2    0    0  0.30120621185E+03  0.63518403643E+03 -0.25177665152E+04  0.26156420820E+04  0.90836853788E+02 0.  0.
         13    1    3    3    0    0  0.22249161536E+03  0.54750354723E+03 -0.21049645173E+04  0.21863527328E+04  0.00000000000E+00 0. -1.
        -13    1    3    3    0    0  0.78714596489E+02  0.87680489197E+02 -0.41280199787E+03  0.42928934919E+03  0.00000000000E+00 0.  1.
         22    1    1    2    0    0 -0.30120621185E+03 -0.63518403643E+03 -0.43967381073E+03  0.82915438974E+03  0.00000000000E+00 0. -1.
<mgrwt>
<rscale>  0 0.17664001E+04</rscale>
<asrwt>0</asrwt>
<pdfrwt beam="1">  1        2 0.49247972E+00 0.17664001E+04</pdfrwt>
<pdfrwt beam="2">  1       -2 0.37488937E-01 0.17664001E+04</pdfrwt>
<totfact> 0.82718601E+00</totfact>
</mgrwt>
</event>
<event>
 6    1  0.5196787E-004  0.4002812E+04  0.7818608E-02  0.8003979E-01
          2   -1    0    0  501    0  0.00000000000E+00  0.00000000000E+00  0.14548352798E+04  0.14548352798E+04  0.00000000000E+00 0.  1.
         -2   -1    0    0    0  501 -0.00000000000E+00 -0.00000000000E+00 -0.27533196690E+04  0.27533196690E+04  0.00000000000E+00 0. -1.
         23    2    1    2    0    0  0.22743840695E+03 -0.18983662932E+04 -0.31048658800E+02  0.19142682596E+04  0.89085007633E+02 0.  0.
         13    1    3    3    0    0  0.18285320553E+02 -0.47129117014E+03 -0.13625401565E+02  0.47184252836E+03  0.00000000000E+00 0. -1.
        -13    1    3    3    0    0  0.20915308640E+03 -0.14270751230E+04 -0.17423257235E+02  0.14424257313E+04  0.00000000000E+00 0.  1.
         22    1    1    2    0    0 -0.22743840695E+03  0.18983662932E+04 -0.12674357304E+04  0.22938866891E+04  0.00000000000E+00 0. -1.
<mgrwt>
<rscale>  0 0.40028123E+04</rscale>
<asrwt>0</asrwt>
<pdfrwt beam="1">  1        2 0.22382081E+00 0.40028123E+04</pdfrwt>
<pdfrwt beam="2">  1       -2 0.42358764E+00 0.40028123E+04</pdfrwt>
<totfact> 0.55112377E-02</totfact>
</mgrwt>
</event>
<event>
 6    1  0.5196787E-004  0.3737357E+04  0.7818608E-02  0.8059733E-01
         -2   -1    0    0    0  501 -0.00000000000E+00  0.00000000000E+00  0.92260839741E+03  0.92260839741E+03  0.00000000000E+00 0. -1.
          2   -1    0    0  501    0  0.00000000000E+00 -0.00000000000E+00 -0.37848778105E+04  0.37848778105E+04  0.00000000000E+00 0.  1.
         23    2    1    2    0    0 -0.22664039251E+03  0.15981001796E+04 -0.24869093476E+03  0.16356654915E+04  0.90908566704E+02 0.  0.
         13    1    3    3    0    0 -0.11272411061E+03  0.10147116870E+04 -0.18862160548E+03  0.10382314977E+04  0.00000000000E+00 0.  1.
        -13    1    3    3    0    0 -0.11391628190E+03  0.58338849258E+03 -0.60069329281E+02  0.59743399374E+03  0.00000000000E+00 0. -1.
         22    1    1    2    0    0  0.22664039251E+03 -0.15981001796E+04 -0.26135784783E+04  0.30718207164E+04  0.00000000000E+00 0.  1.
<mgrwt>
<rscale>  0 0.37373574E+04</rscale>
<asrwt>0</asrwt>
<pdfrwt beam="1">  1        2 0.58228890E+00 0.37373574E+04</pdfrwt>
<pdfrwt beam="2">  1       -2 0.14193975E+00 0.37373574E+04</pdfrwt>
<totfact> 0.14047004E-01</totfact>
</mgrwt>
</event>
<event>
 6    1  0.5196787E-004  0.2359098E+04  0.7818608E-02  0.8454977E-01
         -2   -1    0    0    0  501 -0.00000000000E+00  0.00000000000E+00  0.14147323695E+04  0.14147323695E+04  0.00000000000E+00 0. -1.
          2   -1    0    0  501    0  0.00000000000E+00 -0.00000000000E+00 -0.98346193162E+03  0.98346193162E+03  0.00000000000E+00 0.  1.
         23    2    1    2    0    0 -0.19407214967E+03  0.11055029134E+04  0.57882594908E+03  0.12661283491E+04  0.90778997556E+02 0.  0.
         13    1    3    3    0    0 -0.92917302196E+02  0.77116542705E+03  0.40321903459E+03  0.87516588758E+03  0.00000000000E+00 0. -1.
        -13    1    3    3    0    0 -0.10115484748E+03  0.33433748631E+03  0.17560691450E+03  0.39096246155E+03  0.00000000000E+00 0.  1.
         22    1    1    2    0    0  0.19407214967E+03 -0.11055029134E+04 -0.14755551122E+03  0.11320659520E+04  0.00000000000E+00 0.  1.
<mgrwt>
<rscale>  0 0.23590976E+04</rscale>
<asrwt>0</asrwt>
<pdfrwt beam="1">  1        2 0.15130184E+00 0.23590976E+04</pdfrwt>
<pdfrwt beam="2">  1       -2 0.21765113E+00 0.23590976E+04</pdfrwt>
<totfact> 0.23820270E+00</totfact>
</mgrwt>
</event>
<event>
 6    1  0.5196787E-004  0.2807868E+04  0.7818608E-02  0.8300830E-01
         -2   -1    0    0    0  501 -0.00000000000E+00  0.00000000000E+00  0.18996288278E+04  0.18996288278E+04  0.00000000000E+00 0. -1.
          2   -1    0    0  501    0  0.00000000000E+00 -0.00000000000E+00 -0.10375875444E+04  0.10375875444E+04  0.00000000000E+00 0.  1.
         23    2    1    2    0    0 -0.14518484557E+03  0.13287034198E+04 -0.12684441973E+02  0.13398195799E+04  0.91783410706E+02 0.  0.
         13    1    3    3    0    0 -0.19946921644E+02  0.25744995127E+03 -0.37825958437E+02  0.26097731745E+03  0.00000000000E+00 0. -1.
        -13    1    3    3    0    0 -0.12523792393E+03  0.10712534685E+04  0.25141516464E+02  0.10788422625E+04  0.00000000000E+00 0.  1.
         22    1    1    2    0    0  0.14518484557E+03 -0.13287034198E+04  0.87472572547E+03  0.15973967923E+04  0.00000000000E+00 0. -1.
<mgrwt>
<rscale>  0 0.28078684E+04</rscale>
<asrwt>0</asrwt>
<pdfrwt beam="1">  1        2 0.15962885E+00 0.28078684E+04</pdfrwt>
<pdfrwt beam="2">  1       -2 0.29225059E+00 0.28078684E+04</pdfrwt>
<totfact> 0.73472476E-01</totfact>
</mgrwt>
</event>
<event>
 6    1  0.5196787E-004  0.5962155E+03  0.7818608E-02  0.9913289E-01
          2   -1    0    0  501    0  0.00000000000E+00  0.00000000000E+00  0.24393778071E+04  0.24393778071E+04  0.00000000000E+00 0.  1.
         -2   -1    0    0    0  501 -0.00000000000E+00 -0.00000000000E+00 -0.36430700813E+02  0.36430700813E+02  0.00000000000E+00 0. -1.
         23    2    1    2    0    0  0.15548917843E+03  0.23473428466E+03  0.10813276884E+04  0.11245295009E+04  0.12656997960E+03 0.  0.
         11    1    3    3    0    0 -0.17410861883E+02  0.58131048485E+02  0.24861588810E+03  0.25591447150E+03  0.00000000000E+00 0.  1.
        -11    1    3    3    0    0  0.17290004032E+03  0.17660323618E+03  0.83271180031E+03  0.86861502943E+03  0.00000000000E+00 0. -1.
         22    1    1    2    0    0 -0.15548917843E+03 -0.23473428466E+03  0.13216194179E+04  0.13512790070E+04  0.00000000000E+00 0.  1.
<mgrwt>
<rscale>  0 0.59621554E+03</rscale>
<asrwt>0</asrwt>
<pdfrwt beam="1">  1        2 0.37528876E+00 0.59621554E+03</pdfrwt>
<pdfrwt beam="2">  1       -2 0.56047251E-02 0.59621554E+03</pdfrwt>
<totfact> 0.68396007E+02</totfact>
</mgrwt>
</event>
<event>
 6    1  0.5196787E-004  0.1170516E+04  0.7818608E-02  0.9139063E-01
          2   -1    0    0  501    0  0.00000000000E+00  0.00000000000E+00  0.11727787882E+04  0.11727787882E+04  0.00000000000E+00 0.  1.
         -2   -1    0    0    0  501 -0.00000000000E+00 -0.00000000000E+00 -0.29206440312E+03  0.29206440312E+03  0.00000000000E+00 0. -1.
         23    2    1    2    0    0 -0.15141716127E+03  0.56023625450E+03  0.38779821331E+03  0.70342466650E+03  0.87332637650E+02 0.  0.
         11    1    3    3    0    0 -0.53244625553E+02  0.24576640123E+03  0.21798159898E+03  0.33279436837E+03  0.00000000000E+00 0. -1.
        -11    1    3    3    0    0 -0.98172535714E+02  0.31446985327E+03  0.16981661434E+03  0.37063029813E+03  0.00000000000E+00 0.  1.
         22    1    1    2    0    0  0.15141716127E+03 -0.56023625450E+03  0.49291617180E+03  0.76141852486E+03  0.00000000000E+00 0. -1.
<mgrwt>
<rscale>  0 0.11705160E+04</rscale>
<asrwt>0</asrwt>
<pdfrwt beam="1">  1        2 0.18042750E+00 0.11705160E+04</pdfrwt>
<pdfrwt beam="2">  1       -2 0.44932986E-01 0.11705160E+04</pdfrwt>
<totfact> 0.91286226E+01</totfact>
</mgrwt>
</event>
<event>
 6    1  0.5196787E-004  0.2404504E+04  0.7818608E-02  0.8437819E-01
         -2   -1    0    0    0  501 -0.00000000000E+00  0.00000000000E+00  0.44396938534E+03  0.44396938534E+03  0.00000000000E+00 0. -1.
          2   -1    0    0  501    0  0.00000000000E+00 -0.00000000000E+00 -0.32556524004E+04  0.32556524004E+04  0.00000000000E+00 0.  1.
         23    2    1    2    0    0 -0.74950732153E+03 -0.17443517325E+03 -0.28257383072E+04  0.29299553606E+04  0.87479023831E+02 0.  0.
         13    1    3    3    0    0 -0.53313019367E+03 -0.14402730456E+03 -0.18888355388E+04  0.19679104046E+04  0.00000000000E+00 0. -1.
        -13    1    3    3    0    0 -0.21637712786E+03 -0.30407868693E+02 -0.93690276840E+03  0.96204495601E+03  0.00000000000E+00 0.  1.
         22    1    1    2    0    0  0.74950732153E+03  0.17443517325E+03  0.14055292177E+02  0.76966642510E+03  0.00000000000E+00 0. -1.
<mgrwt>
<rscale>  0 0.24045041E+04</rscale>
<asrwt>0</asrwt>
<pdfrwt beam="1">  1        2 0.50086960E+00 0.24045041E+04</pdfrwt>
<pdfrwt beam="2">  1       -2 0.68302982E-01 0.24045041E+04</pdfrwt>
<totfact> 0.21036676E+00</totfact>
</mgrwt>
</event>
<event>
 6    1  0.5196787E-004  0.2424123E+04  0.7818608E-02  0.8430527E-01
          2   -1    0    0  501    0  0.00000000000E+00  0.00000000000E+00  0.31091464822E+04  0.31091464822E+04  0.00000000000E+00 0.  1.
         -2   -1    0    0    0  501 -0.00000000000E+00 -0.00000000000E+00 -0.47250703599E+03  0.47250703599E+03  0.00000000000E+00 0. -1.
         23    2    1    2    0    0 -0.31797091039E+03 -0.11586185629E+04  0.15331951203E+04  0.19503681800E+04  0.98723282559E+02 0.  0.
         13    1    3    3    0    0 -0.19428114934E+03 -0.53116410004E+03  0.69457172099E+03  0.89571778019E+03  0.00000000000E+00 0.  1.
        -13    1    3    3    0    0 -0.12368976105E+03 -0.62745446288E+03  0.83862339927E+03  0.10546503998E+04  0.00000000000E+00 0. -1.
         22    1    1    2    0    0  0.31797091039E+03  0.11586185629E+04  0.11034443260E+04  0.16312853382E+04  0.00000000000E+00 0. -1.
<mgrwt>
<rscale>  0 0.24241234E+04</rscale>
<asrwt>0</asrwt>
<pdfrwt beam="1">  1        2 0.47833022E+00 0.24241234E+04</pdfrwt>
<pdfrwt beam="2">  1       -2 0.72693392E-01 0.24241234E+04</pdfrwt>
<totfact> 0.22812681E+00</totfact>
</mgrwt>
</event>
<event>
 6    1  0.5196787E-004  0.3231046E+04  0.7818608E-02  0.8180666E-01
          2   -1    0    0  501    0  0.00000000000E+00  0.00000000000E+00  0.32477233738E+04  0.32477233738E+04  0.00000000000E+00 0.  1.
         -2   -1    0    0    0  501 -0.00000000000E+00 -0.00000000000E+00 -0.80361347292E+03  0.80361347292E+03  0.00000000000E+00 0. -1.
         23    2    1    2    0    0 -0.50850125856E+03 -0.15232838145E+04  0.10177675630E+04  0.19034496117E+04  0.91118070013E+02 0.  0.
         13    1    3    3    0    0 -0.14058711364E+03 -0.52083387082E+03  0.37645091536E+03  0.65783580717E+03  0.00000000000E+00 0. -1.
        -13    1    3    3    0    0 -0.36791414492E+03 -0.10024499437E+04  0.64131664763E+03  0.12456138046E+04  0.00000000000E+00 0.  1.
         22    1    1    2    0    0  0.50850125856E+03  0.15232838145E+04  0.14263423379E+04  0.21478872350E+04  0.00000000000E+00 0.  1.
<mgrwt>
<rscale>  0 0.32310458E+04</rscale>
<asrwt>0</asrwt>
<pdfrwt beam="1">  1        2 0.49964974E+00 0.32310458E+04</pdfrwt>
<pdfrwt beam="2">  1       -2 0.12363284E+00 0.32310458E+04</pdfrwt>
<totfact> 0.49896414E-01</totfact>
</mgrwt>
</event>
<event>
 6    1  0.5196787E-004  0.2733696E+04  0.7818608E-02  0.8324154E-01
         -2   -1    0    0    0  501 -0.00000000000E+00  0.00000000000E+00  0.21989348863E+04  0.21989348863E+04  0.00000000000E+00 0. -1.
          2   -1    0    0  501    0  0.00000000000E+00 -0.00000000000E+00 -0.84962637841E+03  0.84962637841E+03  0.00000000000E+00 0.  1.
         23    2    1    2    0    0 -0.12137763644E+04  0.62094370620E+03  0.60049494251E+03  0.14930723047E+04  0.99229944724E+02 0.  0.
         13    1    3    3    0    0 -0.62818095976E+03  0.35016961809E+03  0.36277220424E+03  0.80550217368E+03  0.00000000000E+00 0. -1.
        -13    1    3    3    0    0 -0.58559540466E+03  0.27077408811E+03  0.23772273827E+03  0.68757013100E+03  0.00000000000E+00 0.  1.
         22    1    1    2    0    0  0.12137763644E+04 -0.62094370620E+03  0.74881356542E+03  0.15554889601E+04  0.00000000000E+00 0.  1.
<mgrwt>
<rscale>  0 0.27336957E+04</rscale>
<asrwt>0</asrwt>
<pdfrwt beam="1">  1        2 0.13071175E+00 0.27336957E+04</pdfrwt>
<pdfrwt beam="2">  1       -2 0.33829767E+00 0.27336957E+04</pdfrwt>
<totfact> 0.51202451E-01</totfact>
</mgrwt>
</event>
<event>
 6    1  0.5196787E-004  0.9375280E+03  0.7818608E-02  0.9379848E-01
         -2   -1    0    0    0  501 -0.00000000000E+00  0.00000000000E+00  0.65721606085E+03  0.65721606085E+03  0.00000000000E+00 0. -1.
          2   -1    0    0  501    0  0.00000000000E+00 -0.00000000000E+00 -0.33434921880E+03  0.33434921880E+03  0.00000000000E+00 0.  1.
         23    2    1    2    0    0  0.30489301150E+02 -0.17369090397E+03  0.61732895068E+03  0.64833640408E+03  0.90260356220E+02 0.  0.
         11    1    3    3    0    0  0.50114100470E+01 -0.10446923977E+03  0.49129579998E+03  0.50230518549E+03  0.00000000000E+00 0. -1.
        -11    1    3    3    0    0  0.25477891103E+02 -0.69221664194E+02  0.12603315070E+03  0.14603121859E+03  0.00000000000E+00 0.  1.
         22    1    1    2    0    0 -0.30489301150E+02  0.17369090397E+03 -0.29446210863E+03  0.34322887557E+03  0.00000000000E+00 0.  1.
<mgrwt>
<rscale>  0 0.93752798E+03</rscale>
<asrwt>0</asrwt>
<pdfrwt beam="1">  1        2 0.51438341E-01 0.93752798E+03</pdfrwt>
<pdfrwt beam="2">  1       -2 0.10111016E+00 0.93752798E+03</pdfrwt>
<totfact> 0.78391602E+01</totfact>
</mgrwt>
</event>
<event>
 6    1  0.5196787E-004  0.2337796E+04  0.7818608E-02  0.8463166E-01
         -1   -1    0    0    0  501 -0.00000000000E+00  0.00000000000E+00  0.38904666130E+03  0.38904666130E+03  0.00000000000E+00 0.  1.
          1   -1    0    0  501    0  0.00000000000E+00 -0.00000000000E+00 -0.35119747556E+04  0.35119747556E+04  0.00000000000E+00 0. -1.
         23    2    1    2    0    0  0.35724147261E+03  0.47740075327E+03  0.11041954374E+03  0.61315434273E+03  0.90734907274E+02 0.  0.
         11    1    3    3    0    0  0.27805023415E+03  0.31195536355E+03  0.54660688149E+02  0.42144498145E+03  0.00000000000E+00 0. -1.
        -11    1    3    3    0    0  0.79191238463E+02  0.16544538971E+03  0.55758855586E+02  0.19170936128E+03  0.00000000000E+00 0.  1.
         22    1    1    2    0    0 -0.35724147261E+03 -0.47740075327E+03 -0.32333476380E+04  0.32878670742E+04  0.00000000000E+00 0. -1.
<mgrwt>
<rscale>  0 0.23377956E+04</rscale>
<asrwt>0</asrwt>
<pdfrwt beam="1">  1        1 0.54030380E+00 0.23377956E+04</pdfrwt>
<pdfrwt beam="2">  1       -1 0.59853334E-01 0.23377956E+04</pdfrwt>
<totfact> 0.62464218E-01</totfact>
</mgrwt>
</event>
<event>
 6    1  0.5196787E-004  0.1387792E+04  0.7818608E-02  0.8962703E-01
          2   -1    0    0  501    0  0.00000000000E+00  0.00000000000E+00  0.14116819843E+04  0.14116819843E+04  0.00000000000E+00 0.  1.
         -2   -1    0    0    0  501 -0.00000000000E+00 -0.00000000000E+00 -0.34107670419E+03  0.34107670419E+03  0.00000000000E+00 0. -1.
         23    2    1    2    0    0 -0.37665476878E+03  0.28514100091E+03  0.11743744467E+04  0.12690829240E+04  0.90785030523E+02 0.  0.
         11    1    3    3    0    0 -0.16194028880E+03  0.10848943076E+03  0.60158732490E+03  0.63237799076E+03  0.00000000000E+00 0.  1.
        -11    1    3    3    0    0 -0.21471447997E+03  0.17665157015E+03  0.57278712179E+03  0.63670493325E+03  0.00000000000E+00 0. -1.
         22    1    1    2    0    0  0.37665476878E+03 -0.28514100091E+03 -0.10376916655E+03  0.48367576450E+03  0.00000000000E+00 0. -1.
<mgrwt>
<rscale>  0 0.13877923E+04</rscale>
<asrwt>0</asrwt>
<pdfrwt beam="1">  1        2 0.21718184E+00 0.13877923E+04</pdfrwt>
<pdfrwt beam="2">  1       -2 0.52473340E-01 0.13877923E+04</pdfrwt>
<totfact> 0.47563742E+01</totfact>
</mgrwt>
</event>
<event>
 6    1  0.5196787E-004  0.1068368E+04  0.7818608E-02  0.9236583E-01
         -2   -1    0    0    0  501 -0.00000000000E+00  0.00000000000E+00  0.28832980029E+03  0.28832980029E+03  0.00000000000E+00 0. -1.
          2   -1    0    0  501    0  0.00000000000E+00 -0.00000000000E+00 -0.98967459406E+03  0.98967459406E+03  0.00000000000E+00 0.  1.
         23    2    1    2    0    0 -0.46929107447E+03 -0.15763338275E+03 -0.12581492825E+03  0.51884892804E+03  0.91062714795E+02 0.  0.
         11    1    3    3    0    0 -0.28947805488E+03 -0.10410248530E+03 -0.12274512441E+03  0.33121177103E+03  0.00000000000E+00 0.  1.
        -11    1    3    3    0    0 -0.17981301959E+03 -0.53530897445E+02 -0.30698038412E+01  0.18763715701E+03  0.00000000000E+00 0. -1.
         22    1    1    2    0    0  0.46929107447E+03  0.15763338275E+03 -0.57552986552E+03  0.75915546631E+03  0.00000000000E+00 0.  1.
<mgrwt>
<rscale>  0 0.10683682E+04</rscale>
<asrwt>0</asrwt>
<pdfrwt beam="1">  1        2 0.15225763E+00 0.10683682E+04</pdfrwt>
<pdfrwt beam="2">  1       -2 0.44358431E-01 0.10683682E+04</pdfrwt>
<totfact> 0.12255820E+02</totfact>
</mgrwt>
</event>
<event>
 6    1  0.5196787E-004  0.1009844E+04  0.7818608E-02  0.9297814E-01
         -2   -1    0    0    0  501 -0.00000000000E+00  0.00000000000E+00  0.27318212492E+03  0.27318212492E+03  0.00000000000E+00 0. -1.
          2   -1    0    0  501    0  0.00000000000E+00 -0.00000000000E+00 -0.93324584367E+03  0.93324584367E+03  0.00000000000E+00 0.  1.
         23    2    1    2    0    0  0.11656928233E+03 -0.98166796012E+02 -0.90268016436E+03  0.91991818324E+03  0.90514459042E+02 0.  0.
         13    1    3    3    0    0 -0.85840042251E+01  0.57645121241E+01 -0.12375142590E+03  0.12418264831E+03  0.00000000000E+00 0.  1.
        -13    1    3    3    0    0  0.12515328656E+03 -0.10393130814E+03 -0.77892873846E+03  0.79573553493E+03  0.00000000000E+00 0. -1.
         22    1    1    2    0    0 -0.11656928233E+03  0.98166796012E+02  0.24261644561E+03  0.28650978535E+03  0.00000000000E+00 0. -1.
<mgrwt>
<rscale>  0 0.10098437E+04</rscale>
<asrwt>0</asrwt>
<pdfrwt beam="1">  1        2 0.14357628E+00 0.10098437E+04</pdfrwt>
<pdfrwt beam="2">  1       -2 0.42028019E-01 0.10098437E+04</pdfrwt>
<totfact> 0.14902269E+02</totfact>
</mgrwt>
</event>
<event>
 6    1  0.5196787E-004  0.1008568E+04  0.7818608E-02  0.9299197E-01
         -2   -1    0    0    0  501 -0.00000000000E+00  0.00000000000E+00  0.34596755772E+03  0.34596755772E+03  0.00000000000E+00 0. -1.
          2   -1    0    0  501    0  0.00000000000E+00 -0.00000000000E+00 -0.73504717302E+03  0.73504717302E+03  0.00000000000E+00 0.  1.
         23    2    1    2    0    0 -0.74609471132E+02 -0.17012223294E+03 -0.69378470076E+03  0.72414873848E+03  0.92444778709E+02 0.  0.
         11    1    3    3    0    0 -0.69152050592E+02 -0.13483641847E+03 -0.39217965539E+03  0.42043756725E+03  0.00000000000E+00 0. -1.
        -11    1    3    3    0    0 -0.54574205403E+01 -0.35285814468E+02 -0.30160504537E+03  0.30371117123E+03  0.00000000000E+00 0.  1.
         22    1    1    2    0    0  0.74609471132E+02  0.17012223294E+03  0.30470508546E+03  0.35686599226E+03  0.00000000000E+00 0. -1.
<mgrwt>
<rscale>  0 0.10085682E+04</rscale>
<asrwt>0</asrwt>
<pdfrwt beam="1">  1        2 0.11308418E+00 0.10085682E+04</pdfrwt>
<pdfrwt beam="2">  1       -2 0.53225778E-01 0.10085682E+04</pdfrwt>
<totfact> 0.12785756E+02</totfact>
</mgrwt>
</event>
<event>
 6    1  0.5196787E-004  0.1695927E+04  0.7818608E-02  0.8763691E-01
          2   -1    0    0  501    0  0.00000000000E+00  0.00000000000E+00  0.90656431915E+03  0.90656431915E+03  0.00000000000E+00 0.  1.
         -2   -1    0    0    0  501 -0.00000000000E+00 -0.00000000000E+00 -0.79315104250E+03  0.79315104250E+03  0.00000000000E+00 0. -1.
         23    2    1    2    0    0  0.66461499106E+02 -0.16967798022E+03  0.88446100764E+03  0.90742605130E+03  0.89123603439E+02 0.  0.
         11    1    3    3    0    0  0.20233918661E+02 -0.12365117749E+02  0.28377437379E+03  0.28476341552E+03  0.00000000000E+00 0. -1.
        -11    1    3    3    0    0  0.46227580445E+02 -0.15731286248E+03  0.60068663386E+03  0.62266263577E+03  0.00000000000E+00 0.  1.
         22    1    1    2    0    0 -0.66461499106E+02  0.16967798022E+03 -0.77104773099E+03  0.79228931036E+03  0.00000000000E+00 0. -1.
<mgrwt>
<rscale>  0 0.16959274E+04</rscale>
<asrwt>0</asrwt>
<pdfrwt beam="1">  1        2 0.13947143E+00 0.16959274E+04</pdfrwt>
<pdfrwt beam="2">  1       -2 0.12202324E+00 0.16959274E+04</pdfrwt>
<totfact> 0.14070358E+01</totfact>
</mgrwt>
</event>
<event>
 6    1  0.5196787E-004  0.1761390E+04  0.7818608E-02  0.8727106E-01
         -2   -1    0    0    0  501 -0.00000000000E+00  0.00000000000E+00  0.63305430315E+03  0.63305430315E+03  0.00000000000E+00 0. -1.
          2   -1    0    0  501    0  0.00000000000E+00 -0.00000000000E+00 -0.12252086360E+04  0.12252086360E+04  0.00000000000E+00 0.  1.
         23    2    1    2    0    0  0.15811034423E+03 -0.49930506101E+03  0.44662116541E+03  0.69492336676E+03  0.95622148985E+02 0.  0.
         13    1    3    3    0    0  0.10341433787E+03 -0.19318035978E+03  0.15312583736E+03  0.26732133987E+03  0.00000000000E+00 0.  1.
        -13    1    3    3    0    0  0.54696006355E+02 -0.30612470123E+03  0.29349532805E+03  0.42760202689E+03  0.00000000000E+00 0. -1.
         22    1    1    2    0    0 -0.15811034423E+03  0.49930506101E+03 -0.10387754983E+04  0.11633395724E+04  0.00000000000E+00 0.  1.
<mgrwt>
<rscale>  0 0.17613899E+04</rscale>
<asrwt>0</asrwt>
<pdfrwt beam="1">  1        2 0.18849363E+00 0.17613899E+04</pdfrwt>
<pdfrwt beam="2">  1       -2 0.97392970E-01 0.17613899E+04</pdfrwt>
<totfact> 0.15234962E+01</totfact>
</mgrwt>
</event>
<event>
 6    1  0.5196787E-004  0.2414647E+04  0.7818608E-02  0.8434040E-01
          2   -1    0    0  501    0  0.00000000000E+00  0.00000000000E+00  0.52961689473E+03  0.52961689473E+03  0.00000000000E+00 0.  1.
         -2   -1    0    0    0  501 -0.00000000000E+00 -0.00000000000E+00 -0.27522358601E+04  0.27522358601E+04  0.00000000000E+00 0. -1.
         23    2    1    2    0    0 -0.12320352774E+02 -0.39979552251E+03 -0.26586735194E+04  0.26901333746E+04  0.91018898744E+02 0.  0.
         11    1    3    3    0    0 -0.33502919274E+02 -0.22959888446E+03 -0.12833366233E+04  0.13041437735E+04  0.00000000000E+00 0. -1.
        -11    1    3    3    0    0  0.21182566500E+02 -0.17019663806E+03 -0.13753368961E+04  0.13859896011E+04  0.00000000000E+00 0.  1.
         22    1    1    2    0    0  0.12320352774E+02  0.39979552251E+03  0.43605455395E+03  0.59171938022E+03  0.00000000000E+00 0.  1.
<mgrwt>
<rscale>  0 0.24146475E+04</rscale>
<asrwt>0</asrwt>
<pdfrwt beam="1">  1        2 0.81479522E-01 0.24146475E+04</pdfrwt>
<pdfrwt beam="2">  1       -2 0.42342090E+00 0.24146475E+04</pdfrwt>
<totfact> 0.26917463E-01</totfact>
</mgrwt>
</event>
<event>
 6    1  0.5196787E-004  0.1395866E+04  0.7818608E-02  0.8956816E-01
         -2   -1    0    0    0  501 -0.00000000000E+00  0.00000000000E+00  0.47793312777E+03  0.47793312777E+03  0.00000000000E+00 0. -1.
          2   -1    0    0  501    0  0.00000000000E+00 -0.00000000000E+00 -0.10192023417E+04  0.10192023417E+04  0.00000000000E+00 0.  1.
         23    2    1    2    0    0 -0.60128571733E+03  0.25445318058E+03 -0.52718309517E+03  0.84407394578E+03  0.90817812879E+02 0.  0.
         11    1    3    3    0    0 -0.10032302479E+03  0.80136741033E+02 -0.91702699961E+02  0.15778463723E+03  0.00000000000E+00 0. -1.
        -11    1    3    3    0    0 -0.50096269253E+03  0.17431643955E+03 -0.43548039521E+03  0.68628930854E+03  0.00000000000E+00 0.  1.
         22    1    1    2    0    0  0.60128571733E+03 -0.25445318058E+03 -0.14086118752E+02  0.65306152368E+03  0.00000000000E+00 0. -1.
<mgrwt>
<rscale>  0 0.13958661E+04</rscale>
<asrwt>0</asrwt>
<pdfrwt beam="1">  1        2 0.15680036E+00 0.13958661E+04</pdfrwt>
<pdfrwt beam="2">  1       -2 0.73528174E-01 0.13958661E+04</pdfrwt>
<totfact> 0.39782573E+01</totfact>
</mgrwt>
</event>
<event>
 6    1  0.5196787E-004  0.1556492E+04  0.7818608E-02  0.8847731E-01
         -2   -1    0    0    0  501 -0.00000000000E+00  0.00000000000E+00  0.28719809141E+03  0.28719809141E+03  0.00000000000E+00 0. -1.
          2   -1    0    0  501    0  0.00000000000E+00 -0.00000000000E+00 -0.21088826434E+04  0.21088826434E+04  0.00000000000E+00 0.  1.
         23    2    1    2    0    0 -0.24073037838E+03  0.64315506978E+03 -0.14684982741E+04  0.16238501308E+04  0.93821679207E+02 0.  0.
         13    1    3    3    0    0 -0.15758487761E+03  0.48365855554E+03 -0.11621396962E+04  0.12685926318E+04  0.00000000000E+00 0. -1.
        -13    1    3    3    0    0 -0.83145500775E+02  0.15949651424E+03 -0.30635857789E+03  0.35525749900E+03  0.00000000000E+00 0.  1.
         22    1    1    2    0    0  0.24073037838E+03 -0.64315506978E+03 -0.35318627790E+03  0.77223060401E+03  0.00000000000E+00 0. -1.
<mgrwt>
<rscale>  0 0.15564923E+04</rscale>
<asrwt>0</asrwt>
<pdfrwt beam="1">  1        2 0.32444348E+00 0.15564923E+04</pdfrwt>
<pdfrwt beam="2">  1       -2 0.44184322E-01 0.15564923E+04</pdfrwt>
<totfact> 0.27164489E+01</totfact>
</mgrwt>
</event>
<event>
 6    1  0.5196787E-004  0.3019054E+04  0.7818608E-02  0.8238311E-01
          2   -1    0    0  501    0  0.00000000000E+00  0.00000000000E+00  0.30367542123E+04  0.30367542123E+04  0.00000000000E+00 0.  1.
         -2   -1    0    0    0  501 -0.00000000000E+00 -0.00000000000E+00 -0.75036430697E+03  0.75036430697E+03  0.00000000000E+00 0. -1.
         23    2    1    2    0    0 -0.18098257196E+03 -0.14136921212E+04  0.17625613512E+04  0.22686731106E+04  0.94736799453E+02 0.  0.
         11    1    3    3    0    0 -0.64934140341E+02 -0.31476019038E+03  0.34897175351E+03  0.47441722647E+03  0.00000000000E+00 0.  1.
        -11    1    3    3    0    0 -0.11604843161E+03 -0.10989319308E+04  0.14135895977E+04  0.17942558841E+04  0.00000000000E+00 0. -1.
         22    1    1    2    0    0  0.18098257196E+03  0.14136921212E+04  0.52382855416E+03  0.15184454087E+04  0.00000000000E+00 0. -1.
<mgrwt>
<rscale>  0 0.30190541E+04</rscale>
<asrwt>0</asrwt>
<pdfrwt beam="1">  1        2 0.46719295E+00 0.30190541E+04</pdfrwt>
<pdfrwt beam="2">  1       -2 0.11544066E+00 0.30190541E+04</pdfrwt>
<totfact> 0.82367658E-01</totfact>
</mgrwt>
</event>
<event>
 6    1  0.5196787E-004  0.8422142E+04  0.7818608E-02  0.7446261E-01
          2   -1    0    0  501    0  0.00000000000E+00  0.00000000000E+00  0.37048008206E+04  0.37048008206E+04  0.00000000000E+00 0.  1.
         -2   -1    0    0    0  501 -0.00000000000E+00 -0.00000000000E+00 -0.47865244408E+04  0.47865244408E+04  0.00000000000E+00 0. -1.
         23    2    1    2    0    0 -0.11432119862E+03 -0.33344913465E+04  0.20486661451E+04  0.39162578348E+04  0.90225153643E+02 0.  0.
         13    1    3    3    0    0 -0.19176573428E+02 -0.15541577153E+04  0.98867004902E+03  0.18420755715E+04  0.00000000000E+00 0.  1.
        -13    1    3    3    0    0 -0.95144625196E+02 -0.17803336311E+04  0.10599960960E+04  0.20741822633E+04  0.00000000000E+00 0. -1.
         22    1    1    2    0    0  0.11432119862E+03  0.33344913465E+04 -0.31303897652E+04  0.45750674266E+04  0.00000000000E+00 0. -1.
<mgrwt>
<rscale>  0 0.84221422E+04</rscale>
<asrwt>0</asrwt>
<pdfrwt beam="1">  1        2 0.56996936E+00 0.84221422E+04</pdfrwt>
<pdfrwt beam="2">  1       -2 0.73638838E+00 0.84221422E+04</pdfrwt>
<totfact> 0.54737921E-05</totfact>
</mgrwt>
</event>
<event>
 6    1  0.5196787E-004  0.2239152E+04  0.7818608E-02  0.8502307E-01
          2   -1    0    0  501    0  0.00000000000E+00  0.00000000000E+00  0.31378674861E+04  0.31378674861E+04  0.00000000000E+00 0.  1.
         -2   -1    0    0    0  501 -0.00000000000E+00 -0.00000000000E+00 -0.39945925350E+03  0.39945925350E+03  0.00000000000E+00 0. -1.
         23    2    1    2    0    0  0.39316063797E+03  0.76129256378E+03  0.23701887417E+03  0.89325972505E+03  0.87139742699E+02 0.  0.
         13    1    3    3    0    0  0.19674496179E+03  0.46417532263E+03  0.11852621014E+03  0.51789552288E+03  0.00000000000E+00 0. -1.
        -13    1    3    3    0    0  0.19641567618E+03  0.29711724115E+03  0.11849266403E+03  0.37536420217E+03  0.00000000000E+00 0.  1.
         22    1    1    2    0    0 -0.39316063797E+03 -0.76129256378E+03  0.25013893584E+04  0.26440670145E+04  0.00000000000E+00 0.  1.
<mgrwt>
<rscale>  0 0.22391518E+04</rscale>
<asrwt>0</asrwt>
<pdfrwt beam="1">  1        2 0.48274883E+00 0.22391518E+04</pdfrwt>
<pdfrwt beam="2">  1       -2 0.61455272E-01 0.22391518E+04</pdfrwt>
<totfact> 0.31960184E+00</totfact>
</mgrwt>
</event>
<event>
 6    1  0.5196787E-004  0.2089016E+04  0.7818608E-02  0.8566098E-01
         -1   -1    0    0    0  501 -0.00000000000E+00  0.00000000000E+00  0.11561034347E+04  0.11561034347E+04  0.00000000000E+00 0. -1.
          1   -1    0    0  501    0  0.00000000000E+00 -0.00000000000E+00 -0.94368416972E+03  0.94368416972E+03  0.00000000000E+00 0.  1.
         23    2    1    2    0    0  0.36980697642E+03 -0.77313974426E+03 -0.49000783015E+03  0.99167836433E+03  0.93893773473E+02 0.  0.
         11    1    3    3    0    0  0.23278750154E+03 -0.44705394759E+03 -0.23810375519E+03  0.55744116386E+03  0.00000000000E+00 0.  1.
        -11    1    3    3    0    0  0.13701947488E+03 -0.32608579667E+03 -0.25190407496E+03  0.43423720046E+03  0.00000000000E+00 0. -1.
         22    1    1    2    0    0 -0.36980697642E+03  0.77313974426E+03  0.70242709511E+03  0.11081092401E+04  0.00000000000E+00 0. -1.
<mgrwt>
<rscale>  0 0.20890156E+04</rscale>
<asrwt>0</asrwt>
<pdfrwt beam="1">  1        1 0.14518218E+00 0.20890156E+04</pdfrwt>
<pdfrwt beam="2">  1       -1 0.17786207E+00 0.20890156E+04</pdfrwt>
<totfact> 0.33286397E+00</totfact>
</mgrwt>
</event>
<event>
 6    1  0.5196787E-004  0.9905697E+03  0.7818608E-02  0.9318949E-01
         -2   -1    0    0    0  501 -0.00000000000E+00  0.00000000000E+00  0.23152840140E+03  0.23152840140E+03  0.00000000000E+00 0. -1.
          2   -1    0    0  501    0  0.00000000000E+00 -0.00000000000E+00 -0.10595117425E+04  0.10595117425E+04  0.00000000000E+00 0.  1.
         23    2    1    2    0    0  0.11200521893E+03  0.22462885088E+03 -0.96764880526E+03  0.10037950715E+04  0.90868287093E+02 0.  0.
         11    1    3    3    0    0  0.22470717329E+02  0.13459760373E+02 -0.22536034292E+03  0.22687746130E+03  0.00000000000E+00 0. -1.
        -11    1    3    3    0    0  0.89534501601E+02  0.21116909051E+03 -0.74228846235E+03  0.77691761024E+03  0.00000000000E+00 0.  1.
         22    1    1    2    0    0 -0.11200521893E+03 -0.22462885088E+03  0.13966546416E+03  0.28724507236E+03  0.00000000000E+00 0. -1.
<mgrwt>
<rscale>  0 0.99056965E+03</rscale>
<asrwt>0</asrwt>
<pdfrwt beam="1">  1        2 0.16300181E+00 0.99056965E+03</pdfrwt>
<pdfrwt beam="2">  1       -2 0.35619754E-01 0.99056965E+03</pdfrwt>
<totfact> 0.17061017E+02</totfact>
</mgrwt>
</event>
<event>
 6    1  0.5196787E-004  0.7423951E+03  0.7818608E-02  0.9647357E-01
          1   -1    0    0  501    0  0.00000000000E+00  0.00000000000E+00  0.98336905076E+03  0.98336905076E+03  0.00000000000E+00 0.  1.
         -1   -1    0    0    0  501 -0.00000000000E+00 -0.00000000000E+00 -0.14011792617E+03  0.14011792617E+03  0.00000000000E+00 0. -1.
         23    2    1    2    0    0  0.22445835839E+03  0.26101235375E+03  0.61470737902E+03  0.71027849794E+03  0.90118695931E+02 0.  0.
         11    1    3    3    0    0  0.11059038794E+03  0.10165130756E+03  0.35100942759E+03  0.38179947680E+03  0.00000000000E+00 0.  1.
        -11    1    3    3    0    0  0.11386797045E+03  0.15936104619E+03  0.26369795143E+03  0.32847902114E+03  0.00000000000E+00 0. -1.
         22    1    1    2    0    0 -0.22445835839E+03 -0.26101235375E+03  0.22854374557E+03  0.41320847898E+03  0.00000000000E+00 0. -1.
<mgrwt>
<rscale>  0 0.74239513E+03</rscale>
<asrwt>0</asrwt>
<pdfrwt beam="1">  1        1 0.15128754E+00 0.74239513E+03</pdfrwt>
<pdfrwt beam="2">  1       -1 0.21556605E-01 0.74239513E+03</pdfrwt>
<totfact> 0.28432430E+02</totfact>
</mgrwt>
</event>
<event>
 6    1  0.5196787E-004  0.2998149E+04  0.7818608E-02  0.8244260E-01
         -2   -1    0    0    0  501 -0.00000000000E+00  0.00000000000E+00  0.15070851138E+04  0.15070851138E+04  0.00000000000E+00 0. -1.
          2   -1    0    0  501    0  0.00000000000E+00 -0.00000000000E+00 -0.14911061551E+04  0.14911061551E+04  0.00000000000E+00 0.  1.
         23    2    1    2    0    0  0.65835085488E+03  0.20247759875E+03  0.13379304790E+04  0.15075609163E+04  0.90878620554E+02 0.  0.
         13    1    3    3    0    0  0.34074970577E+03  0.12956957668E+03  0.78996383022E+03  0.87002384464E+03  0.00000000000E+00 0. -1.
        -13    1    3    3    0    0  0.31760114910E+03  0.72908022071E+02  0.54796664875E+03  0.63753707166E+03  0.00000000000E+00 0.  1.
         22    1    1    2    0    0 -0.65835085488E+03 -0.20247759875E+03 -0.13219515203E+04  0.14906303526E+04  0.00000000000E+00 0.  1.
<mgrwt>
<rscale>  0 0.29981487E+04</rscale>
<asrwt>0</asrwt>
<pdfrwt beam="1">  1        2 0.22940095E+00 0.29981487E+04</pdfrwt>
<pdfrwt beam="2">  1       -2 0.23185925E+00 0.29981487E+04</pdfrwt>
<totfact> 0.91520919E-01</totfact>
</mgrwt>
</event>
<event>
 6    1  0.5196787E-004  0.3121090E+04  0.7818608E-02  0.8209974E-01
         -2   -1    0    0    0  501 -0.00000000000E+00  0.00000000000E+00  0.14863815800E+04  0.14863815800E+04  0.00000000000E+00 0. -1.
          2   -1    0    0  501    0  0.00000000000E+00 -0.00000000000E+00 -0.16384093385E+04  0.16384093385E+04  0.00000000000E+00 0.  1.
         23    2    1    2    0    0  0.11138109177E+04 -0.70184609262E+03  0.76035860876E+03  0.15230382593E+04  0.91310608306E+02 0.  0.
         13    1    3    3    0    0  0.10667833211E+04 -0.68905741951E+03  0.74271241326E+03  0.14712064812E+04  0.00000000000E+00 0. -1.
        -13    1    3    3    0    0  0.47027596577E+02 -0.12788673111E+02  0.17646195506E+02  0.51831778048E+02  0.00000000000E+00 0.  1.
         22    1    1    2    0    0 -0.11138109177E+04  0.70184609262E+03 -0.91238636726E+03  0.16017526592E+04  0.00000000000E+00 0. -1.
<mgrwt>
<rscale>  0 0.31210905E+04</rscale>
<asrwt>0</asrwt>
<pdfrwt beam="1">  1        2 0.25206297E+00 0.31210905E+04</pdfrwt>
<pdfrwt beam="2">  1       -2 0.22867409E+00 0.31210905E+04</pdfrwt>
<totfact> 0.78403792E-01</totfact>
</mgrwt>
</event>
<event>
 6    1  0.5196787E-004  0.4519783E+04  0.7818608E-02  0.7907182E-01
         -2   -1    0    0    0  501 -0.00000000000E+00  0.00000000000E+00  0.12513667356E+04  0.12513667356E+04  0.00000000000E+00 0. -1.
          2   -1    0    0  501    0  0.00000000000E+00 -0.00000000000E+00 -0.40812254100E+04  0.40812254100E+04  0.00000000000E+00 0.  1.
         23    2    1    2    0    0 -0.12597628135E+04  0.16714704389E+04 -0.41296137966E+03  0.21353733060E+04  0.92012392754E+02 0.  0.
         13    1    3    3    0    0 -0.66700531297E+03  0.95466426827E+03 -0.21102569469E+03  0.11835589535E+04  0.00000000000E+00 0. -1.
        -13    1    3    3    0    0 -0.59275750056E+03  0.71680617067E+03 -0.20193568496E+03  0.95181435251E+03  0.00000000000E+00 0.  1.
         22    1    1    2    0    0  0.12597628135E+04 -0.16714704389E+04 -0.24168972948E+04  0.31972188396E+04  0.00000000000E+00 0. -1.
<mgrwt>
<rscale>  0 0.45197831E+04</rscale>
<asrwt>0</asrwt>
<pdfrwt beam="1">  1        2 0.62788083E+00 0.45197831E+04</pdfrwt>
<pdfrwt beam="2">  1       -2 0.19251796E+00 0.45197831E+04</pdfrwt>
<totfact> 0.32935338E-02</totfact>
</mgrwt>
</event>
<event>
 6    1  0.5196787E-004  0.2570312E+04  0.7818608E-02  0.8378356E-01
         -2   -1    0    0    0  501 -0.00000000000E+00  0.00000000000E+00  0.59819035420E+03  0.59819035420E+03  0.00000000000E+00 0. -1.
          2   -1    0    0  501    0  0.00000000000E+00 -0.00000000000E+00 -0.27610383658E+04  0.27610383658E+04  0.00000000000E+00 0.  1.
         23    2    1    2    0    0 -0.12502684084E+04 -0.15508430315E+03 -0.76191480960E+03  0.14751278547E+04  0.90916315760E+02 0.  0.
         11    1    3    3    0    0 -0.43016309790E+03 -0.40414581418E+02 -0.21367263350E+03  0.48200583347E+03  0.00000000000E+00 0.  1.
        -11    1    3    3    0    0 -0.82010531051E+03 -0.11466972173E+03 -0.54824217610E+03  0.99312202123E+03  0.00000000000E+00 0. -1.
         22    1    1    2    0    0  0.12502684084E+04  0.15508430315E+03 -0.14009332020E+04  0.18841008653E+04  0.00000000000E+00 0.  1.
<mgrwt>
<rscale>  0 0.25703124E+04</rscale>
<asrwt>0</asrwt>
<pdfrwt beam="1">  1        2 0.42477513E+00 0.25703124E+04</pdfrwt>
<pdfrwt beam="2">  1       -2 0.92029285E-01 0.25703124E+04</pdfrwt>
<totfact> 0.21720802E+00</totfact>
</mgrwt>
</event>
<event>
 6    1  0.1033925E-003  0.3580519E+04  0.7818608E-02  0.8094969E-01
          2   -1    0    0  501    0  0.00000000000E+00  0.00000000000E+00  0.30884472905E+04  0.30884472905E+04  0.00000000000E+00 0.  1.
         -2   -1    0    0    0  501 -0.00000000000E+00 -0.00000000000E+00 -0.10377479543E+04  0.10377479543E+04  0.00000000000E+00 0. -1.
         23    2    1    2    0    0  0.11913267545E+04 -0.87640569134E+03 -0.13414335527E+03  0.14878465267E+04  0.91359047576E+02 0.  0.
         11    1    3    3    0    0  0.72885738840E+03 -0.55110051853E+03 -0.12572876413E+03  0.92236250806E+03  0.00000000000E+00 0.  1.
        -11    1    3    3    0    0  0.46246936610E+03 -0.32530517282E+03 -0.84145911383E+01  0.56548401868E+03  0.00000000000E+00 0. -1.
         22    1    1    2    0    0 -0.11913267545E+04  0.87640569134E+03  0.21848426915E+04  0.26383487181E+04  0.00000000000E+00 0.  1.
<mgrwt>
<rscale>  0 0.35805194E+04</rscale>
<asrwt>0</asrwt>
<pdfrwt beam="1">  1        2 0.47514573E+00 0.35805194E+04</pdfrwt>
<pdfrwt beam="2">  1       -2 0.15965353E+00 0.35805194E+04</pdfrwt>
<totfact> 0.31633927E-01</totfact>
</mgrwt>
</event>
<event>
 6    1  0.5666993E-004  0.1948620E+04  0.7818608E-02  0.8631026E-01
          1   -1    0    0  501    0  0.00000000000E+00  0.00000000000E+00  0.10850882893E+04  0.10850882893E+04  0.00000000000E+00 0.  1.
         -1   -1    0    0    0  501 -0.00000000000E+00 -0.00000000000E+00 -0.87484165437E+03  0.87484165437E+03  0.00000000000E+00 0. -1.
         23    2    1    2    0    0  0.16905243458E+03  0.55925637656E+03  0.88707863663E+03  0.10658113952E+04  0.87743957848E+02 0.  0.
         13    1    3    3    0    0  0.85273542336E+02  0.37838601244E+03  0.63984577155E+03  0.74823135647E+03  0.00000000000E+00 0.  1.
        -13    1    3    3    0    0  0.83778892248E+02  0.18087036412E+03  0.24723286507E+03  0.31758003869E+03  0.00000000000E+00 0. -1.
         22    1    1    2    0    0 -0.16905243458E+03 -0.55925637656E+03 -0.67683200167E+03  0.89411854854E+03  0.00000000000E+00 0. -1.
<mgrwt>
<rscale>  0 0.19486205E+04</rscale>
<asrwt>0</asrwt>
<pdfrwt beam="1">  1        1 0.16693666E+00 0.19486205E+04</pdfrwt>
<pdfrwt beam="2">  1       -1 0.13459102E+00 0.19486205E+04</pdfrwt>
<totfact> 0.56291037E+00</totfact>
</mgrwt>
</event>
<event>
 6    1  0.5196787E-004  0.1928864E+04  0.7818608E-02  0.8640621E-01
          2   -1    0    0  501    0  0.00000000000E+00  0.00000000000E+00  0.14902796925E+04  0.14902796925E+04  0.00000000000E+00 0.  1.
         -2   -1    0    0    0  501 -0.00000000000E+00 -0.00000000000E+00 -0.62413032468E+03  0.62413032468E+03  0.00000000000E+00 0. -1.
         23    2    1    2    0    0  0.57662323708E+03 -0.76793247580E+03  0.35574060049E+03  0.10268753029E+04  0.75543815118E+02 0.  0.
         11    1    3    3    0    0  0.28919890467E+03 -0.41916399958E+03  0.22221454131E+03  0.55562016466E+03  0.00000000000E+00 0.  1.
        -11    1    3    3    0    0  0.28742433241E+03 -0.34876847622E+03  0.13352605918E+03  0.47125513827E+03  0.00000000000E+00 0. -1.
         22    1    1    2    0    0 -0.57662323708E+03  0.76793247580E+03  0.51040876733E+03  0.10875347143E+04  0.00000000000E+00 0.  1.
<mgrwt>
<rscale>  0 0.19288637E+04</rscale>
<asrwt>0</asrwt>
<pdfrwt beam="1">  1        2 0.22927380E+00 0.19288637E+04</pdfrwt>
<pdfrwt beam="2">  1       -2 0.96020050E-01 0.19288637E+04</pdfrwt>
<totfact> 0.10919879E+01</totfact>
</mgrwt>
</event>
<event>
 6    1  0.5196787E-004  0.1709638E+04  0.7818608E-02  0.8755887E-01
          2   -1    0    0  501    0  0.00000000000E+00  0.00000000000E+00  0.26455182508E+04  0.26455182508E+04  0.00000000000E+00 0.  1.
         -2   -1    0    0    0  501 -0.00000000000E+00 -0.00000000000E+00 -0.27620875423E+03  0.27620875423E+03  0.00000000000E+00 0. -1.
         23    2    1    2    0    0  0.66258090818E+03  0.35173144048E+03  0.18797541503E+04  0.20259631393E+04  0.91227792755E+02 0.  0.
         13    1    3    3    0    0  0.36390034133E+03  0.19100410858E+03  0.90690011216E+03  0.99567757901E+03  0.00000000000E+00 0.  1.
        -13    1    3    3    0    0  0.29868056685E+03  0.16072733190E+03  0.97285403811E+03  0.10302855603E+04  0.00000000000E+00 0. -1.
         22    1    1    2    0    0 -0.66258090818E+03 -0.35173144048E+03  0.48955534635E+03  0.89576386579E+03  0.00000000000E+00 0. -1.
<mgrwt>
<rscale>  0 0.17096377E+04</rscale>
<asrwt>0</asrwt>
<pdfrwt beam="1">  1        2 0.40700279E+00 0.17096377E+04</pdfrwt>
<pdfrwt beam="2">  1       -2 0.42493656E-01 0.17096377E+04</pdfrwt>
<totfact> 0.14313439E+01</totfact>
</mgrwt>
</event>
<event>
 6    1  0.5196787E-004  0.1362948E+04  0.7818608E-02  0.8981084E-01
         -2   -1    0    0    0  501 -0.00000000000E+00  0.00000000000E+00  0.28267955009E+04  0.28267955009E+04  0.00000000000E+00 0.  1.
          2   -1    0    0  501    0  0.00000000000E+00 -0.00000000000E+00 -0.16428740094E+03  0.16428740094E+03  0.00000000000E+00 0. -1.
         23    2    1    2    0    0  0.37185047563E+03  0.40630955453E+03  0.46805493006E+03  0.72856551070E+03  0.91498937190E+02 0.  0.
         11    1    3    3    0    0  0.24035872475E+03  0.24935025389E+03  0.23605361609E+03  0.41912906765E+03  0.00000000000E+00 0. -1.
        -11    1    3    3    0    0  0.13149175087E+03  0.15695930063E+03  0.23200131397E+03  0.30943644305E+03  0.00000000000E+00 0.  1.
         22    1    1    2    0    0 -0.37185047563E+03 -0.40630955453E+03  0.21944531699E+04  0.22625173911E+04  0.00000000000E+00 0.  1.
<mgrwt>
<rscale>  0 0.13629481E+04</rscale>
<asrwt>0</asrwt>
<pdfrwt beam="1">  1        2 0.25274987E-01 0.13629481E+04</pdfrwt>
<pdfrwt beam="2">  1       -2 0.43489158E+00 0.13629481E+04</pdfrwt>
<totfact> 0.93638196E-01</totfact>
</mgrwt>
</event>
<event>
 6    1  0.5196787E-004  0.3194791E+04  0.7818608E-02  0.8190194E-01
          2   -1    0    0  501    0  0.00000000000E+00  0.00000000000E+00  0.27346983165E+04  0.27346983165E+04  0.00000000000E+00 0.  1.
         -2   -1    0    0    0  501 -0.00000000000E+00 -0.00000000000E+00 -0.93307257537E+03  0.93307257537E+03  0.00000000000E+00 0. -1.
         23    2    1    2    0    0  0.86370993863E+00  0.30321858297E+03  0.27005601455E+04  0.27190742498E+04  0.91637445007E+02 0.  0.
         13    1    3    3    0    0  0.28329844524E+02  0.16415327189E+03  0.11426466293E+04  0.11547251605E+04  0.00000000000E+00 0. -1.
        -13    1    3    3    0    0 -0.27466134585E+02  0.13906531108E+03  0.15579135162E+04  0.15643490893E+04  0.00000000000E+00 0.  1.
         22    1    1    2    0    0 -0.86370993863E+00 -0.30321858297E+03 -0.89893440445E+03  0.94869664200E+03  0.00000000000E+00 0. -1.
<mgrwt>
<rscale>  0 0.31947908E+04</rscale>
<asrwt>0</asrwt>
<pdfrwt beam="1">  1        2 0.42072281E+00 0.31947908E+04</pdfrwt>
<pdfrwt beam="2">  1       -2 0.14354963E+00 0.31947908E+04</pdfrwt>
<totfact> 0.71722923E-01</totfact>
</mgrwt>
</event>
<event>
 6    1  0.5196787E-004  0.3027549E+04  0.7818608E-02  0.8235907E-01
         -2   -1    0    0    0  501 -0.00000000000E+00  0.00000000000E+00  0.83993440451E+03  0.83993440451E+03  0.00000000000E+00 0. -1.
          2   -1    0    0  501    0  0.00000000000E+00 -0.00000000000E+00 -0.27282056859E+04  0.27282056859E+04  0.00000000000E+00 0.  1.
         23    2    1    2    0    0 -0.80613225219E+03  0.64853806055E+03  0.35399550988E+03  0.10986844445E+04  0.10650757479E+03 0.  0.
         13    1    3    3    0    0 -0.20063189231E+03  0.20952126914E+03  0.67951113338E+02  0.29794239752E+03  0.00000000000E+00 0.  1.
        -13    1    3    3    0    0 -0.60550035988E+03  0.43901679141E+03  0.28604439655E+03  0.80074204695E+03  0.00000000000E+00 0. -1.
         22    1    1    2    0    0  0.80613225219E+03 -0.64853806055E+03 -0.22422667913E+04  0.24694556459E+04  0.00000000000E+00 0.  1.
<mgrwt>
<rscale>  0 0.30275494E+04</rscale>
<asrwt>0</asrwt>
<pdfrwt beam="1">  1        2 0.41972394E+00 0.30275494E+04</pdfrwt>
<pdfrwt beam="2">  1       -2 0.12922068E+00 0.30275494E+04</pdfrwt>
<totfact> 0.96167764E-01</totfact>
</mgrwt>
</event>
<event>
 6    1  0.5196787E-004  0.6352871E+04  0.7818608E-02  0.7648126E-01
         -2   -1    0    0    0  501 -0.00000000000E+00  0.00000000000E+00  0.31841788158E+04  0.31841788158E+04  0.00000000000E+00 0. -1.
          2   -1    0    0  501    0  0.00000000000E+00 -0.00000000000E+00 -0.31687113905E+04  0.31687113905E+04  0.00000000000E+00 0.  1.
         23    2    1    2    0    0 -0.17863159068E+04  0.19272231859E+04 -0.17756063676E+04  0.31727865824E+04  0.93182603421E+02 0.  0.
         13    1    3    3    0    0 -0.14717784324E+04  0.16132083934E+04 -0.14380901762E+04  0.26147038895E+04  0.00000000000E+00 0. -1.
        -13    1    3    3    0    0 -0.31453747437E+03  0.31401479255E+03 -0.33751619134E+03  0.55808269292E+03  0.00000000000E+00 0.  1.
         22    1    1    2    0    0  0.17863159068E+04 -0.19272231859E+04  0.17910737928E+04  0.31801036239E+04  0.00000000000E+00 0. -1.
<mgrwt>
<rscale>  0 0.63528714E+04</rscale>
<asrwt>0</asrwt>
<pdfrwt beam="1">  1        2 0.48749406E+00 0.63528714E+04</pdfrwt>
<pdfrwt beam="2">  1       -2 0.48987367E+00 0.63528714E+04</pdfrwt>
<totfact> 0.17173897E-03</totfact>
</mgrwt>
</event>
<event>
 6    1  0.5196787E-004  0.2198916E+04  0.7818608E-02  0.8518879E-01
          1   -1    0    0  501    0  0.00000000000E+00  0.00000000000E+00  0.10014139957E+04  0.10014139957E+04  0.00000000000E+00 0.  1.
         -1   -1    0    0    0  501 -0.00000000000E+00 -0.00000000000E+00 -0.12071015182E+04  0.12071015182E+04  0.00000000000E+00 0. -1.
         23    2    1    2    0    0  0.72267860858E+03  0.81986667033E+03 -0.20357029540E+03  0.11156064550E+04  0.93226439234E+02 0.  0.
         13    1    3    3    0    0  0.58772008957E+03  0.70265290267E+03 -0.14465915912E+03  0.92739542680E+03  0.00000000000E+00 0.  1.
        -13    1    3    3    0    0  0.13495851900E+03  0.11721376765E+03 -0.58911136274E+02  0.18821102825E+03  0.00000000000E+00 0. -1.
         22    1    1    2    0    0 -0.72267860858E+03 -0.81986667033E+03 -0.21172270677E+01  0.10929090589E+04  0.00000000000E+00 0.  1.
<mgrwt>
<rscale>  0 0.21989164E+04</rscale>
<asrwt>0</asrwt>
<pdfrwt beam="1">  1        1 0.15406369E+00 0.21989164E+04</pdfrwt>
<pdfrwt beam="2">  1       -1 0.18570793E+00 0.21989164E+04</pdfrwt>
<totfact> 0.26073417E+00</totfact>
</mgrwt>
</event>
<event>
 6    1  0.5196787E-004  0.3707264E+04  0.7818608E-02  0.8066354E-01
         -2   -1    0    0    0  501 -0.00000000000E+00  0.00000000000E+00  0.28664007590E+04  0.28664007590E+04  0.00000000000E+00 0.  1.
          2   -1    0    0  501    0  0.00000000000E+00 -0.00000000000E+00 -0.11986990956E+04  0.11986990956E+04  0.00000000000E+00 0. -1.
         23    2    1    2    0    0 -0.62802838203E+03 -0.58475695686E+03 -0.96588016652E+03  0.12952418073E+04  0.91468552677E+02 0.  0.
         13    1    3    3    0    0 -0.17278375130E+03 -0.13335826441E+03 -0.19569357925E+03  0.29314608707E+03  0.00000000000E+00 0.  1.
        -13    1    3    3    0    0 -0.45524463072E+03 -0.45139869244E+03 -0.77018658727E+03  0.10020957203E+04  0.00000000000E+00 0. -1.
         22    1    1    2    0    0  0.62802838203E+03  0.58475695686E+03  0.26335818299E+04  0.27698580472E+04  0.00000000000E+00 0.  1.
<mgrwt>
<rscale>  0 0.37072642E+04</rscale>
<asrwt>0</asrwt>
<pdfrwt beam="1">  1        2 0.18441525E+00 0.37072642E+04</pdfrwt>
<pdfrwt beam="2">  1       -2 0.44098473E+00 0.37072642E+04</pdfrwt>
<totfact> 0.60999249E-02</totfact>
</mgrwt>
</event>
<event>
 6    1  0.5196787E-004  0.2889153E+04  0.7818608E-02  0.8276112E-01
          2   -1    0    0  501    0  0.00000000000E+00  0.00000000000E+00  0.24116271821E+04  0.24116271821E+04  0.00000000000E+00 0.  1.
         -2   -1    0    0    0  501 -0.00000000000E+00 -0.00000000000E+00 -0.86530848946E+03  0.86530848946E+03  0.00000000000E+00 0. -1.
         23    2    1    2    0    0  0.14834465694E+03 -0.10629936489E+04  0.18680613232E+04  0.21564536524E+04  0.93153704994E+02 0.  0.
         11    1    3    3    0    0  0.11683599761E+03 -0.99392344466E+03  0.17545168662E+04  0.20198672971E+04  0.00000000000E+00 0.  1.
        -11    1    3    3    0    0  0.31508659334E+02 -0.69070204259E+02  0.11354445700E+03  0.13658635527E+03  0.00000000000E+00 0. -1.
         22    1    1    2    0    0 -0.14834465694E+03  0.10629936489E+04 -0.32174263060E+03  0.11204820191E+04  0.00000000000E+00 0. -1.
<mgrwt>
<rscale>  0 0.28891531E+04</rscale>
<asrwt>0</asrwt>
<pdfrwt beam="1">  1        2 0.37101956E+00 0.28891531E+04</pdfrwt>
<pdfrwt beam="2">  1       -2 0.13312438E+00 0.28891531E+04</pdfrwt>
<totfact> 0.13824578E+00</totfact>
</mgrwt>
</event>
<event>
 6    1  0.5196787E-004  0.2268319E+04  0.7818608E-02  0.8490518E-01
          2   -1    0    0  501    0  0.00000000000E+00  0.00000000000E+00  0.90540367368E+03  0.90540367368E+03  0.00000000000E+00 0.  1.
         -2   -1    0    0    0  501 -0.00000000000E+00 -0.00000000000E+00 -0.14207116169E+04  0.14207116169E+04  0.00000000000E+00 0. -1.
         23    2    1    2    0    0 -0.93946541745E+03 -0.25147072098E+03 -0.85278431563E+03  0.12966867618E+04  0.91228696242E+02 0.  0.
         13    1    3    3    0    0 -0.54306177371E+03 -0.14576065913E+03 -0.43265226978E+03  0.70947180801E+03  0.00000000000E+00 0.  1.
        -13    1    3    3    0    0 -0.39640364374E+03 -0.10571006185E+03 -0.42013204584E+03  0.58721495374E+03  0.00000000000E+00 0. -1.
         22    1    1    2    0    0  0.93946541745E+03  0.25147072098E+03  0.33747637238E+03  0.10294285289E+04  0.00000000000E+00 0. -1.
<mgrwt>
<rscale>  0 0.22683188E+04</rscale>
<asrwt>0</asrwt>
<pdfrwt beam="1">  1        2 0.13929287E+00 0.22683188E+04</pdfrwt>
<pdfrwt beam="2">  1       -2 0.21857102E+00 0.22683188E+04</pdfrwt>
<totfact> 0.26663989E+00</totfact>
</mgrwt>
</event>
<event>
 6    1  0.5196787E-004  0.2075444E+04  0.7818608E-02  0.8572138E-01
          2   -1    0    0  501    0  0.00000000000E+00  0.00000000000E+00  0.18203092066E+04  0.18203092066E+04  0.00000000000E+00 0.  1.
         -2   -1    0    0    0  501 -0.00000000000E+00 -0.00000000000E+00 -0.59158440685E+03  0.59158440685E+03  0.00000000000E+00 0. -1.
         23    2    1    2    0    0  0.23186801808E+02  0.83467600619E+03 -0.99662466064E+02  0.84287022578E+03  0.57235891425E+02 0.  0.
         11    1    3    3    0    0  0.27064055830E+02  0.28070580551E+03 -0.52801590537E+02  0.28690803462E+03  0.00000000000E+00 0.  1.
        -11    1    3    3    0    0 -0.38772540216E+01  0.55397020068E+03 -0.46860875527E+02  0.55596219116E+03  0.00000000000E+00 0. -1.
         22    1    1    2    0    0 -0.23186801808E+02 -0.83467600619E+03  0.13283872658E+04  0.15690233877E+04  0.00000000000E+00 0.  1.
<mgrwt>
<rscale>  0 0.20754436E+04</rscale>
<asrwt>0</asrwt>
<pdfrwt beam="1">  1        2 0.28004757E+00 0.20754436E+04</pdfrwt>
<pdfrwt beam="2">  1       -2 0.91012986E-01 0.20754436E+04</pdfrwt>
<totfact> 0.79946943E+00</totfact>
</mgrwt>
</event>
<event>
 6    1  0.5196787E-004  0.6681660E+03  0.7818608E-02  0.9773277E-01
         -2   -1    0    0    0  501 -0.00000000000E+00  0.00000000000E+00  0.25884972285E+02  0.25884972285E+02  0.00000000000E+00 0. -1.
          2   -1    0    0  501    0  0.00000000000E+00 -0.00000000000E+00 -0.43118244776E+04  0.43118244776E+04  0.00000000000E+00 0.  1.
         23    2    1    2    0    0 -0.42592055543E+02  0.25391832233E+03 -0.34994384577E+04  0.35101392139E+04  0.93376570955E+02 0.  0.
         11    1    3    3    0    0  0.24353415955E+02  0.13699498156E+03 -0.17745086720E+04  0.17799555446E+04  0.00000000000E+00 0.  1.
        -11    1    3    3    0    0 -0.66945471499E+02  0.11692334077E+03 -0.17249297857E+04  0.17301836693E+04  0.00000000000E+00 0. -1.
         22    1    1    2    0    0  0.42592055543E+02 -0.25391832233E+03 -0.78650104756E+03  0.82757023595E+03  0.00000000000E+00 0. -1.
<mgrwt>
<rscale>  0 0.66816602E+03</rscale>
<asrwt>0</asrwt>
<pdfrwt beam="1">  1        2 0.66335771E+00 0.66816602E+03</pdfrwt>
<pdfrwt beam="2">  1       -2 0.39823028E-02 0.66816602E+03</pdfrwt>
<totfact> 0.61779912E+01</totfact>
</mgrwt>
</event>
<event>
 6    1  0.5196787E-004  0.1641381E+04  0.7818608E-02  0.8795521E-01
         -4   -1    0    0    0  501 -0.00000000000E+00  0.00000000000E+00  0.18951372375E+04  0.18951372375E+04  0.00000000000E+00 0. -1.
          4   -1    0    0  501    0  0.00000000000E+00 -0.00000000000E+00 -0.35540079250E+03  0.35540079250E+03  0.00000000000E+00 0.  1.
         23    2    1    2    0    0 -0.33531272796E+03 -0.91702730871E+02  0.17877263782E+04  0.18235216096E+04  0.91768408676E+02 0.  0.
         11    1    3    3    0    0 -0.26588400061E+03 -0.10821170827E+03  0.13712045268E+04  0.14009303801E+04  0.00000000000E+00 0.  1.
        -11    1    3    3    0    0 -0.69428727355E+02  0.16508977395E+02  0.41652185144E+03  0.42259122949E+03  0.00000000000E+00 0. -1.
         22    1    1    2    0    0  0.33531272796E+03  0.91702730871E+02 -0.24798993318E+03  0.42701642046E+03  0.00000000000E+00 0.  1.
<mgrwt>
<rscale>  0 0.16413815E+04</rscale>
<asrwt>0</asrwt>
<pdfrwt beam="1">  1        4 0.54677046E-01 0.16413815E+04</pdfrwt>
<pdfrwt beam="2">  1       -4 0.29155957E+00 0.16413815E+04</pdfrwt>
<totfact> 0.21406455E-01</totfact>
</mgrwt>
</event>
<event>
 6    1  0.5196787E-004  0.1116073E+04  0.7818608E-02  0.9189666E-01
         -2   -1    0    0    0  501 -0.00000000000E+00  0.00000000000E+00  0.61776993607E+03  0.61776993607E+03  0.00000000000E+00 0. -1.
          2   -1    0    0  501    0  0.00000000000E+00 -0.00000000000E+00 -0.50407903986E+03  0.50407903986E+03  0.00000000000E+00 0.  1.
         23    2    1    2    0    0 -0.11981694074E+03  0.16892889405E+03 -0.45987800212E+03  0.51203396163E+03  0.88305891664E+02 0.  0.
         13    1    3    3    0    0 -0.25880057186E+02  0.10348849090E+03 -0.17416601320E+03  0.20423869678E+03  0.00000000000E+00 0. -1.
        -13    1    3    3    0    0 -0.93936883552E+02  0.65440403154E+02 -0.28571198891E+03  0.30779526485E+03  0.00000000000E+00 0.  1.
         22    1    1    2    0    0  0.11981694074E+03 -0.16892889405E+03  0.57356889833E+03  0.60981501430E+03  0.00000000000E+00 0. -1.
<mgrwt>
<rscale>  0 0.11160733E+04</rscale>
<asrwt>0</asrwt>
<pdfrwt beam="1">  1        2 0.77550621E-01 0.11160733E+04</pdfrwt>
<pdfrwt beam="2">  1       -2 0.95041529E-01 0.11160733E+04</pdfrwt>
<totfact> 0.56355467E+01</totfact>
</mgrwt>
</event>
<event>
 6    1  0.5196787E-004  0.2106222E+04  0.7818608E-02  0.8558507E-01
          2   -1    0    0  501    0  0.00000000000E+00  0.00000000000E+00  0.83545748354E+03  0.83545748354E+03  0.00000000000E+00 0.  1.
         -2   -1    0    0    0  501 -0.00000000000E+00 -0.00000000000E+00 -0.13274680825E+04  0.13274680825E+04  0.00000000000E+00 0. -1.
         23    2    1    2    0    0  0.22131814482E+03 -0.71615957796E+03 -0.10031817746E+04  0.12556426812E+04  0.91643918278E+02 0.  0.
         11    1    3    3    0    0  0.79011772109E+02 -0.32873512716E+03 -0.51909478669E+03  0.61949095355E+03  0.00000000000E+00 0.  1.
        -11    1    3    3    0    0  0.14230637271E+03 -0.38742445080E+03 -0.48408698789E+03  0.63615172769E+03  0.00000000000E+00 0. -1.
         22    1    1    2    0    0 -0.22131814482E+03  0.71615957796E+03  0.51117117560E+03  0.90728288483E+03  0.00000000000E+00 0.  1.
<mgrwt>
<rscale>  0 0.21062223E+04</rscale>
<asrwt>0</asrwt>
<pdfrwt beam="1">  1        2 0.12853192E+00 0.21062223E+04</pdfrwt>
<pdfrwt beam="2">  1       -2 0.20422586E+00 0.21062223E+04</pdfrwt>
<totfact> 0.37335372E+00</totfact>
</mgrwt>
</event>
<event>
 6    1  0.5196787E-004  0.4439427E+03  0.7818608E-02  0.1029544E+00
         -2   -1    0    0    0  501 -0.00000000000E+00  0.00000000000E+00  0.88322786982E+02  0.88322786982E+02  0.00000000000E+00 0. -1.
          2   -1    0    0  501    0  0.00000000000E+00 -0.00000000000E+00 -0.55785469297E+03  0.55785469297E+03  0.00000000000E+00 0.  1.
         23    2    1    2    0    0  0.11088161680E+03 -0.13139229303E+03 -0.61942756539E+02  0.20381158800E+03  0.90241845630E+02 0.  0.
         11    1    3    3    0    0  0.24003649805E+02 -0.25893316273E+02  0.23702971429E+02  0.42526108288E+02  0.00000000000E+00 0. -1.
        -11    1    3    3    0    0  0.86877966997E+02 -0.10549897676E+03 -0.85645727968E+02  0.16128547971E+03  0.00000000000E+00 0.  1.
         22    1    1    2    0    0 -0.11088161680E+03  0.13139229303E+03 -0.40758914945E+03  0.44236589196E+03  0.00000000000E+00 0.  1.
<mgrwt>
<rscale>  0 0.44394270E+03</rscale>
<asrwt>0</asrwt>
<pdfrwt beam="1">  1        2 0.85823797E-01 0.44394270E+03</pdfrwt>
<pdfrwt beam="2">  1       -2 0.13588121E-01 0.44394270E+03</pdfrwt>
<totfact> 0.22280246E+03</totfact>
</mgrwt>
</event>
<event>
 6    1  0.5196787E-004  0.4133776E+04  0.7818608E-02  0.7978090E-01
         -2   -1    0    0    0  501 -0.00000000000E+00  0.00000000000E+00  0.21274759158E+04  0.21274759158E+04  0.00000000000E+00 0. -1.
          2   -1    0    0  501    0  0.00000000000E+00 -0.00000000000E+00 -0.20080257857E+04  0.20080257857E+04  0.00000000000E+00 0.  1.
         23    2    1    2    0    0  0.20154113497E+03  0.75105305446E+03  0.19744714247E+04  0.21240834150E+04  0.92159793186E+02 0.  0.
         13    1    3    3    0    0  0.55014417341E+02  0.86595365534E+02  0.26699951551E+03  0.28603161491E+03  0.00000000000E+00 0. -1.
        -13    1    3    3    0    0  0.14652671763E+03  0.66445768893E+03  0.17074719092E+04  0.18380518001E+04  0.00000000000E+00 0.  1.
         22    1    1    2    0    0 -0.20154113497E+03 -0.75105305446E+03 -0.18550212946E+04  0.20114182864E+04  0.00000000000E+00 0.  1.
<mgrwt>
<rscale>  0 0.41337762E+04</rscale>
<asrwt>0</asrwt>
<pdfrwt beam="1">  1        2 0.30892704E+00 0.41337762E+04</pdfrwt>
<pdfrwt beam="2">  1       -2 0.32730399E+00 0.41337762E+04</pdfrwt>
<totfact> 0.11133677E-01</totfact>
</mgrwt>
</event>
<event>
 6    1  0.5196787E-004  0.1969468E+04  0.7818608E-02  0.8621030E-01
         -2   -1    0    0    0  501 -0.00000000000E+00  0.00000000000E+00  0.37728764306E+03  0.37728764306E+03  0.00000000000E+00 0. -1.
          2   -1    0    0  501    0  0.00000000000E+00 -0.00000000000E+00 -0.25701905691E+04  0.25701905691E+04  0.00000000000E+00 0.  1.
         23    2    1    2    0    0 -0.36001956503E+03  0.81723623016E+03 -0.48787584437E+03  0.10227427778E+04  0.10242464018E+03 0.  0.
         11    1    3    3    0    0 -0.72724247327E+02  0.28130855743E+03 -0.14665549153E+03  0.32547066508E+03  0.00000000000E+00 0.  1.
        -11    1    3    3    0    0 -0.28729531770E+03  0.53592767273E+03 -0.34122035284E+03  0.69727211271E+03  0.00000000000E+00 0. -1.
         22    1    1    2    0    0  0.36001956503E+03 -0.81723623016E+03 -0.17050270817E+04  0.19247354344E+04  0.00000000000E+00 0.  1.
<mgrwt>
<rscale>  0 0.19694681E+04</rscale>
<asrwt>0</asrwt>
<pdfrwt beam="1">  1        2 0.39541395E+00 0.19694681E+04</pdfrwt>
<pdfrwt beam="2">  1       -2 0.58044250E-01 0.19694681E+04</pdfrwt>
<totfact> 0.82026123E+00</totfact>
</mgrwt>
</event>
<event>
 6    1  0.5196787E-004  0.3011555E+04  0.7818608E-02  0.8240439E-01
          2   -1    0    0  501    0  0.00000000000E+00  0.00000000000E+00  0.35105302866E+04  0.35105302866E+04  0.00000000000E+00 0.  1.
         -2   -1    0    0    0  501 -0.00000000000E+00 -0.00000000000E+00 -0.64587542126E+03  0.64587542126E+03  0.00000000000E+00 0. -1.
         23    2    1    2    0    0 -0.91144232600E+03 -0.97317494247E+03  0.47208578976E+03  0.14173943235E+04  0.91351481133E+02 0.  0.
         11    1    3    3    0    0 -0.79520843069E+03 -0.86889664187E+03  0.44385830704E+03  0.12587088699E+04  0.00000000000E+00 0.  1.
        -11    1    3    3    0    0 -0.11623389531E+03 -0.10427830060E+03  0.28227482726E+02  0.15868545357E+03  0.00000000000E+00 0. -1.
         22    1    1    2    0    0  0.91144232600E+03  0.97317494247E+03  0.23925690755E+04  0.27390113843E+04  0.00000000000E+00 0.  1.
<mgrwt>
<rscale>  0 0.30115546E+04</rscale>
<asrwt>0</asrwt>
<pdfrwt beam="1">  1        2 0.54008157E+00 0.30115546E+04</pdfrwt>
<pdfrwt beam="2">  1       -2 0.99365451E-01 0.30115546E+04</pdfrwt>
<totfact> 0.57270967E-01</totfact>
</mgrwt>
</event>
<event>
 6    1  0.5196787E-004  0.1675961E+04  0.7818608E-02  0.8775195E-01
         -2   -1    0    0    0  501 -0.00000000000E+00  0.00000000000E+00  0.31555060562E+03  0.31555060562E+03  0.00000000000E+00 0. -1.
          2   -1    0    0  501    0  0.00000000000E+00 -0.00000000000E+00 -0.22253518219E+04  0.22253518219E+04  0.00000000000E+00 0.  1.
         23    2    1    2    0    0  0.31107343955E+02 -0.73773238435E+03 -0.36494511663E+03  0.82865329074E+03  0.90909847272E+02 0.  0.
         13    1    3    3    0    0  0.28696299717E+02 -0.65592674470E+02 -0.29219029265E+02  0.77328055923E+02  0.00000000000E+00 0. -1.
        -13    1    3    3    0    0  0.24110442374E+01 -0.67213970988E+03 -0.33572608737E+03  0.75132523482E+03  0.00000000000E+00 0.  1.
         22    1    1    2    0    0 -0.31107343955E+02  0.73773238435E+03 -0.15448560997E+04  0.17122491368E+04  0.00000000000E+00 0.  1.
<mgrwt>
<rscale>  0 0.16759608E+04</rscale>
<asrwt>0</asrwt>
<pdfrwt beam="1">  1        2 0.34236183E+00 0.16759608E+04</pdfrwt>
<pdfrwt beam="2">  1       -2 0.48546246E-01 0.16759608E+04</pdfrwt>
<totfact> 0.19155815E+01</totfact>
</mgrwt>
</event>
<event>
 6    1  0.5196787E-004  0.2735616E+04  0.7818608E-02  0.8323540E-01
         -2   -1    0    0    0  501 -0.00000000000E+00  0.00000000000E+00  0.11405897157E+04  0.11405897157E+04  0.00000000000E+00 0. -1.
          2   -1    0    0  501    0  0.00000000000E+00 -0.00000000000E+00 -0.16402909283E+04  0.16402909283E+04  0.00000000000E+00 0.  1.
         23    2    1    2    0    0 -0.56199291827E+03 -0.11253910078E+04 -0.79329154386E+03  0.14891623144E+04  0.77148976901E+02 0.  0.
         11    1    3    3    0    0 -0.10831895098E+03 -0.28875534456E+03 -0.20398208138E+03  0.36975848020E+03  0.00000000000E+00 0. -1.
        -11    1    3    3    0    0 -0.45367396729E+03 -0.83663566319E+03 -0.58930946248E+03  0.11194038342E+04  0.00000000000E+00 0.  1.
         22    1    1    2    0    0  0.56199291827E+03  0.11253910078E+04  0.29359033126E+03  0.12917183296E+04  0.00000000000E+00 0.  1.
<mgrwt>
<rscale>  0 0.27356162E+04</rscale>
<asrwt>0</asrwt>
<pdfrwt beam="1">  1        2 0.25235245E+00 0.27356162E+04</pdfrwt>
<pdfrwt beam="2">  1       -2 0.17547534E+00 0.27356162E+04</pdfrwt>
<totfact> 0.18061377E+00</totfact>
</mgrwt>
</event>
<event>
 6    1  0.5196787E-004  0.2185419E+04  0.7818608E-02  0.8524522E-01
         -1   -1    0    0    0  501 -0.00000000000E+00  0.00000000000E+00  0.91919528882E+03  0.91919528882E+03  0.00000000000E+00 0. -1.
          1   -1    0    0  501    0  0.00000000000E+00 -0.00000000000E+00 -0.12989770428E+04  0.12989770428E+04  0.00000000000E+00 0.  1.
         23    2    1    2    0    0 -0.83096817898E+03 -0.68063109748E+03 -0.38290767410E+03  0.11440324074E+04  0.91788109231E+02 0.  0.
         11    1    3    3    0    0 -0.77763164454E+03 -0.60431254539E+03 -0.35425834254E+03  0.10466153068E+04  0.00000000000E+00 0.  1.
        -11    1    3    3    0    0 -0.53336534435E+02 -0.76318552085E+02 -0.28649331559E+02  0.97417100638E+02  0.00000000000E+00 0. -1.
         22    1    1    2    0    0  0.83096817898E+03  0.68063109748E+03  0.31259201539E+01  0.10741399242E+04  0.00000000000E+00 0. -1.
<mgrwt>
<rscale>  0 0.21854186E+04</rscale>
<asrwt>0</asrwt>
<pdfrwt beam="1">  1        1 0.19984262E+00 0.21854186E+04</pdfrwt>
<pdfrwt beam="2">  1       -1 0.14141466E+00 0.21854186E+04</pdfrwt>
<totfact> 0.33770316E+00</totfact>
</mgrwt>
</event>
<event>
 6    1  0.5196787E-004  0.1142613E+04  0.7818608E-02  0.9164626E-01
          2   -1    0    0  501    0  0.00000000000E+00  0.00000000000E+00  0.19213186547E+04  0.19213186547E+04  0.00000000000E+00 0.  1.
         -2   -1    0    0    0  501 -0.00000000000E+00 -0.00000000000E+00 -0.16987868203E+03  0.16987868203E+03  0.00000000000E+00 0. -1.
         23    2    1    2    0    0  0.12431930169E+03 -0.42341567983E+03  0.15347302660E+04  0.15995681841E+04  0.92115468743E+02 0.  0.
         11    1    3    3    0    0  0.73759638376E+02 -0.30742330111E+03  0.94722058688E+03  0.99858720728E+03  0.00000000000E+00 0. -1.
        -11    1    3    3    0    0  0.50559663318E+02 -0.11599237872E+03  0.58750967914E+03  0.60098097687E+03  0.00000000000E+00 0.  1.
         22    1    1    2    0    0 -0.12431930169E+03  0.42341567983E+03  0.21670970663E+03  0.49162915256E+03  0.00000000000E+00 0. -1.
<mgrwt>
<rscale>  0 0.11426129E+04</rscale>
<asrwt>0</asrwt>
<pdfrwt beam="1">  1        2 0.29558747E+00 0.11426129E+04</pdfrwt>
<pdfrwt beam="2">  1       -2 0.26135183E-01 0.11426129E+04</pdfrwt>
<totfact> 0.96935326E+01</totfact>
</mgrwt>
</event>
<event>
 6    1  0.5196787E-004  0.1242255E+04  0.7818608E-02  0.9076654E-01
         -2   -1    0    0    0  501 -0.00000000000E+00  0.00000000000E+00  0.15329217470E+03  0.15329217470E+03  0.00000000000E+00 0. -1.
          2   -1    0    0  501    0  0.00000000000E+00 -0.00000000000E+00 -0.25167585973E+04  0.25167585973E+04  0.00000000000E+00 0.  1.
         23    2    1    2    0    0 -0.63201433477E+02  0.61396740568E+03 -0.12442815284E+04  0.13919563999E+04  0.91409523882E+02 0.  0.
         11    1    3    3    0    0 -0.28299035765E+01  0.37890116004E+03 -0.69872233345E+03  0.79485029829E+03  0.00000000000E+00 0.  1.
        -11    1    3    3    0    0 -0.60371529900E+02  0.23506624564E+03 -0.54555919491E+03  0.59710610164E+03  0.00000000000E+00 0. -1.
         22    1    1    2    0    0  0.63201433477E+02 -0.61396740568E+03 -0.11191848943E+04  0.12780943721E+04  0.00000000000E+00 0.  1.
<mgrwt>
<rscale>  0 0.12422550E+04</rscale>
<asrwt>0</asrwt>
<pdfrwt beam="1">  1        2 0.38719362E+00 0.12422550E+04</pdfrwt>
<pdfrwt beam="2">  1       -2 0.23583412E-01 0.12422550E+04</pdfrwt>
<totfact> 0.53710176E+01</totfact>
</mgrwt>
</event>
<event>
 6    1  0.5196787E-004  0.2336021E+04  0.7818608E-02  0.8463852E-01
          2   -1    0    0  501    0  0.00000000000E+00  0.00000000000E+00  0.57785510809E+03  0.57785510809E+03  0.00000000000E+00 0.  1.
         -2   -1    0    0    0  501 -0.00000000000E+00 -0.00000000000E+00 -0.23608838457E+04  0.23608838457E+04  0.00000000000E+00 0. -1.
         23    2    1    2    0    0 -0.10375873715E+04  0.46022620597E+03 -0.12297632258E+04  0.16760044446E+04  0.90981276746E+02 0.  0.
         11    1    3    3    0    0 -0.17003116990E+03  0.11336543456E+03 -0.22545159521E+03  0.30428726933E+03  0.00000000000E+00 0. -1.
        -11    1    3    3    0    0 -0.86755620156E+03  0.34686077141E+03 -0.10043116306E+04  0.13717171753E+04  0.00000000000E+00 0.  1.
         22    1    1    2    0    0  0.10375873715E+04 -0.46022620597E+03 -0.55326551177E+03  0.12627345091E+04  0.00000000000E+00 0.  1.
<mgrwt>
<rscale>  0 0.23360212E+04</rscale>
<asrwt>0</asrwt>
<pdfrwt beam="1">  1        2 0.88900786E-01 0.23360212E+04</pdfrwt>
<pdfrwt beam="2">  1       -2 0.36321290E+00 0.23360212E+04</pdfrwt>
<totfact> 0.60247281E-01</totfact>
</mgrwt>
</event>
<event>
 6    1  0.5196787E-004  0.2318088E+04  0.7818608E-02  0.8470823E-01
          2   -1    0    0  501    0  0.00000000000E+00  0.00000000000E+00  0.23969168541E+04  0.23969168541E+04  0.00000000000E+00 0.  1.
         -2   -1    0    0    0  501 -0.00000000000E+00 -0.00000000000E+00 -0.56046314331E+03  0.56046314331E+03  0.00000000000E+00 0. -1.
         23    2    1    2    0    0 -0.10035596614E+04 -0.19674806340E+03  0.22894253258E+03  0.10521414343E+04  0.93515346522E+02 0.  0.
         13    1    3    3    0    0 -0.68678025098E+03 -0.12984649062E+03  0.20045274317E+03  0.72712346029E+03  0.00000000000E+00 0.  1.
        -13    1    3    3    0    0 -0.31677941042E+03 -0.66901572784E+02  0.28489789416E+02  0.32501797398E+03  0.00000000000E+00 0. -1.
         22    1    1    2    0    0  0.10035596614E+04  0.19674806340E+03  0.16075111782E+04  0.19052385632E+04  0.00000000000E+00 0.  1.
<mgrwt>
<rscale>  0 0.23180885E+04</rscale>
<asrwt>0</asrwt>
<pdfrwt beam="1">  1        2 0.36875643E+00 0.23180885E+04</pdfrwt>
<pdfrwt beam="2">  1       -2 0.86225100E-01 0.23180885E+04</pdfrwt>
<totfact> 0.42136610E+00</totfact>
</mgrwt>
</event>
<event>
 6    1  0.5196787E-004  0.9450883E+03  0.7818608E-02  0.9370910E-01
         -2   -1    0    0    0  501 -0.00000000000E+00  0.00000000000E+00  0.25266448319E+03  0.25266448319E+03  0.00000000000E+00 0. -1.
          2   -1    0    0  501    0  0.00000000000E+00 -0.00000000000E+00 -0.88377261478E+03  0.88377261478E+03  0.00000000000E+00 0.  1.
         23    2    1    2    0    0  0.11461736887E+03 -0.98826472550E+02 -0.85123739399E+03  0.86930285253E+03  0.90435256192E+02 0.  0.
         13    1    3    3    0    0  0.87442704389E+02 -0.95898029705E+02 -0.48552635490E+03  0.50257188536E+03  0.00000000000E+00 0. -1.
        -13    1    3    3    0    0  0.27174664482E+02 -0.29284428448E+01 -0.36571103909E+03  0.36673096717E+03  0.00000000000E+00 0.  1.
         22    1    1    2    0    0 -0.11461736887E+03  0.98826472550E+02  0.22012926240E+03  0.26713424544E+03  0.00000000000E+00 0. -1.
<mgrwt>
<rscale>  0 0.94508825E+03</rscale>
<asrwt>0</asrwt>
<pdfrwt beam="1">  1        2 0.13596502E+00 0.94508825E+03</pdfrwt>
<pdfrwt beam="2">  1       -2 0.38871458E-01 0.94508825E+03</pdfrwt>
<totfact> 0.18814457E+02</totfact>
</mgrwt>
</event>
<event>
 6    1  0.5196787E-004  0.1691582E+04  0.7818608E-02  0.8766180E-01
          2   -1    0    0  501    0  0.00000000000E+00  0.00000000000E+00  0.78860566925E+03  0.78860566925E+03  0.00000000000E+00 0.  1.
         -2   -1    0    0    0  501 -0.00000000000E+00 -0.00000000000E+00 -0.90712336751E+03  0.90712336751E+03  0.00000000000E+00 0. -1.
         23    2    1    2    0    0  0.12424869560E+03 -0.32625568842E+03  0.71014350794E+03  0.79652944421E+03  0.90966153276E+02 0.  0.
         11    1    3    3    0    0  0.32978969341E+02 -0.15212526794E+03  0.23028361463E+03  0.27795728580E+03  0.00000000000E+00 0. -1.
        -11    1    3    3    0    0  0.91269726257E+02 -0.17413042048E+03  0.47985989331E+03  0.51857215841E+03  0.00000000000E+00 0.  1.
         22    1    1    2    0    0 -0.12424869560E+03  0.32625568842E+03 -0.82866120620E+03  0.89919959255E+03  0.00000000000E+00 0. -1.
<mgrwt>
<rscale>  0 0.16915823E+04</rscale>
<asrwt>0</asrwt>
<pdfrwt beam="1">  1        2 0.12132395E+00 0.16915823E+04</pdfrwt>
<pdfrwt beam="2">  1       -2 0.13955744E+00 0.16915823E+04</pdfrwt>
<totfact> 0.12102283E+01</totfact>
</mgrwt>
</event>
<event>
 6    1  0.5196787E-004  0.3919442E+04  0.7818608E-02  0.8020998E-01
          2   -1    0    0  501    0  0.00000000000E+00  0.00000000000E+00  0.35379222965E+04  0.35379222965E+04  0.00000000000E+00 0.  1.
         -2   -1    0    0    0  501 -0.00000000000E+00 -0.00000000000E+00 -0.10855256860E+04  0.10855256860E+04  0.00000000000E+00 0. -1.
         23    2    1    2    0    0  0.87803010148E+03  0.52000036529E+03  0.31989500168E+04  0.33590591075E+04  0.93057176865E+02 0.  0.
         11    1    3    3    0    0  0.46775344011E+03  0.22760738373E+03  0.16869487373E+04  0.17653312562E+04  0.00000000000E+00 0.  1.
        -11    1    3    3    0    0  0.41027666137E+03  0.29239298156E+03  0.15120012795E+04  0.15937278512E+04  0.00000000000E+00 0. -1.
         22    1    1    2    0    0 -0.87803010148E+03 -0.52000036529E+03 -0.74655340633E+03  0.12643888751E+04  0.00000000000E+00 0. -1.
<mgrwt>
<rscale>  0 0.39194416E+04</rscale>
<asrwt>0</asrwt>
<pdfrwt beam="1">  1        2 0.54429573E+00 0.39194416E+04</pdfrwt>
<pdfrwt beam="2">  1       -2 0.16700395E+00 0.39194416E+04</pdfrwt>
<totfact> 0.13566735E-01</totfact>
</mgrwt>
</event>
<event>
 6    1  0.5196787E-004  0.4609373E+04  0.7818608E-02  0.7891764E-01
         -2   -1    0    0    0  501 -0.00000000000E+00  0.00000000000E+00  0.16906462359E+04  0.16906462359E+04  0.00000000000E+00 0. -1.
          2   -1    0    0  501    0  0.00000000000E+00 -0.00000000000E+00 -0.31417447514E+04  0.31417447514E+04  0.00000000000E+00 0.  1.
         23    2    1    2    0    0 -0.13688377508E+04  0.12742897355E+04  0.68451967867E+03  0.19936595471E+04  0.92628729248E+02 0.  0.
         11    1    3    3    0    0 -0.10996290196E+03  0.12480032341E+03  0.39294146360E+02  0.17091223030E+03  0.00000000000E+00 0.  1.
        -11    1    3    3    0    0 -0.12588748488E+04  0.11494894121E+04  0.64522553231E+03  0.18227473168E+04  0.00000000000E+00 0. -1.
         22    1    1    2    0    0  0.13688377508E+04 -0.12742897355E+04 -0.21356181942E+04  0.28387314401E+04  0.00000000000E+00 0.  1.
<mgrwt>
<rscale>  0 0.46093726E+04</rscale>
<asrwt>0</asrwt>
<pdfrwt beam="1">  1        2 0.48334534E+00 0.46093726E+04</pdfrwt>
<pdfrwt beam="2">  1       -2 0.26009942E+00 0.46093726E+04</pdfrwt>
<totfact> 0.59149836E-02</totfact>
</mgrwt>
</event>
<event>
 6    1  0.5196787E-004  0.9758291E+03  0.7818608E-02  0.9335460E-01
          2   -1    0    0  501    0  0.00000000000E+00  0.00000000000E+00  0.72714341261E+03  0.72714341261E+03  0.00000000000E+00 0.  1.
         -2   -1    0    0    0  501 -0.00000000000E+00 -0.00000000000E+00 -0.32739154966E+03  0.32739154966E+03  0.00000000000E+00 0. -1.
         23    2    1    2    0    0 -0.34730208067E+01 -0.29140869202E+03 -0.21568427385E+03  0.37358509176E+03  0.90083445440E+02 0.  0.
         13    1    3    3    0    0 -0.45262585888E+02 -0.18249172097E+03 -0.12428639463E+03  0.22538641883E+03  0.00000000000E+00 0.  1.
        -13    1    3    3    0    0  0.41789565081E+02 -0.10891697105E+03 -0.91397879221E+02  0.14819867293E+03  0.00000000000E+00 0. -1.
         22    1    1    2    0    0  0.34730208067E+01  0.29140869202E+03  0.61543613680E+03  0.68094987051E+03  0.00000000000E+00 0.  1.
<mgrwt>
<rscale>  0 0.97582910E+03</rscale>
<asrwt>0</asrwt>
<pdfrwt beam="1">  1        2 0.11186822E+00 0.97582910E+03</pdfrwt>
<pdfrwt beam="2">  1       -2 0.50367931E-01 0.97582910E+03</pdfrwt>
<totfact> 0.14546056E+02</totfact>
</mgrwt>
</event>
<event>
 6    1  0.5196787E-004  0.1569685E+04  0.7818608E-02  0.8839391E-01
         -2   -1    0    0    0  501 -0.00000000000E+00  0.00000000000E+00  0.19173543738E+03  0.19173543738E+03  0.00000000000E+00 0. -1.
          2   -1    0    0  501    0  0.00000000000E+00 -0.00000000000E+00 -0.32126437026E+04  0.32126437026E+04  0.00000000000E+00 0.  1.
         23    2    1    2    0    0  0.62599915792E+03  0.25990654643E+03 -0.66851257129E+03  0.95627949753E+03  0.90194572074E+02 0.  0.
         13    1    3    3    0    0  0.18657896008E+03  0.62814147404E+02 -0.25027095487E+03  0.31842248085E+03  0.00000000000E+00 0.  1.
        -13    1    3    3    0    0  0.43942019784E+03  0.19709239902E+03 -0.41824161642E+03  0.63785701668E+03  0.00000000000E+00 0. -1.
         22    1    1    2    0    0 -0.62599915792E+03 -0.25990654643E+03 -0.23523956939E+04  0.24480996425E+04  0.00000000000E+00 0.  1.
<mgrwt>
<rscale>  0 0.15696849E+04</rscale>
<asrwt>0</asrwt>
<pdfrwt beam="1">  1        2 0.49425285E+00 0.15696849E+04</pdfrwt>
<pdfrwt beam="2">  1       -2 0.29497761E-01 0.15696849E+04</pdfrwt>
<totfact> 0.13054244E+01</totfact>
</mgrwt>
</event>
<event>
 6    1  0.5620088E-004  0.3470448E+04  0.7818608E-02  0.8120829E-01
          2   -1    0    0  501    0  0.00000000000E+00  0.00000000000E+00  0.32904137402E+04  0.32904137402E+04  0.00000000000E+00 0.  1.
         -2   -1    0    0    0  501 -0.00000000000E+00 -0.00000000000E+00 -0.91508341183E+03  0.91508341183E+03  0.00000000000E+00 0. -1.
         23    2    1    2    0    0  0.10371921982E+04  0.13860579589E+04  0.13088807600E+04  0.21722143377E+04  0.91771257361E+02 0.  0.
         11    1    3    3    0    0  0.60480762535E+03  0.79390880656E+03  0.69848703361E+03  0.12181820853E+04  0.00000000000E+00 0.  1.
        -11    1    3    3    0    0  0.43238457281E+03  0.59214915230E+03  0.61039372635E+03  0.95403225236E+03  0.00000000000E+00 0. -1.
         22    1    1    2    0    0 -0.10371921982E+04 -0.13860579589E+04  0.10664495684E+04  0.20332828143E+04  0.00000000000E+00 0. -1.
<mgrwt>
<rscale>  0 0.34704484E+04</rscale>
<asrwt>0</asrwt>
<pdfrwt beam="1">  1        2 0.50621749E+00 0.34704484E+04</pdfrwt>
<pdfrwt beam="2">  1       -2 0.14078206E+00 0.34704484E+04</pdfrwt>
<totfact> 0.32919985E-01</totfact>
</mgrwt>
</event>
<event>
 6    1  0.5196787E-004  0.1523753E+04  0.7818608E-02  0.8868809E-01
          2   -1    0    0  501    0  0.00000000000E+00  0.00000000000E+00  0.53810443916E+03  0.53810443916E+03  0.00000000000E+00 0. -1.
         -2   -1    0    0    0  501 -0.00000000000E+00 -0.00000000000E+00 -0.10787050377E+04  0.10787050377E+04  0.00000000000E+00 0.  1.
         23    2    1    2    0    0 -0.74525727110E+03  0.14437466483E+03 -0.26126262102E+03  0.80793238503E+03  0.90797233814E+02 0.  0.
         11    1    3    3    0    0 -0.62535351161E+03  0.14352822689E+03 -0.24557415537E+03  0.68700366242E+03  0.00000000000E+00 0.  1.
        -11    1    3    3    0    0 -0.11990375949E+03  0.84643793556E+00 -0.15688465649E+02  0.12092872260E+03  0.00000000000E+00 0. -1.
         22    1    1    2    0    0  0.74525727110E+03 -0.14437466483E+03 -0.27933797748E+03  0.80887709179E+03  0.00000000000E+00 0.  1.
<mgrwt>
<rscale>  0 0.15237532E+04</rscale>
<asrwt>0</asrwt>
<pdfrwt beam="1">  1        2 0.82785299E-01 0.15237532E+04</pdfrwt>
<pdfrwt beam="2">  1       -2 0.16595462E+00 0.15237532E+04</pdfrwt>
<totfact> 0.12403777E+01</totfact>
</mgrwt>
</event>
<event>
 6    1  0.5196787E-004  0.1101559E+04  0.7818608E-02  0.9203674E-01
         -2   -1    0    0    0  501 -0.00000000000E+00  0.00000000000E+00  0.35096235489E+03  0.35096235489E+03  0.00000000000E+00 0. -1.
          2   -1    0    0  501    0  0.00000000000E+00 -0.00000000000E+00 -0.86436097941E+03  0.86436097941E+03  0.00000000000E+00 0.  1.
         23    2    1    2    0    0  0.21243756784E+03 -0.40092580102E+03  0.76094829347E+02  0.47143238107E+03  0.10289241328E+03 0.  0.
         13    1    3    3    0    0  0.16879642737E+03 -0.21171185679E+03  0.35914266318E+02  0.27313728915E+03  0.00000000000E+00 0.  1.
        -13    1    3    3    0    0  0.43641140467E+02 -0.18921394424E+03  0.40180563029E+02  0.19829509192E+03  0.00000000000E+00 0. -1.
         22    1    1    2    0    0 -0.21243756784E+03  0.40092580102E+03 -0.58949345386E+03  0.74389095323E+03  0.00000000000E+00 0.  1.
<mgrwt>
<rscale>  0 0.11015592E+04</rscale>
<asrwt>0</asrwt>
<pdfrwt beam="1">  1        2 0.13297861E+00 0.11015592E+04</pdfrwt>
<pdfrwt beam="2">  1       -2 0.53994210E-01 0.11015592E+04</pdfrwt>
<totfact> 0.99485836E+01</totfact>
</mgrwt>
</event>
<event>
 6    1  0.5196787E-004  0.1711530E+04  0.7818608E-02  0.8754816E-01
          2   -1    0    0  501    0  0.00000000000E+00  0.00000000000E+00  0.89940430285E+03  0.89940430285E+03  0.00000000000E+00 0.  1.
         -2   -1    0    0    0  501 -0.00000000000E+00 -0.00000000000E+00 -0.81424289015E+03  0.81424289015E+03  0.00000000000E+00 0. -1.
         23    2    1    2    0    0 -0.77451766528E+03 -0.77791469638E+02 -0.30744124155E+03  0.84182956831E+03  0.90707102802E+02 0.  0.
         13    1    3    3    0    0 -0.57303848946E+03 -0.92598924745E+02 -0.24812149807E+03  0.63127802834E+03  0.00000000000E+00 0. -1.
        -13    1    3    3    0    0 -0.20147917582E+03  0.14807455107E+02 -0.59319743483E+02  0.21055153997E+03  0.00000000000E+00 0.  1.
         22    1    1    2    0    0  0.77451766528E+03  0.77791469638E+02  0.39260265426E+03  0.87181762468E+03  0.00000000000E+00 0.  1.
<mgrwt>
<rscale>  0 0.17115298E+04</rscale>
<asrwt>0</asrwt>
<pdfrwt beam="1">  1        2 0.13836989E+00 0.17115298E+04</pdfrwt>
<pdfrwt beam="2">  1       -2 0.12526814E+00 0.17115298E+04</pdfrwt>
<totfact> 0.13305904E+01</totfact>
</mgrwt>
</event>
<event>
 6    1  0.5196787E-004  0.1777272E+04  0.7818608E-02  0.8718480E-01
         -2   -1    0    0    0  501 -0.00000000000E+00  0.00000000000E+00  0.60243941660E+03  0.60243941660E+03  0.00000000000E+00 0. -1.
          2   -1    0    0  501    0  0.00000000000E+00 -0.00000000000E+00 -0.13107940284E+04  0.13107940284E+04  0.00000000000E+00 0.  1.
         23    2    1    2    0    0 -0.49284184016E+03 -0.46426646701E+03  0.26094060276E+03  0.73087578136E+03  0.87481299774E+02 0.  0.
         13    1    3    3    0    0 -0.25965246515E+03 -0.19039328138E+03  0.14331826564E+03  0.35243315610E+03  0.00000000000E+00 0. -1.
        -13    1    3    3    0    0 -0.23318937501E+03 -0.27387318563E+03  0.11762233712E+03  0.37844262526E+03  0.00000000000E+00 0.  1.
         22    1    1    2    0    0  0.49284184016E+03  0.46426646701E+03 -0.96929521453E+03  0.11823576636E+04  0.00000000000E+00 0.  1.
<mgrwt>
<rscale>  0 0.17772721E+04</rscale>
<asrwt>0</asrwt>
<pdfrwt beam="1">  1        2 0.20166062E+00 0.17772721E+04</pdfrwt>
<pdfrwt beam="2">  1       -2 0.92682988E-01 0.17772721E+04</pdfrwt>
<totfact> 0.15215627E+01</totfact>
</mgrwt>
</event>
<event>
 6    1  0.5196787E-004  0.5193853E+04  0.7818608E-02  0.7799280E-01
          2   -1    0    0  501    0  0.00000000000E+00  0.00000000000E+00  0.35495099190E+04  0.35495099190E+04  0.00000000000E+00 0.  1.
         -2   -1    0    0    0  501 -0.00000000000E+00 -0.00000000000E+00 -0.18999880496E+04  0.18999880496E+04  0.00000000000E+00 0. -1.
         23    2    1    2    0    0 -0.29752808123E+03 -0.16293891311E+04 -0.12725975420E+04  0.20905972921E+04  0.87525047204E+02 0.  0.
         13    1    3    3    0    0 -0.13291806731E+03 -0.70639174561E+03 -0.60694771295E+03  0.94076672833E+03  0.00000000000E+00 0. -1.
        -13    1    3    3    0    0 -0.16461001392E+03 -0.92299738553E+03 -0.66564982905E+03  0.11498305637E+04  0.00000000000E+00 0.  1.
         22    1    1    2    0    0  0.29752808123E+03  0.16293891311E+04  0.29221194115E+04  0.33589006765E+04  0.00000000000E+00 0.  1.
<mgrwt>
<rscale>  0 0.51938527E+04</rscale>
<asrwt>0</asrwt>
<pdfrwt beam="1">  1        2 0.54607845E+00 0.51938527E+04</pdfrwt>
<pdfrwt beam="2">  1       -2 0.29230585E+00 0.51938527E+04</pdfrwt>
<totfact> 0.19008386E-02</totfact>
</mgrwt>
</event>
<event>
 6    1  0.5196787E-004  0.4083671E+04  0.7818608E-02  0.7987877E-01
          2   -1    0    0  501    0  0.00000000000E+00  0.00000000000E+00  0.35205848500E+04  0.35205848500E+04  0.00000000000E+00 0.  1.
         -2   -1    0    0    0  501 -0.00000000000E+00 -0.00000000000E+00 -0.11842043478E+04  0.11842043478E+04  0.00000000000E+00 0. -1.
         23    2    1    2    0    0  0.56781827422E+03  0.33487141442E+02 -0.10893057534E+04  0.12322015023E+04  0.90523679894E+02 0.  0.
         13    1    3    3    0    0  0.13636501542E+03  0.30692674635E+02 -0.33899023952E+03  0.36667675164E+03  0.00000000000E+00 0. -1.
        -13    1    3    3    0    0  0.43145325880E+03  0.27944668075E+01 -0.75031551391E+03  0.86552475065E+03  0.00000000000E+00 0.  1.
         22    1    1    2    0    0 -0.56781827422E+03 -0.33487141442E+02  0.34256862556E+04  0.34725876955E+04  0.00000000000E+00 0.  1.
<mgrwt>
<rscale>  0 0.40836708E+04</rscale>
<asrwt>0</asrwt>
<pdfrwt beam="1">  1        2 0.54162843E+00 0.40836708E+04</pdfrwt>
<pdfrwt beam="2">  1       -2 0.18218529E+00 0.40836708E+04</pdfrwt>
<totfact> 0.10771533E-01</totfact>
</mgrwt>
</event>
<event>
 6    1  0.5196787E-004  0.3760889E+04  0.7818608E-02  0.8054600E-01
         -2   -1    0    0    0  501 -0.00000000000E+00  0.00000000000E+00  0.12684699767E+04  0.12684699767E+04  0.00000000000E+00 0. -1.
          2   -1    0    0  501    0  0.00000000000E+00 -0.00000000000E+00 -0.27876669172E+04  0.27876669172E+04  0.00000000000E+00 0.  1.
         23    2    1    2    0    0  0.12885919179E+04 -0.12550398379E+04 -0.13476660837E+04  0.22492011009E+04  0.84306545551E+02 0.  0.
         11    1    3    3    0    0  0.49736011897E+03 -0.45003207705E+03 -0.46199023274E+03  0.81445130822E+03  0.00000000000E+00 0.  1.
        -11    1    3    3    0    0  0.79123179888E+03 -0.80500776085E+03 -0.88567585096E+03  0.14347497927E+04  0.00000000000E+00 0. -1.
         22    1    1    2    0    0 -0.12885919179E+04  0.12550398379E+04 -0.17153085684E+03  0.18069357931E+04  0.00000000000E+00 0.  1.
<mgrwt>
<rscale>  0 0.37608891E+04</rscale>
<asrwt>0</asrwt>
<pdfrwt beam="1">  1        2 0.42887183E+00 0.37608891E+04</pdfrwt>
<pdfrwt beam="2">  1       -2 0.19514923E+00 0.37608891E+04</pdfrwt>
<totfact> 0.27087056E-01</totfact>
</mgrwt>
</event>
<event>
 6    1  0.5196787E-004  0.2233404E+04  0.7818608E-02  0.8504652E-01
         -2   -1    0    0    0  501 -0.00000000000E+00  0.00000000000E+00  0.87288367278E+03  0.87288367278E+03  0.00000000000E+00 0. -1.
          2   -1    0    0  501    0  0.00000000000E+00 -0.00000000000E+00 -0.14286252815E+04  0.14286252815E+04  0.00000000000E+00 0.  1.
         23    2    1    2    0    0 -0.11058472050E+04  0.47437683777E+01 -0.42395574212E+03  0.11878267470E+04  0.90958041304E+02 0.  0.
         13    1    3    3    0    0 -0.59799521014E+03  0.42038800584E+02 -0.25305785995E+03  0.65069486903E+03  0.00000000000E+00 0. -1.
        -13    1    3    3    0    0 -0.50785199491E+03 -0.37295032206E+02 -0.17089788217E+03  0.53713187793E+03  0.00000000000E+00 0.  1.
         22    1    1    2    0    0  0.11058472050E+04 -0.47437683777E+01 -0.13178586659E+03  0.11136822073E+04  0.00000000000E+00 0.  1.
<mgrwt>
<rscale>  0 0.22334043E+04</rscale>
<asrwt>0</asrwt>
<pdfrwt beam="1">  1        2 0.21978850E+00 0.22334043E+04</pdfrwt>
<pdfrwt beam="2">  1       -2 0.13428980E+00 0.22334043E+04</pdfrwt>
<totfact> 0.50803565E+00</totfact>
</mgrwt>
</event>
<event>
 6    1  0.5196787E-004  0.3247150E+04  0.7818608E-02  0.8176475E-01
         -2   -1    0    0    0  501 -0.00000000000E+00  0.00000000000E+00  0.15601305851E+04  0.15601305851E+04  0.00000000000E+00 0. -1.
          2   -1    0    0  501    0  0.00000000000E+00 -0.00000000000E+00 -0.16895990676E+04  0.16895990676E+04  0.00000000000E+00 0.  1.
         23    2    1    2    0    0  0.14643616577E+04 -0.67817089418E+03 -0.23151497191E+03  0.16327311022E+04  0.89111410495E+02 0.  0.
         13    1    3    3    0    0  0.20089523045E+03 -0.12778784704E+03 -0.34512086162E+02  0.24058202668E+03  0.00000000000E+00 0.  1.
        -13    1    3    3    0    0  0.12634664273E+04 -0.55038304714E+03 -0.19700288574E+03  0.13921490755E+04  0.00000000000E+00 0. -1.
         22    1    1    2    0    0 -0.14643616577E+04  0.67817089418E+03  0.10204648940E+03  0.16169985505E+04  0.00000000000E+00 0. -1.
<mgrwt>
<rscale>  0 0.32471496E+04</rscale>
<asrwt>0</asrwt>
<pdfrwt beam="1">  1        2 0.25993832E+00 0.32471496E+04</pdfrwt>
<pdfrwt beam="2">  1       -2 0.24002009E+00 0.32471496E+04</pdfrwt>
<totfact> 0.61739038E-01</totfact>
</mgrwt>
</event>
<event>
 6    1  0.5196787E-004  0.1038393E+04  0.7818608E-02  0.9267410E-01
         -2   -1    0    0    0  501 -0.00000000000E+00  0.00000000000E+00  0.62206681202E+03  0.62206681202E+03  0.00000000000E+00 0. -1.
          2   -1    0    0  501    0  0.00000000000E+00 -0.00000000000E+00 -0.43333751076E+03  0.43333751076E+03  0.00000000000E+00 0.  1.
         23    2    1    2    0    0 -0.47035558578E+03 -0.11176738235E+03 -0.85614062266E+02  0.49953508822E+03  0.92082636137E+02 0.  0.
         13    1    3    3    0    0 -0.18792430457E+03 -0.77797331633E+02 -0.33751337471E+01  0.20341917457E+03  0.00000000000E+00 0. -1.
        -13    1    3    3    0    0 -0.28243128121E+03 -0.33970050713E+02 -0.82238928519E+02  0.29611591365E+03  0.00000000000E+00 0.  1.
         22    1    1    2    0    0  0.47035558578E+03  0.11176738235E+03  0.27434336352E+03  0.55586923457E+03  0.00000000000E+00 0. -1.
<mgrwt>
<rscale>  0 0.10383928E+04</rscale>
<asrwt>0</asrwt>
<pdfrwt beam="1">  1        2 0.66667309E-01 0.10383928E+04</pdfrwt>
<pdfrwt beam="2">  1       -2 0.95702586E-01 0.10383928E+04</pdfrwt>
<totfact> 0.66300733E+01</totfact>
</mgrwt>
</event>
<event>
 6    1  0.5196787E-004  0.2714881E+04  0.7818608E-02  0.8330193E-01
         -2   -1    0    0    0  501 -0.00000000000E+00  0.00000000000E+00  0.45486421464E+03  0.45486421464E+03  0.00000000000E+00 0. -1.
          2   -1    0    0  501    0  0.00000000000E+00 -0.00000000000E+00 -0.40509771743E+04  0.40509771743E+04  0.00000000000E+00 0.  1.
         23    2    1    2    0    0  0.85516514192E+03  0.40289000687E+03 -0.18711322612E+03  0.96819994854E+03  0.93658973771E+02 0.  0.
         13    1    3    3    0    0  0.36877651470E+03  0.16191309652E+03 -0.33895979470E+02  0.40417929937E+03  0.00000000000E+00 0. -1.
        -13    1    3    3    0    0  0.48638862723E+03  0.24097691035E+03 -0.15321724665E+03  0.56402064917E+03  0.00000000000E+00 0.  1.
         22    1    1    2    0    0 -0.85516514192E+03 -0.40289000687E+03 -0.34089997336E+04  0.35376414404E+04  0.00000000000E+00 0.  1.
<mgrwt>
<rscale>  0 0.27148809E+04</rscale>
<asrwt>0</asrwt>
<pdfrwt beam="1">  1        2 0.62322724E+00 0.27148809E+04</pdfrwt>
<pdfrwt beam="2">  1       -2 0.69979111E-01 0.27148809E+04</pdfrwt>
<totfact> 0.50737554E-01</totfact>
</mgrwt>
</event>
<event>
 6    1  0.5196787E-004  0.1381337E+04  0.7818608E-02  0.8967440E-01
         -2   -1    0    0    0  501 -0.00000000000E+00  0.00000000000E+00  0.22845306011E+03  0.22845306011E+03  0.00000000000E+00 0. -1.
          2   -1    0    0  501    0  0.00000000000E+00 -0.00000000000E+00 -0.20880570283E+04  0.20880570283E+04  0.00000000000E+00 0.  1.
         23    2    1    2    0    0 -0.27120375735E+03  0.50912232031E+03 -0.15614862686E+04  0.16671787571E+04  0.92133740087E+02 0.  0.
         11    1    3    3    0    0 -0.51126460392E+02  0.17351699560E+03 -0.54998148892E+03  0.57896606193E+03  0.00000000000E+00 0. -1.
        -11    1    3    3    0    0 -0.22007729696E+03  0.33560532471E+03 -0.10115047797E+04  0.10882126952E+04  0.00000000000E+00 0.  1.
         22    1    1    2    0    0  0.27120375735E+03 -0.50912232031E+03 -0.29811769965E+03  0.64933133136E+03  0.00000000000E+00 0. -1.
<mgrwt>
<rscale>  0 0.13813371E+04</rscale>
<asrwt>0</asrwt>
<pdfrwt beam="1">  1        2 0.32123954E+00 0.13813371E+04</pdfrwt>
<pdfrwt beam="2">  1       -2 0.35146625E-01 0.13813371E+04</pdfrwt>
<totfact> 0.44241208E+01</totfact>
</mgrwt>
</event>
<event>
 6    1  0.7106054E-004  0.3445293E+04  0.7818608E-02  0.8126879E-01
         -2   -1    0    0    0  501 -0.00000000000E+00  0.00000000000E+00  0.14818082298E+04  0.14818082298E+04  0.00000000000E+00 0. -1.
          2   -1    0    0  501    0  0.00000000000E+00 -0.00000000000E+00 -0.20026279567E+04  0.20026279567E+04  0.00000000000E+00 0.  1.
         23    2    1    2    0    0 -0.62821884281E+03 -0.11121938630E+04  0.90734321359E+03  0.15683768221E+04  0.70000325201E+02 0.  0.
         11    1    3    3    0    0 -0.42749324016E+03 -0.73575142426E+03  0.64237747847E+03  0.10661751514E+04  0.00000000000E+00 0.  1.
        -11    1    3    3    0    0 -0.20072560265E+03 -0.37644243878E+03  0.26496573512E+03  0.50220167071E+03  0.00000000000E+00 0. -1.
         22    1    1    2    0    0  0.62821884281E+03  0.11121938630E+04 -0.14281629404E+04  0.19160593644E+04  0.00000000000E+00 0.  1.
<mgrwt>
<rscale>  0 0.34452928E+04</rscale>
<asrwt>0</asrwt>
<pdfrwt beam="1">  1        2 0.30809661E+00 0.34452928E+04</pdfrwt>
<pdfrwt beam="2">  1       -2 0.22797050E+00 0.34452928E+04</pdfrwt>
<totfact> 0.48390450E-01</totfact>
</mgrwt>
</event>
<event>
 6    1  0.5196787E-004  0.3844929E+04  0.7818608E-02  0.8036581E-01
          2   -1    0    0  501    0  0.00000000000E+00  0.00000000000E+00  0.28617499754E+04  0.28617499754E+04  0.00000000000E+00 0.  1.
         -2   -1    0    0    0  501 -0.00000000000E+00 -0.00000000000E+00 -0.12914719992E+04  0.12914719992E+04  0.00000000000E+00 0. -1.
         23    2    1    2    0    0  0.81459500764E+03  0.16349568539E+04  0.14200079016E+03  0.18344669938E+04  0.91956436915E+02 0.  0.
         11    1    3    3    0    0  0.61954813200E+03  0.11962833813E+04  0.13931034808E+03  0.13543785252E+04  0.00000000000E+00 0. -1.
        -11    1    3    3    0    0  0.19504687564E+03  0.43867347260E+03  0.26904420732E+01  0.48008846866E+03  0.00000000000E+00 0.  1.
         22    1    1    2    0    0 -0.81459500764E+03 -0.16349568539E+04  0.14282771860E+04  0.23187549808E+04  0.00000000000E+00 0.  1.
<mgrwt>
<rscale>  0 0.38449291E+04</rscale>
<asrwt>0</asrwt>
<pdfrwt beam="1">  1        2 0.44026922E+00 0.38449291E+04</pdfrwt>
<pdfrwt beam="2">  1       -2 0.19868800E+00 0.38449291E+04</pdfrwt>
<totfact> 0.22975374E-01</totfact>
</mgrwt>
</event>
<event>
 6    1  0.5196787E-004  0.3879183E+04  0.7818608E-02  0.8029373E-01
          2   -1    0    0  501    0  0.00000000000E+00  0.00000000000E+00  0.24871668431E+04  0.24871668431E+04  0.00000000000E+00 0.  1.
         -2   -1    0    0    0  501 -0.00000000000E+00 -0.00000000000E+00 -0.15125707401E+04  0.15125707401E+04  0.00000000000E+00 0. -1.
         23    2    1    2    0    0 -0.78126810762E+03 -0.13228148475E+04 -0.73132652072E+03  0.17040043725E+04  0.92592899687E+02 0.  0.
         13    1    3    3    0    0 -0.24508428930E+03 -0.38612546818E+03 -0.26211289699E+03  0.52712650930E+03  0.00000000000E+00 0.  1.
        -13    1    3    3    0    0 -0.53618381832E+03 -0.93668937927E+03 -0.46921362374E+03  0.11768778632E+04  0.00000000000E+00 0. -1.
         22    1    1    2    0    0  0.78126810762E+03  0.13228148475E+04  0.17059226237E+04  0.22957332107E+04  0.00000000000E+00 0.  1.
<mgrwt>
<rscale>  0 0.38791833E+04</rscale>
<asrwt>0</asrwt>
<pdfrwt beam="1">  1        2 0.38264105E+00 0.38791833E+04</pdfrwt>
<pdfrwt beam="2">  1       -2 0.23270319E+00 0.38791833E+04</pdfrwt>
<totfact> 0.23198889E-01</totfact>
</mgrwt>
</event>
<event>
 6    1  0.5196787E-004  0.3071342E+04  0.7818608E-02  0.8223647E-01
         -2   -1    0    0    0  501 -0.00000000000E+00  0.00000000000E+00  0.14414222425E+04  0.14414222425E+04  0.00000000000E+00 0. -1.
          2   -1    0    0  501    0  0.00000000000E+00 -0.00000000000E+00 -0.16360822786E+04  0.16360822786E+04  0.00000000000E+00 0.  1.
         23    2    1    2    0    0 -0.94437916109E+02 -0.92949336599E+03 -0.13168934009E+04  0.16172702377E+04  0.92077982494E+02 0.  0.
         13    1    3    3    0    0 -0.41992222929E+02 -0.17957157196E+03 -0.30989344363E+03  0.36061508932E+03  0.00000000000E+00 0. -1.
        -13    1    3    3    0    0 -0.52445693180E+02 -0.74992179403E+03 -0.10069999573E+04  0.12566551484E+04  0.00000000000E+00 0.  1.
         22    1    1    2    0    0  0.94437916109E+02  0.92949336599E+03  0.11222333648E+04  0.14602342834E+04  0.00000000000E+00 0. -1.
<mgrwt>
<rscale>  0 0.30713420E+04</rscale>
<asrwt>0</asrwt>
<pdfrwt beam="1">  1        2 0.25170496E+00 0.30713420E+04</pdfrwt>
<pdfrwt beam="2">  1       -2 0.22175727E+00 0.30713420E+04</pdfrwt>
<totfact> 0.87283297E-01</totfact>
</mgrwt>
</event>
<event>
 6    1  0.6069792E-004  0.3477827E+04  0.7818608E-02  0.8119065E-01
         -2   -1    0    0    0  501 -0.00000000000E+00  0.00000000000E+00  0.17111525512E+04  0.17111525512E+04  0.00000000000E+00 0. -1.
          2   -1    0    0  501    0  0.00000000000E+00 -0.00000000000E+00 -0.17671251413E+04  0.17671251413E+04  0.00000000000E+00 0.  1.
         23    2    1    2    0    0 -0.11708973977E+04  0.95722475118E+03 -0.88372877827E+03  0.17541952563E+04  0.94575384951E+02 0.  0.
         13    1    3    3    0    0 -0.67216996446E+03  0.52737951764E+03 -0.44838068800E+03  0.96487660253E+03  0.00000000000E+00 0. -1.
        -13    1    3    3    0    0 -0.49872743321E+03  0.42984523354E+03 -0.43534809027E+03  0.78931865374E+03  0.00000000000E+00 0.  1.
         22    1    1    2    0    0  0.11708973977E+04 -0.95722475118E+03  0.82775618816E+03  0.17240824363E+04  0.00000000000E+00 0. -1.
<mgrwt>
<rscale>  0 0.34778273E+04</rscale>
<asrwt>0</asrwt>
<pdfrwt beam="1">  1        2 0.27186541E+00 0.34778273E+04</pdfrwt>
<pdfrwt beam="2">  1       -2 0.26325424E+00 0.34778273E+04</pdfrwt>
<totfact> 0.39481972E-01</totfact>
</mgrwt>
</event>
<event>
 6    1  0.5196787E-004  0.1080043E+04  0.7818608E-02  0.9224865E-01
         -2   -1    0    0    0  501 -0.00000000000E+00  0.00000000000E+00  0.16165031591E+03  0.16165031591E+03  0.00000000000E+00 0. -1.
          2   -1    0    0  501    0  0.00000000000E+00 -0.00000000000E+00 -0.18040365256E+04  0.18040365256E+04  0.00000000000E+00 0.  1.
         23    2    1    2    0    0 -0.21111873543E+03  0.49128107821E+03 -0.85778365068E+03  0.10161978243E+04  0.10458015303E+03 0.  0.
         11    1    3    3    0    0 -0.14973762206E+03  0.22467806900E+03 -0.46079144970E+03  0.53406961182E+03  0.00000000000E+00 0.  1.
        -11    1    3    3    0    0 -0.61381113372E+02  0.26660300921E+03 -0.39699220098E+03  0.48212821245E+03  0.00000000000E+00 0. -1.
         22    1    1    2    0    0  0.21111873543E+03 -0.49128107821E+03 -0.78460255898E+03  0.94948901722E+03  0.00000000000E+00 0.  1.
<mgrwt>
<rscale>  0 0.10800427E+04</rscale>
<asrwt>0</asrwt>
<pdfrwt beam="1">  1        2 0.27754410E+00 0.10800427E+04</pdfrwt>
<pdfrwt beam="2">  1       -2 0.24869277E-01 0.10800427E+04</pdfrwt>
<totfact> 0.12367211E+02</totfact>
</mgrwt>
</event>
<event>
 6    1  0.5196787E-004  0.1955451E+04  0.7818608E-02  0.8627737E-01
         -2   -1    0    0    0  501 -0.00000000000E+00  0.00000000000E+00  0.26652038788E+03  0.26652038788E+03  0.00000000000E+00 0. -1.
          2   -1    0    0  501    0  0.00000000000E+00 -0.00000000000E+00 -0.35867708147E+04  0.35867708147E+04  0.00000000000E+00 0.  1.
         23    2    1    2    0    0  0.28922072231E+03  0.91017115788E+03 -0.12712529949E+04  0.15926606183E+04  0.91779654517E+02 0.  0.
         11    1    3    3    0    0  0.14635463475E+03  0.53985995352E+03 -0.80650660489E+03  0.98148935412E+03  0.00000000000E+00 0.  1.
        -11    1    3    3    0    0  0.14286608755E+03  0.37031120437E+03 -0.46474639005E+03  0.61117126415E+03  0.00000000000E+00 0. -1.
         22    1    1    2    0    0 -0.28922072231E+03 -0.91017115788E+03 -0.20489974319E+04  0.22606305843E+04  0.00000000000E+00 0.  1.
<mgrwt>
<rscale>  0 0.19554514E+04</rscale>
<asrwt>0</asrwt>
<pdfrwt beam="1">  1        2 0.55181089E+00 0.19554514E+04</pdfrwt>
<pdfrwt beam="2">  1       -2 0.41003137E-01 0.19554514E+04</pdfrwt>
<totfact> 0.37323134E+00</totfact>
</mgrwt>
</event>
<event>
 6    1  0.5196787E-004  0.9440832E+03  0.7818608E-02  0.9372093E-01
          2   -1    0    0  501    0  0.00000000000E+00  0.00000000000E+00  0.17884511611E+04  0.17884511611E+04  0.00000000000E+00 0.  1.
         -2   -1    0    0    0  501 -0.00000000000E+00 -0.00000000000E+00 -0.12459007240E+03  0.12459007240E+03  0.00000000000E+00 0. -1.
         23    2    1    2    0    0  0.16694309724E+03 -0.43165280400E+03  0.99729171055E+03  0.11015556349E+04  0.68116957241E+02 0.  0.
         13    1    3    3    0    0  0.61926659550E+02 -0.16321278747E+03  0.30100318351E+03  0.34796011501E+03  0.00000000000E+00 0.  1.
        -13    1    3    3    0    0  0.10501643769E+03 -0.26844001653E+03  0.69628852704E+03  0.75359551986E+03  0.00000000000E+00 0. -1.
         22    1    1    2    0    0 -0.16694309724E+03  0.43165280400E+03  0.66656937819E+03  0.81148559868E+03  0.00000000000E+00 0. -1.
<mgrwt>
<rscale>  0 0.94408317E+03</rscale>
<asrwt>0</asrwt>
<pdfrwt beam="1">  1        2 0.27514631E+00 0.94408317E+03</pdfrwt>
<pdfrwt beam="2">  1       -2 0.19167705E-01 0.94408317E+03</pdfrwt>
<totfact> 0.20231030E+02</totfact>
</mgrwt>
</event>
<event>
 6    1  0.5196787E-004  0.4223797E+04  0.7818608E-02  0.7960861E-01
          2   -1    0    0  501    0  0.00000000000E+00  0.00000000000E+00  0.26008316572E+04  0.26008316572E+04  0.00000000000E+00 0.  1.
         -2   -1    0    0    0  501 -0.00000000000E+00 -0.00000000000E+00 -0.17148804457E+04  0.17148804457E+04  0.00000000000E+00 0. -1.
         23    2    1    2    0    0 -0.20354562897E+04 -0.55925856258E+03  0.42944986594E+03  0.21560255687E+04  0.90369344064E+02 0.  0.
         11    1    3    3    0    0 -0.58164466945E+03 -0.13402849722E+03  0.15437581534E+03  0.61652741377E+03  0.00000000000E+00 0. -1.
        -11    1    3    3    0    0 -0.14538116203E+04 -0.42523006536E+03  0.27507405060E+03  0.15394981549E+04  0.00000000000E+00 0.  1.
         22    1    1    2    0    0  0.20354562897E+04  0.55925856258E+03  0.45650134555E+03  0.21596865341E+04  0.00000000000E+00 0. -1.
<mgrwt>
<rscale>  0 0.42237970E+04</rscale>
<asrwt>0</asrwt>
<pdfrwt beam="1">  1        2 0.40012795E+00 0.42237970E+04</pdfrwt>
<pdfrwt beam="2">  1       -2 0.26382776E+00 0.42237970E+04</pdfrwt>
<totfact> 0.12450059E-01</totfact>
</mgrwt>
</event>
<event>
 6    1  0.5196787E-004  0.2296904E+04  0.7818608E-02  0.8479143E-01
          2   -1    0    0  501    0  0.00000000000E+00  0.00000000000E+00  0.15658960016E+04  0.15658960016E+04  0.00000000000E+00 0.  1.
         -2   -1    0    0    0  501 -0.00000000000E+00 -0.00000000000E+00 -0.84229219805E+03  0.84229219805E+03  0.00000000000E+00 0. -1.
         23    2    1    2    0    0 -0.95895031736E+03 -0.51190060788E+03  0.74494528271E+03  0.13209516099E+04  0.91333114578E+02 0.  0.
         13    1    3    3    0    0 -0.70410331126E+03 -0.38462032045E+03  0.50078356688E+03  0.94576870570E+03  0.00000000000E+00 0. -1.
        -13    1    3    3    0    0 -0.25484700610E+03 -0.12728028743E+03  0.24416171583E+03  0.37518290415E+03  0.00000000000E+00 0.  1.
         22    1    1    2    0    0  0.95895031736E+03  0.51190060788E+03 -0.21341479125E+02  0.10872365898E+04  0.00000000000E+00 0.  1.
<mgrwt>
<rscale>  0 0.22969040E+04</rscale>
<asrwt>0</asrwt>
<pdfrwt beam="1">  1        2 0.24090708E+00 0.22969040E+04</pdfrwt>
<pdfrwt beam="2">  1       -2 0.12958342E+00 0.22969040E+04</pdfrwt>
<totfact> 0.46280622E+00</totfact>
</mgrwt>
</event>
<event>
 6    1  0.5196787E-004  0.2648039E+04  0.7818608E-02  0.8352064E-01
          2   -1    0    0  501    0  0.00000000000E+00  0.00000000000E+00  0.29427288266E+04  0.29427288266E+04  0.00000000000E+00 0.  1.
         -2   -1    0    0    0  501 -0.00000000000E+00 -0.00000000000E+00 -0.59571483737E+03  0.59571483737E+03  0.00000000000E+00 0. -1.
         23    2    1    2    0    0  0.16778555084E+03  0.13029345999E+04  0.97190186966E+03  0.16366750387E+04  0.91221572805E+02 0.  0.
         11    1    3    3    0    0  0.86619448159E+02  0.36305728946E+03  0.26168925564E+03  0.45584513900E+03  0.00000000000E+00 0. -1.
        -11    1    3    3    0    0  0.81166102686E+02  0.93987731043E+03  0.71021261402E+03  0.11808298997E+04  0.00000000000E+00 0.  1.
         22    1    1    2    0    0 -0.16778555084E+03 -0.13029345999E+04  0.13751121195E+04  0.19017686252E+04  0.00000000000E+00 0. -1.
<mgrwt>
<rscale>  0 0.26480387E+04</rscale>
<asrwt>0</asrwt>
<pdfrwt beam="1">  1        2 0.45272751E+00 0.26480387E+04</pdfrwt>
<pdfrwt beam="2">  1       -2 0.91648438E-01 0.26480387E+04</pdfrwt>
<totfact> 0.16874671E+00</totfact>
</mgrwt>
</event>
<event>
 6    1  0.5196787E-004  0.3329297E+04  0.7818608E-02  0.8155480E-01
          2   -1    0    0  501    0  0.00000000000E+00  0.00000000000E+00  0.11923883270E+04  0.11923883270E+04  0.00000000000E+00 0.  1.
         -2   -1    0    0    0  501 -0.00000000000E+00 -0.00000000000E+00 -0.23239534641E+04  0.23239534641E+04  0.00000000000E+00 0. -1.
         23    2    1    2    0    0 -0.15400658922E+03 -0.15889837362E+04 -0.10598269340E+04  0.19183012055E+04  0.89772165264E+02 0.  0.
         11    1    3    3    0    0  0.10630920623E+01 -0.38721776004E+03 -0.25826882619E+03  0.46544764522E+03  0.00000000000E+00 0. -1.
        -11    1    3    3    0    0 -0.15506968128E+03 -0.12017659762E+04 -0.80155810781E+03  0.14528535603E+04  0.00000000000E+00 0.  1.
         22    1    1    2    0    0  0.15400658922E+03  0.15889837362E+04 -0.71738203111E+02  0.15980405856E+04  0.00000000000E+00 0. -1.
<mgrwt>
<rscale>  0 0.33292972E+04</rscale>
<asrwt>0</asrwt>
<pdfrwt beam="1">  1        2 0.18344436E+00 0.33292972E+04</pdfrwt>
<pdfrwt beam="2">  1       -2 0.35753130E+00 0.33292972E+04</pdfrwt>
<totfact> 0.22224357E-01</totfact>
</mgrwt>
</event>
<event>
 6    1  0.5196787E-004  0.4888588E+04  0.7818608E-02  0.7845927E-01
         -2   -1    0    0    0  501 -0.00000000000E+00  0.00000000000E+00  0.23948722397E+04  0.23948722397E+04  0.00000000000E+00 0. -1.
          2   -1    0    0  501    0  0.00000000000E+00 -0.00000000000E+00 -0.24947352277E+04  0.24947352277E+04  0.00000000000E+00 0.  1.
         23    2    1    2    0    0 -0.14851067402E+04 -0.93830411317E+03  0.16487713198E+04  0.24109629626E+04  0.91317597247E+02 0.  0.
         11    1    3    3    0    0 -0.66385798151E+03 -0.47226807642E+03  0.77578653395E+03  0.11249841341E+04  0.00000000000E+00 0. -1.
        -11    1    3    3    0    0 -0.82124875867E+03 -0.46603603676E+03  0.87298478590E+03  0.12859788286E+04  0.00000000000E+00 0.  1.
         22    1    1    2    0    0  0.14851067402E+04  0.93830411317E+03 -0.17486343078E+04  0.24786445048E+04  0.00000000000E+00 0.  1.
<mgrwt>
<rscale>  0 0.48885876E+04</rscale>
<asrwt>0</asrwt>
<pdfrwt beam="1">  1        2 0.38380542E+00 0.48885876E+04</pdfrwt>
<pdfrwt beam="2">  1       -2 0.36844188E+00 0.48885876E+04</pdfrwt>
<totfact> 0.30593998E-02</totfact>
</mgrwt>
</event>
<event>
 6    1  0.5196787E-004  0.1402941E+04  0.7818608E-02  0.8951693E-01
          2   -1    0    0  501    0  0.00000000000E+00  0.00000000000E+00  0.11810329667E+04  0.11810329667E+04  0.00000000000E+00 0.  1.
         -2   -1    0    0    0  501 -0.00000000000E+00 -0.00000000000E+00 -0.41663589847E+03  0.41663589847E+03  0.00000000000E+00 0. -1.
         23    2    1    2    0    0  0.22906248241E+03 -0.65479245263E+03  0.29245661214E+03  0.75865124263E+03  0.93797980176E+02 0.  0.
         11    1    3    3    0    0  0.10376520829E+03 -0.31273810209E+03  0.88592189481E+02  0.34120509227E+03  0.00000000000E+00 0.  1.
        -11    1    3    3    0    0  0.12529727412E+03 -0.34205435053E+03  0.20386442266E+03  0.41744615036E+03  0.00000000000E+00 0. -1.
         22    1    1    2    0    0 -0.22906248241E+03  0.65479245263E+03  0.47194045613E+03  0.83901762258E+03  0.00000000000E+00 0.  1.
<mgrwt>
<rscale>  0 0.14029408E+04</rscale>
<asrwt>0</asrwt>
<pdfrwt beam="1">  1        2 0.18169738E+00 0.14029408E+04</pdfrwt>
<pdfrwt beam="2">  1       -2 0.64097831E-01 0.14029408E+04</pdfrwt>
<totfact> 0.42568978E+01</totfact>
</mgrwt>
</event>
<event>
 6    1  0.5196787E-004  0.1075325E+04  0.7818608E-02  0.9229581E-01
         -2   -1    0    0    0  501 -0.00000000000E+00  0.00000000000E+00  0.17881042502E+03  0.17881042502E+03  0.00000000000E+00 0. -1.
          2   -1    0    0  501    0  0.00000000000E+00 -0.00000000000E+00 -0.16166902254E+04  0.16166902254E+04  0.00000000000E+00 0.  1.
         23    2    1    2    0    0  0.42897380249E+03  0.28362191364E+03 -0.48659005289E+03  0.71410706029E+03  0.93376125779E+02 0.  0.
         13    1    3    3    0    0  0.41694696355E+03  0.24834133093E+03 -0.45520411161E+03  0.66537881713E+03  0.00000000000E+00 0. -1.
        -13    1    3    3    0    0  0.12026838938E+02  0.35280582709E+02 -0.31385941287E+02  0.48728243162E+02  0.00000000000E+00 0.  1.
         22    1    1    2    0    0 -0.42897380249E+03 -0.28362191364E+03 -0.95128974748E+03  0.10813935901E+04  0.00000000000E+00 0. -1.
<mgrwt>
<rscale>  0 0.10753252E+04</rscale>
<asrwt>0</asrwt>
<pdfrwt beam="1">  1        2 0.24872157E+00 0.10753252E+04</pdfrwt>
<pdfrwt beam="2">  1       -2 0.27509297E-01 0.10753252E+04</pdfrwt>
<totfact> 0.13065084E+02</totfact>
</mgrwt>
</event>
<event>
 6    1  0.5196787E-004  0.2432473E+04  0.7818608E-02  0.8427445E-01
          4   -1    0    0  501    0  0.00000000000E+00  0.00000000000E+00  0.14777824457E+04  0.14777824457E+04  0.00000000000E+00 0. -1.
         -4   -1    0    0    0  501 -0.00000000000E+00 -0.00000000000E+00 -0.10009804187E+04  0.10009804187E+04  0.00000000000E+00 0.  1.
         23    2    1    2    0    0  0.63903072885E+03 -0.29412414160E+03 -0.77007495505E+03  0.10471304075E+04  0.92722008039E+02 0.  0.
         13    1    3    3    0    0  0.24769439668E+03 -0.69145864287E+02 -0.30640454573E+03  0.40002176233E+03  0.00000000000E+00 0.  1.
        -13    1    3    3    0    0  0.39133633217E+03 -0.22497827732E+03 -0.46367040932E+03  0.64710864514E+03  0.00000000000E+00 0. -1.
         22    1    1    2    0    0 -0.63903072885E+03  0.29412414160E+03  0.12468769821E+04  0.14316324568E+04  0.00000000000E+00 0. -1.
<mgrwt>
<rscale>  0 0.24324731E+04</rscale>
<asrwt>0</asrwt>
<pdfrwt beam="1">  1        4 0.22735114E+00 0.24324731E+04</pdfrwt>
<pdfrwt beam="2">  1       -4 0.15399699E+00 0.24324731E+04</pdfrwt>
<totfact> 0.43522372E-02</totfact>
</mgrwt>
</event>
<event>
 6    1  0.5196787E-004  0.2727271E+04  0.7818608E-02  0.8326210E-01
         -2   -1    0    0    0  501 -0.00000000000E+00  0.00000000000E+00  0.15263828840E+04  0.15263828840E+04  0.00000000000E+00 0. -1.
          2   -1    0    0  501    0  0.00000000000E+00 -0.00000000000E+00 -0.12182410555E+04  0.12182410555E+04  0.00000000000E+00 0.  1.
         23    2    1    2    0    0 -0.12230185818E+04 -0.26346519567E+03  0.69635990151E+03  0.14346996543E+04  0.90871475002E+02 0.  0.
         11    1    3    3    0    0 -0.11253646136E+04 -0.25535447437E+03  0.66471085329E+03  0.13317251742E+04  0.00000000000E+00 0. -1.
        -11    1    3    3    0    0 -0.97653968232E+02 -0.81107212981E+01  0.31649048222E+02  0.10297448016E+03  0.00000000000E+00 0.  1.
         22    1    1    2    0    0  0.12230185818E+04  0.26346519567E+03 -0.38821807305E+03  0.13099242852E+04  0.00000000000E+00 0.  1.
<mgrwt>
<rscale>  0 0.27272714E+04</rscale>
<asrwt>0</asrwt>
<pdfrwt beam="1">  1        2 0.18742170E+00 0.27272714E+04</pdfrwt>
<pdfrwt beam="2">  1       -2 0.23482814E+00 0.27272714E+04</pdfrwt>
<totfact> 0.12896837E+00</totfact>
</mgrwt>
</event>
<event>
 6    1  0.5196787E-004  0.1161587E+04  0.7818608E-02  0.9147160E-01
         -2   -1    0    0    0  501 -0.00000000000E+00  0.00000000000E+00  0.53208783064E+03  0.53208783064E+03  0.00000000000E+00 0. -1.
          2   -1    0    0  501    0  0.00000000000E+00 -0.00000000000E+00 -0.63395799299E+03  0.63395799299E+03  0.00000000000E+00 0.  1.
         23    2    1    2    0    0  0.26883094624E+02 -0.56168114726E+03  0.79384580728E+02  0.57523139095E+03  0.91546870560E+02 0.  0.
         11    1    3    3    0    0  0.21529392418E+02 -0.38657024378E+03  0.11481168010E+02  0.38733949622E+03  0.00000000000E+00 0.  1.
        -11    1    3    3    0    0  0.53537022062E+01 -0.17511090349E+03  0.67903412719E+02  0.18789189473E+03  0.00000000000E+00 0. -1.
         22    1    1    2    0    0 -0.26883094624E+02  0.56168114726E+03 -0.18125474308E+03  0.59081443267E+03  0.00000000000E+00 0.  1.
<mgrwt>
<rscale>  0 0.11615874E+04</rscale>
<asrwt>0</asrwt>
<pdfrwt beam="1">  1        2 0.97531999E-01 0.11615874E+04</pdfrwt>
<pdfrwt beam="2">  1       -2 0.81859666E-01 0.11615874E+04</pdfrwt>
<totfact> 0.60232769E+01</totfact>
</mgrwt>
</event>
<event>
 6    1  0.5196787E-004  0.2799472E+04  0.7818608E-02  0.8303432E-01
          2   -1    0    0  501    0  0.00000000000E+00  0.00000000000E+00  0.97880209023E+03  0.97880209023E+03  0.00000000000E+00 0.  1.
         -2   -1    0    0    0  501 -0.00000000000E+00 -0.00000000000E+00 -0.20016920797E+04  0.20016920797E+04  0.00000000000E+00 0. -1.
         23    2    1    2    0    0  0.99394340364E+03  0.92651764033E+03 -0.16083902827E+03  0.13713048439E+04  0.90825956094E+02 0.  0.
         13    1    3    3    0    0  0.18746186834E+03  0.19968982149E+03 -0.64337275831E+02  0.28134900382E+03  0.00000000000E+00 0. -1.
        -13    1    3    3    0    0  0.80648153530E+03  0.72682781884E+03 -0.96501752439E+02  0.10899558400E+04  0.00000000000E+00 0.  1.
         22    1    1    2    0    0 -0.99394340364E+03 -0.92651764033E+03 -0.86205096123E+03  0.16091893261E+04  0.00000000000E+00 0.  1.
<mgrwt>
<rscale>  0 0.27994717E+04</rscale>
<asrwt>0</asrwt>
<pdfrwt beam="1">  1        2 0.15058494E+00 0.27994717E+04</pdfrwt>
<pdfrwt beam="2">  1       -2 0.30795262E+00 0.27994717E+04</pdfrwt>
<totfact> 0.64260503E-01</totfact>
</mgrwt>
</event>
<event>
 6    1  0.5196787E-004  0.9386190E+03  0.7818608E-02  0.9378553E-01
          2   -1    0    0  501    0  0.00000000000E+00  0.00000000000E+00  0.15769830901E+04  0.15769830901E+04  0.00000000000E+00 0.  1.
         -2   -1    0    0    0  501 -0.00000000000E+00 -0.00000000000E+00 -0.13966629889E+03  0.13966629889E+03  0.00000000000E+00 0. -1.
         23    2    1    2    0    0 -0.46737578539E+01 -0.38585335167E+03  0.12000693641E+04  0.12636692628E+04  0.88254598576E+02 0.  0.
         11    1    3    3    0    0  0.90828421712E+01 -0.21290195597E+03  0.52352960448E+03  0.56523710745E+03  0.00000000000E+00 0.  1.
        -11    1    3    3    0    0 -0.13756600025E+02 -0.17295139570E+03  0.67653975962E+03  0.69843215538E+03  0.00000000000E+00 0. -1.
         22    1    1    2    0    0  0.46737578539E+01  0.38585335167E+03  0.23724742709E+03  0.45298012613E+03  0.00000000000E+00 0. -1.
<mgrwt>
<rscale>  0 0.93861897E+03</rscale>
<asrwt>0</asrwt>
<pdfrwt beam="1">  1        2 0.24261277E+00 0.93861897E+03</pdfrwt>
<pdfrwt beam="2">  1       -2 0.21487124E-01 0.93861897E+03</pdfrwt>
<totfact> 0.21659386E+02</totfact>
</mgrwt>
</event>
<event>
 6    1  0.5196787E-004  0.2641280E+04  0.7818608E-02  0.8354313E-01
          2   -1    0    0  501    0  0.00000000000E+00  0.00000000000E+00  0.21158621377E+04  0.21158621377E+04  0.00000000000E+00 0.  1.
         -2   -1    0    0    0  501 -0.00000000000E+00 -0.00000000000E+00 -0.82429263984E+03  0.82429263984E+03  0.00000000000E+00 0. -1.
         23    2    1    2    0    0  0.21285867998E+03  0.62436063384E+02  0.20939652457E+04  0.21076609243E+04  0.91307403703E+02 0.  0.
         11    1    3    3    0    0  0.11603937173E+03 -0.11199663059E+02  0.90111436873E+03  0.90862405525E+03  0.00000000000E+00 0. -1.
        -11    1    3    3    0    0  0.96819308250E+02  0.73635726443E+02  0.11928508770E+04  0.11990368690E+04  0.00000000000E+00 0.  1.
         22    1    1    2    0    0 -0.21285867998E+03 -0.62436063384E+02 -0.80239574780E+03  0.83249385328E+03  0.00000000000E+00 0. -1.
<mgrwt>
<rscale>  0 0.26412797E+04</rscale>
<asrwt>0</asrwt>
<pdfrwt beam="1">  1        2 0.32551725E+00 0.26412797E+04</pdfrwt>
<pdfrwt beam="2">  1       -2 0.12681425E+00 0.26412797E+04</pdfrwt>
<totfact> 0.23466855E+00</totfact>
</mgrwt>
</event>
<event>
 6    1  0.5196787E-004  0.1093650E+04  0.7818608E-02  0.9211403E-01
         -2   -1    0    0    0  501 -0.00000000000E+00  0.00000000000E+00  0.17614437423E+03  0.17614437423E+03  0.00000000000E+00 0. -1.
          2   -1    0    0  501    0  0.00000000000E+00 -0.00000000000E+00 -0.16975706765E+04  0.16975706765E+04  0.00000000000E+00 0.  1.
         23    2    1    2    0    0  0.53309842671E+03 -0.10427401815E+02 -0.93615741467E+03  0.10819812987E+04  0.99950800134E+02 0.  0.
         13    1    3    3    0    0  0.14812702465E+03  0.34819972781E+02 -0.31451051902E+03  0.34938648015E+03  0.00000000000E+00 0. -1.
        -13    1    3    3    0    0  0.38497140206E+03 -0.45247374595E+02 -0.62164689565E+03  0.73259481856E+03  0.00000000000E+00 0.  1.
         22    1    1    2    0    0 -0.53309842671E+03  0.10427401815E+02 -0.58526888756E+03  0.79173375197E+03  0.00000000000E+00 0. -1.
<mgrwt>
<rscale>  0 0.10936499E+04</rscale>
<asrwt>0</asrwt>
<pdfrwt beam="1">  1        2 0.26116471E+00 0.10936499E+04</pdfrwt>
<pdfrwt beam="2">  1       -2 0.27099135E-01 0.10936499E+04</pdfrwt>
<totfact> 0.12097467E+02</totfact>
</mgrwt>
</event>
<event>
 6    1  0.5196787E-004  0.5366442E+04  0.7818608E-02  0.7774339E-01
          2   -1    0    0  501    0  0.00000000000E+00  0.00000000000E+00  0.24907050616E+04  0.24907050616E+04  0.00000000000E+00 0. -1.
         -2   -1    0    0    0  501 -0.00000000000E+00 -0.00000000000E+00 -0.28906168267E+04  0.28906168267E+04  0.00000000000E+00 0.  1.
         23    2    1    2    0    0  0.24959300001E+04  0.80043965794E+03  0.37176092310E+03  0.26489513152E+04  0.91469530345E+02 0.  0.
         11    1    3    3    0    0  0.86216134395E+03  0.23098265541E+03  0.12645750103E+03  0.90148026582E+03  0.00000000000E+00 0. -1.
        -11    1    3    3    0    0  0.16337686561E+04  0.56945700254E+03  0.24530342207E+03  0.17474710494E+04  0.00000000000E+00 0.  1.
         22    1    1    2    0    0 -0.24959300001E+04 -0.80043965794E+03 -0.77167268814E+03  0.27323705731E+04  0.00000000000E+00 0.  1.
<mgrwt>
<rscale>  0 0.53664416E+04</rscale>
<asrwt>0</asrwt>
<pdfrwt beam="1">  1        2 0.38318539E+00 0.53664416E+04</pdfrwt>
<pdfrwt beam="2">  1       -2 0.44471028E+00 0.53664416E+04</pdfrwt>
<totfact> 0.94082414E-03</totfact>
</mgrwt>
</event>
<event>
 6    1  0.5196787E-004  0.2333477E+04  0.7818608E-02  0.8464837E-01
          2   -1    0    0  501    0  0.00000000000E+00  0.00000000000E+00  0.34434992647E+04  0.34434992647E+04  0.00000000000E+00 0.  1.
         -2   -1    0    0    0  501 -0.00000000000E+00 -0.00000000000E+00 -0.39531845951E+03  0.39531845951E+03  0.00000000000E+00 0. -1.
         23    2    1    2    0    0 -0.71578747647E+03  0.17910261971E+03  0.30094096724E+04  0.30999451637E+04  0.93187885369E+02 0.  0.
         13    1    3    3    0    0 -0.61321486470E+03  0.13035667614E+03  0.24343672038E+04  0.25137957388E+04  0.00000000000E+00 0.  1.
        -13    1    3    3    0    0 -0.10257261177E+03  0.48745943573E+02  0.57504246854E+03  0.58614942491E+03  0.00000000000E+00 0. -1.
         22    1    1    2    0    0  0.71578747647E+03 -0.17910261971E+03  0.38771132772E+02  0.73887256045E+03  0.00000000000E+00 0. -1.
<mgrwt>
<rscale>  0 0.23334771E+04</rscale>
<asrwt>0</asrwt>
<pdfrwt beam="1">  1        2 0.52976910E+00 0.23334771E+04</pdfrwt>
<pdfrwt beam="2">  1       -2 0.60818227E-01 0.23334771E+04</pdfrwt>
<totfact> 0.20294966E+00</totfact>
</mgrwt>
</event>
<event>
 6    1  0.5196787E-004  0.3213765E+04  0.7818608E-02  0.8185191E-01
         -2   -1    0    0    0  501 -0.00000000000E+00  0.00000000000E+00  0.98660343831E+03  0.98660343831E+03  0.00000000000E+00 0. -1.
          2   -1    0    0  501    0  0.00000000000E+00 -0.00000000000E+00 -0.26171323786E+04  0.26171323786E+04  0.00000000000E+00 0.  1.
         23    2    1    2    0    0  0.13953425021E+04 -0.33217686288E+03 -0.68780456232E+01  0.14372722483E+04  0.91553491417E+02 0.  0.
         11    1    3    3    0    0  0.40286500961E+03 -0.55145742567E+02 -0.13214274620E+02  0.40683643635E+03  0.00000000000E+00 0.  1.
        -11    1    3    3    0    0  0.99247749250E+03 -0.27703112031E+03  0.63362289968E+01  0.10304358119E+04  0.00000000000E+00 0. -1.
         22    1    1    2    0    0 -0.13953425021E+04  0.33217686288E+03 -0.16236508947E+04  0.21664635686E+04  0.00000000000E+00 0. -1.
<mgrwt>
<rscale>  0 0.32137653E+04</rscale>
<asrwt>0</asrwt>
<pdfrwt beam="1">  1        2 0.40263574E+00 0.32137653E+04</pdfrwt>
<pdfrwt beam="2">  1       -2 0.15178515E+00 0.32137653E+04</pdfrwt>
<totfact> 0.72591459E-01</totfact>
</mgrwt>
</event>
<event>
 6    1  0.5196787E-004  0.6178480E+04  0.7818608E-02  0.7668658E-01
          2   -1    0    0  501    0  0.00000000000E+00  0.00000000000E+00  0.20818525973E+04  0.20818525973E+04  0.00000000000E+00 0.  1.
         -2   -1    0    0    0  501 -0.00000000000E+00 -0.00000000000E+00 -0.45840920332E+04  0.45840920332E+04  0.00000000000E+00 0. -1.
         23    2    1    2    0    0  0.11140907629E+04  0.14087263151E+04  0.14595770089E+04  0.23160368611E+04  0.89183172601E+02 0.  0.
         11    1    3    3    0    0  0.11851404491E+03  0.11477773352E+03  0.15203708985E+03  0.22435414782E+03  0.00000000000E+00 0.  1.
        -11    1    3    3    0    0  0.99557671796E+03  0.12939485816E+04  0.13075399191E+04  0.20916827133E+04  0.00000000000E+00 0. -1.
         22    1    1    2    0    0 -0.11140907629E+04 -0.14087263151E+04 -0.39618164448E+04  0.43499077693E+04  0.00000000000E+00 0. -1.
<mgrwt>
<rscale>  0 0.61784800E+04</rscale>
<asrwt>0</asrwt>
<pdfrwt beam="1">  1        2 0.32028502E+00 0.61784800E+04</pdfrwt>
<pdfrwt beam="2">  1       -2 0.70524492E+00 0.61784800E+04</pdfrwt>
<totfact> 0.88654252E-04</totfact>
</mgrwt>
</event>
<event>
 6    1  0.5196787E-004  0.1482844E+04  0.7818608E-02  0.8895942E-01
          2   -1    0    0  501    0  0.00000000000E+00  0.00000000000E+00  0.22182377501E+04  0.22182377501E+04  0.00000000000E+00 0.  1.
         -2   -1    0    0    0  501 -0.00000000000E+00 -0.00000000000E+00 -0.24781224506E+03  0.24781224506E+03  0.00000000000E+00 0. -1.
         23    2    1    2    0    0  0.52105588258E+03  0.40316443213E+03  0.15442823555E+04  0.16814234751E+04  0.91302338041E+02 0.  0.
         11    1    3    3    0    0  0.35794493097E+03  0.31068261068E+03  0.10236284604E+04  0.11280352313E+04  0.00000000000E+00 0.  1.
        -11    1    3    3    0    0  0.16311095161E+03  0.92481821442E+02  0.52065389508E+03  0.55338824373E+03  0.00000000000E+00 0. -1.
         22    1    1    2    0    0 -0.52105588258E+03 -0.40316443213E+03  0.42614314952E+03  0.78462652006E+03  0.00000000000E+00 0. -1.
<mgrwt>
<rscale>  0 0.14828439E+04</rscale>
<asrwt>0</asrwt>
<pdfrwt beam="1">  1        2 0.34126733E+00 0.14828439E+04</pdfrwt>
<pdfrwt beam="2">  1       -2 0.38124962E-01 0.14828439E+04</pdfrwt>
<totfact> 0.31729267E+01</totfact>
</mgrwt>
</event>
<event>
 6    1  0.5196787E-004  0.2537133E+04  0.7818608E-02  0.8389875E-01
         -2   -1    0    0    0  501 -0.00000000000E+00  0.00000000000E+00  0.55249349804E+03  0.55249349804E+03  0.00000000000E+00 0. -1.
          2   -1    0    0  501    0  0.00000000000E+00 -0.00000000000E+00 -0.29127239170E+04  0.29127239170E+04  0.00000000000E+00 0.  1.
         23    2    1    2    0    0 -0.93938063892E+03 -0.62336510877E+03 -0.19711495856E+04  0.22725716426E+04  0.90172825670E+02 0.  0.
         11    1    3    3    0    0 -0.26628497009E+03 -0.19708837352E+03 -0.65622727601E+03  0.73510934565E+03  0.00000000000E+00 0. -1.
        -11    1    3    3    0    0 -0.67309566883E+03 -0.42627673525E+03 -0.13149223096E+04  0.15374622970E+04  0.00000000000E+00 0.  1.
         22    1    1    2    0    0  0.93938063892E+03  0.62336510877E+03 -0.38908083339E+03  0.11926457724E+04  0.00000000000E+00 0. -1.
<mgrwt>
<rscale>  0 0.25371330E+04</rscale>
<asrwt>0</asrwt>
<pdfrwt beam="1">  1        2 0.44811138E+00 0.25371330E+04</pdfrwt>
<pdfrwt beam="2">  1       -2 0.84998998E-01 0.25371330E+04</pdfrwt>
<totfact> 0.21138895E+00</totfact>
</mgrwt>
</event>
<event>
 6    1  0.6504443E-004  0.3163157E+04  0.7818608E-02  0.8198616E-01
          2   -1    0    0  501    0  0.00000000000E+00  0.00000000000E+00  0.16327081247E+04  0.16327081247E+04  0.00000000000E+00 0.  1.
         -2   -1    0    0    0  501 -0.00000000000E+00 -0.00000000000E+00 -0.15320502969E+04  0.15320502969E+04  0.00000000000E+00 0. -1.
         23    2    1    2    0    0  0.12826114105E+04  0.75104395268E+03 -0.48656032031E+03  0.15666394639E+04  0.91973993383E+02 0.  0.
         13    1    3    3    0    0  0.74425601593E+03  0.46912765801E+03 -0.32438060816E+03  0.93766761473E+03  0.00000000000E+00 0.  1.
        -13    1    3    3    0    0  0.53835539458E+03  0.28191629467E+03 -0.16217971215E+03  0.62897184922E+03  0.00000000000E+00 0. -1.
         22    1    1    2    0    0 -0.12826114105E+04 -0.75104395268E+03  0.58721814819E+03  0.15981189576E+04  0.00000000000E+00 0.  1.
<mgrwt>
<rscale>  0 0.31631573E+04</rscale>
<asrwt>0</asrwt>
<pdfrwt beam="1">  1        2 0.25118586E+00 0.31631573E+04</pdfrwt>
<pdfrwt beam="2">  1       -2 0.23570005E+00 0.31631573E+04</pdfrwt>
<totfact> 0.71140410E-01</totfact>
</mgrwt>
</event>
<event>
 6    1  0.6935982E-004  0.2844556E+04  0.7818608E-02  0.8289568E-01
          2   -1    0    0  501    0  0.00000000000E+00  0.00000000000E+00  0.29136310359E+04  0.29136310359E+04  0.00000000000E+00 0. -1.
         -2   -1    0    0    0  501 -0.00000000000E+00 -0.00000000000E+00 -0.69427946888E+03  0.69427946888E+03  0.00000000000E+00 0.  1.
         23    2    1    2    0    0  0.13533210590E+04  0.60323748772E+02  0.56740240355E+03  0.14715460972E+04  0.91572841569E+02 0.  0.
         11    1    3    3    0    0  0.59776668629E+03  0.20701866177E+02  0.20180119078E+03  0.63125058345E+03  0.00000000000E+00 0.  1.
        -11    1    3    3    0    0  0.75555437268E+03  0.39621882595E+02  0.36560121277E+03  0.84029551375E+03  0.00000000000E+00 0. -1.
         22    1    1    2    0    0 -0.13533210590E+04 -0.60323748772E+02  0.16519491635E+04  0.21363644076E+04  0.00000000000E+00 0.  1.
<mgrwt>
<rscale>  0 0.28445556E+04</rscale>
<asrwt>0</asrwt>
<pdfrwt beam="1">  1        2 0.44825092E+00 0.28445556E+04</pdfrwt>
<pdfrwt beam="2">  1       -2 0.10681223E+00 0.28445556E+04</pdfrwt>
<totfact> 0.12046433E+00</totfact>
</mgrwt>
</event>
<event>
 6    1  0.5196787E-004  0.9498993E+03  0.7818608E-02  0.9365268E-01
          4   -1    0    0  501    0  0.00000000000E+00  0.00000000000E+00  0.95681439291E+03  0.95681439291E+03  0.00000000000E+00 0.  1.
         -4   -1    0    0    0  501 -0.00000000000E+00 -0.00000000000E+00 -0.23575855738E+03  0.23575855738E+03  0.00000000000E+00 0. -1.
         23    2    1    2    0    0  0.20373192491E+03 -0.41732044989E+03  0.26937337945E+03  0.54474573856E+03  0.92319266687E+02 0.  0.
         13    1    3    3    0    0  0.63715171592E+02 -0.23566974064E+03  0.13955066225E+03  0.28120141728E+03  0.00000000000E+00 0.  1.
        -13    1    3    3    0    0  0.14001675331E+03 -0.18165070925E+03  0.12982271720E+03  0.26354432128E+03  0.00000000000E+00 0. -1.
         22    1    1    2    0    0 -0.20373192491E+03  0.41732044989E+03  0.45168245609E+03  0.64782721173E+03  0.00000000000E+00 0. -1.
<mgrwt>
<rscale>  0 0.94989932E+03</rscale>
<asrwt>0</asrwt>
<pdfrwt beam="1">  1        4 0.14720221E+00 0.94989932E+03</pdfrwt>
<pdfrwt beam="2">  1       -4 0.36270548E-01 0.94989932E+03</pdfrwt>
<totfact> 0.46195720E+00</totfact>
</mgrwt>
</event>
<event>
 6    1  0.5196787E-004  0.2722637E+04  0.7818608E-02  0.8327697E-01
         -2   -1    0    0    0  501 -0.00000000000E+00  0.00000000000E+00  0.77149516895E+03  0.77149516895E+03  0.00000000000E+00 0. -1.
          2   -1    0    0  501    0  0.00000000000E+00 -0.00000000000E+00 -0.24020726673E+04  0.24020726673E+04  0.00000000000E+00 0.  1.
         23    2    1    2    0    0  0.61568988795E+03 -0.62670400956E+02 -0.22275465517E+04  0.23136994348E+04  0.90773439758E+02 0.  0.
         13    1    3    3    0    0  0.56149494691E+03 -0.30839681716E+02 -0.20243333176E+04  0.21009885868E+04  0.00000000000E+00 0. -1.
        -13    1    3    3    0    0  0.54194941037E+02 -0.31830719240E+02 -0.20321323414E+03  0.21271084799E+03  0.00000000000E+00 0.  1.
         22    1    1    2    0    0 -0.61568988795E+03  0.62670400956E+02  0.59696905330E+03  0.85986840149E+03  0.00000000000E+00 0. -1.
<mgrwt>
<rscale>  0 0.27226366E+04</rscale>
<asrwt>0</asrwt>
<pdfrwt beam="1">  1        2 0.36954963E+00 0.27226366E+04</pdfrwt>
<pdfrwt beam="2">  1       -2 0.11869157E+00 0.27226366E+04</pdfrwt>
<totfact> 0.18940582E+00</totfact>
</mgrwt>
</event>
<event>
 6    1  0.5196787E-004  0.4117894E+04  0.7818608E-02  0.7981177E-01
          2   -1    0    0  501    0  0.00000000000E+00  0.00000000000E+00  0.16047791950E+04  0.16047791950E+04  0.00000000000E+00 0.  1.
         -2   -1    0    0    0  501 -0.00000000000E+00 -0.00000000000E+00 -0.26416491298E+04  0.26416491298E+04  0.00000000000E+00 0. -1.
         23    2    1    2    0    0  0.83240288493E+03  0.18819686934E+04 -0.49770043487E+03  0.21191285162E+04  0.91100052223E+02 0.  0.
         13    1    3    3    0    0  0.36021140516E+03  0.91469915696E+03 -0.21638663344E+03  0.10066031886E+04  0.00000000000E+00 0. -1.
        -13    1    3    3    0    0  0.47219147977E+03  0.96726953649E+03 -0.28131380143E+03  0.11125253277E+04  0.00000000000E+00 0.  1.
         22    1    1    2    0    0 -0.83240288493E+03 -0.18819686934E+04 -0.53916949992E+03  0.21272998086E+04  0.00000000000E+00 0.  1.
<mgrwt>
<rscale>  0 0.41178944E+04</rscale>
<asrwt>0</asrwt>
<pdfrwt beam="1">  1        2 0.24688911E+00 0.41178944E+04</pdfrwt>
<pdfrwt beam="2">  1       -2 0.40640756E+00 0.41178944E+04</pdfrwt>
<totfact> 0.58339816E-02</totfact>
</mgrwt>
</event>
<event>
 6    1  0.5196787E-004  0.3070348E+04  0.7818608E-02  0.8223923E-01
          2   -1    0    0  501    0  0.00000000000E+00  0.00000000000E+00  0.23584111515E+04  0.23584111515E+04  0.00000000000E+00 0.  1.
         -2   -1    0    0    0  501 -0.00000000000E+00 -0.00000000000E+00 -0.99929954027E+03  0.99929954027E+03  0.00000000000E+00 0. -1.
         23    2    1    2    0    0  0.94794187762E+03 -0.63665361690E+03  0.18001416415E+04  0.21336072979E+04  0.88591990467E+02 0.  0.
         11    1    3    3    0    0  0.70003726778E+03 -0.44445743062E+03  0.13663792575E+04  0.15983074983E+04  0.00000000000E+00 0.  1.
        -11    1    3    3    0    0  0.24790460984E+03 -0.19219618628E+03  0.43376238402E+03  0.53529979954E+03  0.00000000000E+00 0. -1.
         22    1    1    2    0    0 -0.94794187762E+03  0.63665361690E+03 -0.44103003030E+03  0.12241033939E+04  0.00000000000E+00 0.  1.
<mgrwt>
<rscale>  0 0.30703480E+04</rscale>
<asrwt>0</asrwt>
<pdfrwt beam="1">  1        2 0.36283248E+00 0.30703480E+04</pdfrwt>
<pdfrwt beam="2">  1       -2 0.15373839E+00 0.30703480E+04</pdfrwt>
<totfact> 0.10027760E+00</totfact>
</mgrwt>
</event>
<event>
 6    1  0.5196787E-004  0.2992646E+04  0.7818608E-02  0.8245834E-01
         -2   -1    0    0    0  501 -0.00000000000E+00  0.00000000000E+00  0.10581397007E+04  0.10581397007E+04  0.00000000000E+00 0. -1.
          2   -1    0    0  501    0  0.00000000000E+00 -0.00000000000E+00 -0.21159606887E+04  0.21159606887E+04  0.00000000000E+00 0.  1.
         23    2    1    2    0    0  0.42288705513E+03 -0.10294699535E+03 -0.20462938540E+04  0.20940493942E+04  0.91064721337E+02 0.  0.
         11    1    3    3    0    0  0.28114235813E+03 -0.10168382932E+03 -0.15118676627E+04  0.15411438792E+04  0.00000000000E+00 0.  1.
        -11    1    3    3    0    0  0.14174469700E+03 -0.12631660226E+01 -0.53442619124E+03  0.55290551507E+03  0.00000000000E+00 0. -1.
         22    1    1    2    0    0 -0.42288705513E+03  0.10294699535E+03  0.98847286604E+03  0.10800509952E+04  0.00000000000E+00 0. -1.
<mgrwt>
<rscale>  0 0.29926457E+04</rscale>
<asrwt>0</asrwt>
<pdfrwt beam="1">  1        2 0.32553241E+00 0.29926457E+04</pdfrwt>
<pdfrwt beam="2">  1       -2 0.16279072E+00 0.29926457E+04</pdfrwt>
<totfact> 0.11846227E+00</totfact>
</mgrwt>
</event>
<event>
 6    1  0.5196787E-004  0.3622512E+04  0.7818608E-02  0.8085355E-01
         -2   -1    0    0    0  501 -0.00000000000E+00  0.00000000000E+00  0.97635695645E+03  0.97635695645E+03  0.00000000000E+00 0. -1.
          2   -1    0    0  501    0  0.00000000000E+00 -0.00000000000E+00 -0.33600903235E+04  0.33600903235E+04  0.00000000000E+00 0.  1.
         23    2    1    2    0    0  0.91499549913E+03 -0.93038748969E+03  0.30869209102E+03  0.13444592299E+04  0.97170825705E+02 0.  0.
         11    1    3    3    0    0  0.47327194846E+03 -0.41298517160E+03  0.13979916626E+03  0.64349583996E+03  0.00000000000E+00 0. -1.
        -11    1    3    3    0    0  0.44172355068E+03 -0.51740231809E+03  0.16889292476E+03  0.70096338993E+03  0.00000000000E+00 0.  1.
         22    1    1    2    0    0 -0.91499549913E+03  0.93038748969E+03 -0.26924254581E+04  0.29919880500E+04  0.00000000000E+00 0.  1.
<mgrwt>
<rscale>  0 0.36225116E+04</rscale>
<asrwt>0</asrwt>
<pdfrwt beam="1">  1        2 0.51693699E+00 0.36225116E+04</pdfrwt>
<pdfrwt beam="2">  1       -2 0.15020876E+00 0.36225116E+04</pdfrwt>
<totfact> 0.24613210E-01</totfact>
</mgrwt>
</event>
<event>
 6    1  0.5196787E-004  0.2061744E+04  0.7818608E-02  0.8578285E-01
         -2   -1    0    0    0  501 -0.00000000000E+00  0.00000000000E+00  0.43586147594E+03  0.43586147594E+03  0.00000000000E+00 0. -1.
          2   -1    0    0  501    0  0.00000000000E+00 -0.00000000000E+00 -0.24381541285E+04  0.24381541285E+04  0.00000000000E+00 0.  1.
         23    2    1    2    0    0  0.43911850599E+03 -0.36685946278E+03  0.18887211188E+03  0.60937127195E+03  0.90828105216E+02 0.  0.
         11    1    3    3    0    0  0.36455005845E+03 -0.25496898379E+03  0.14222279551E+03  0.46704737594E+03  0.00000000000E+00 0. -1.
        -11    1    3    3    0    0  0.74568447544E+02 -0.11189047899E+03  0.46649316372E+02  0.14232389601E+03  0.00000000000E+00 0.  1.
         22    1    1    2    0    0 -0.43911850599E+03  0.36685946278E+03 -0.21911647644E+04  0.22646443324E+04  0.00000000000E+00 0.  1.
<mgrwt>
<rscale>  0 0.20617444E+04</rscale>
<asrwt>0</asrwt>
<pdfrwt beam="1">  1        2 0.37510064E+00 0.20617444E+04</pdfrwt>
<pdfrwt beam="2">  1       -2 0.67055611E-01 0.20617444E+04</pdfrwt>
<totfact> 0.71340606E+00</totfact>
</mgrwt>
</event>
<event>
 6    1  0.5196787E-004  0.1599570E+04  0.7818608E-02  0.8820812E-01
          2   -1    0    0  501    0  0.00000000000E+00  0.00000000000E+00  0.57103589257E+03  0.57103589257E+03  0.00000000000E+00 0.  1.
         -2   -1    0    0    0  501 -0.00000000000E+00 -0.00000000000E+00 -0.11201677759E+04  0.11201677759E+04  0.00000000000E+00 0. -1.
         23    2    1    2    0    0 -0.78966013529E+03 -0.54514417461E+02 -0.37532771015E+03  0.88080694981E+03  0.91733537279E+02 0.  0.
         11    1    3    3    0    0 -0.36613496789E+03 -0.47185865524E+02 -0.13047389554E+03  0.39154151508E+03  0.00000000000E+00 0. -1.
        -11    1    3    3    0    0 -0.42352516740E+03 -0.73285519374E+01 -0.24485381461E+03  0.48926543473E+03  0.00000000000E+00 0.  1.
         22    1    1    2    0    0  0.78966013529E+03  0.54514417461E+02 -0.17380417316E+03  0.81039671864E+03  0.00000000000E+00 0.  1.
<mgrwt>
<rscale>  0 0.15995699E+04</rscale>
<asrwt>0</asrwt>
<pdfrwt beam="1">  1        2 0.87851677E-01 0.15995699E+04</pdfrwt>
<pdfrwt beam="2">  1       -2 0.17233350E+00 0.15995699E+04</pdfrwt>
<totfact> 0.10347258E+01</totfact>
</mgrwt>
</event>
<event>
 6    1  0.5196787E-004  0.1891423E+04  0.7818608E-02  0.8659138E-01
          2   -1    0    0  501    0  0.00000000000E+00  0.00000000000E+00  0.49529276347E+04  0.49529276347E+04  0.00000000000E+00 0.  1.
         -2   -1    0    0    0  501 -0.00000000000E+00 -0.00000000000E+00 -0.18057400466E+03  0.18057400466E+03  0.00000000000E+00 0. -1.
         23    2    1    2    0    0 -0.63797653374E+03  0.68234932729E+03  0.27533122498E+04  0.29088347526E+04  0.89311874085E+02 0.  0.
         11    1    3    3    0    0 -0.37032316116E+03  0.35568252583E+03  0.16180156544E+04  0.16975346714E+04  0.00000000000E+00 0.  1.
        -11    1    3    3    0    0 -0.26765337258E+03  0.32666680146E+03  0.11352965954E+04  0.12113000812E+04  0.00000000000E+00 0. -1.
         22    1    1    2    0    0  0.63797653374E+03 -0.68234932729E+03  0.20190413803E+04  0.22246668868E+04  0.00000000000E+00 0. -1.
<mgrwt>
<rscale>  0 0.18914227E+04</rscale>
<asrwt>0</asrwt>
<pdfrwt beam="1">  1        2 0.76198876E+00 0.18914227E+04</pdfrwt>
<pdfrwt beam="2">  1       -2 0.27780620E-01 0.18914227E+04</pdfrwt>
<totfact> 0.44826349E-01</totfact>
</mgrwt>
</event>
<event>
 6    1  0.5196787E-004  0.1505629E+04  0.7818608E-02  0.8880718E-01
         -2   -1    0    0    0  501 -0.00000000000E+00  0.00000000000E+00  0.38079992126E+03  0.38079992126E+03  0.00000000000E+00 0. -1.
          2   -1    0    0  501    0  0.00000000000E+00 -0.00000000000E+00 -0.14882619083E+04  0.14882619083E+04  0.00000000000E+00 0.  1.
         23    2    1    2    0    0  0.72639796381E+03 -0.11350919658E+03 -0.37732276877E+03  0.83289503912E+03  0.10393909192E+03 0.  0.
         11    1    3    3    0    0  0.54852836033E+03 -0.12948474862E+03 -0.29712407424E+03  0.63712822705E+03  0.00000000000E+00 0.  1.
        -11    1    3    3    0    0  0.17786960348E+03  0.15975552038E+02 -0.80198694529E+02  0.19576681207E+03  0.00000000000E+00 0. -1.
         22    1    1    2    0    0 -0.72639796381E+03  0.11350919658E+03 -0.73013921825E+03  0.10361667904E+04  0.00000000000E+00 0.  1.
<mgrwt>
<rscale>  0 0.15056295E+04</rscale>
<asrwt>0</asrwt>
<pdfrwt beam="1">  1        2 0.22896337E+00 0.15056295E+04</pdfrwt>
<pdfrwt beam="2">  1       -2 0.58584604E-01 0.15056295E+04</pdfrwt>
<totfact> 0.33903066E+01</totfact>
</mgrwt>
</event>
<event>
 6    1  0.5196787E-004  0.3982514E+03  0.7818608E-02  0.1044387E+00
          4   -1    0    0  501    0  0.00000000000E+00  0.00000000000E+00  0.51512584479E+02  0.51512584479E+02  0.00000000000E+00 0.  1.
         -4   -1    0    0    0  501 -0.00000000000E+00 -0.00000000000E+00 -0.76973524132E+03  0.76973524132E+03  0.00000000000E+00 0. -1.
         23    2    1    2    0    0 -0.86331056219E+02  0.16537728412E+03 -0.43589314399E+03  0.48285064614E+03  0.91319308639E+02 0.  0.
         13    1    3    3    0    0 -0.92336812244E+02  0.10152105678E+03 -0.23691260996E+03  0.27378859842E+03  0.00000000000E+00 0.  1.
        -13    1    3    3    0    0  0.60057560250E+01  0.63856227340E+02 -0.19898053403E+03  0.20906204772E+03  0.00000000000E+00 0. -1.
         22    1    1    2    0    0  0.86331056219E+02 -0.16537728412E+03 -0.28232951285E+03  0.33839717966E+03  0.00000000000E+00 0. -1.
<mgrwt>
<rscale>  0 0.39825144E+03</rscale>
<asrwt>0</asrwt>
<pdfrwt beam="1">  1        4 0.79250129E-02 0.39825144E+03</pdfrwt>
<pdfrwt beam="2">  1       -4 0.11842081E+00 0.39825144E+03</pdfrwt>
<totfact> 0.12369427E+02</totfact>
</mgrwt>
</event>
<event>
 6    1  0.5196787E-004  0.2757008E+04  0.7818608E-02  0.8316741E-01
         -2   -1    0    0    0  501 -0.00000000000E+00  0.00000000000E+00  0.68896371896E+03  0.68896371896E+03  0.00000000000E+00 0. -1.
          2   -1    0    0  501    0  0.00000000000E+00 -0.00000000000E+00 -0.27581624011E+04  0.27581624011E+04  0.00000000000E+00 0.  1.
         23    2    1    2    0    0  0.20906775568E+03  0.95723088849E+03 -0.22453269813E+04  0.24516255033E+04  0.94731489551E+02 0.  0.
         13    1    3    3    0    0  0.45483209467E+02  0.31947054226E+03 -0.64724770507E+03  0.72322869235E+03  0.00000000000E+00 0. -1.
        -13    1    3    3    0    0  0.16358454621E+03  0.63776034623E+03 -0.15980792762E+04  0.17283968109E+04  0.00000000000E+00 0.  1.
         22    1    1    2    0    0 -0.20906775568E+03 -0.95723088849E+03  0.17612829910E+03  0.99550061682E+03  0.00000000000E+00 0. -1.
<mgrwt>
<rscale>  0 0.27570084E+04</rscale>
<asrwt>0</asrwt>
<pdfrwt beam="1">  1        2 0.42433268E+00 0.27570084E+04</pdfrwt>
<pdfrwt beam="2">  1       -2 0.10599442E+00 0.27570084E+04</pdfrwt>
<totfact> 0.15373871E+00</totfact>
</mgrwt>
</event>
<event>
 6    1  0.5196787E-004  0.2700674E+04  0.7818608E-02  0.8334786E-01
          2   -1    0    0  501    0  0.00000000000E+00  0.00000000000E+00  0.32673173051E+04  0.32673173051E+04  0.00000000000E+00 0.  1.
         -2   -1    0    0    0  501 -0.00000000000E+00 -0.00000000000E+00 -0.55807572980E+03  0.55807572980E+03  0.00000000000E+00 0. -1.
         23    2    1    2    0    0 -0.14865343272E+03 -0.89396742106E+03 -0.58571680222E+02  0.91299439967E+03  0.94087932999E+02 0.  0.
         11    1    3    3    0    0 -0.65257875992E+02 -0.60749716963E+03 -0.12681947892E+02  0.61112374630E+03  0.00000000000E+00 0. -1.
        -11    1    3    3    0    0 -0.83395556725E+02 -0.28647025143E+03 -0.45889732330E+02  0.30187065337E+03  0.00000000000E+00 0.  1.
         22    1    1    2    0    0  0.14865343272E+03  0.89396742106E+03  0.27678132555E+04  0.29123986352E+04  0.00000000000E+00 0.  1.
<mgrwt>
<rscale>  0 0.27006744E+04</rscale>
<asrwt>0</asrwt>
<pdfrwt beam="1">  1        2 0.50266419E+00 0.27006744E+04</pdfrwt>
<pdfrwt beam="2">  1       -2 0.85857807E-01 0.27006744E+04</pdfrwt>
<totfact> 0.12096234E+00</totfact>
</mgrwt>
</event>
<event>
 6    1  0.5196787E-004  0.1007596E+04  0.7818608E-02  0.9300252E-01
         -1   -1    0    0    0  501 -0.00000000000E+00  0.00000000000E+00  0.43420977613E+03  0.43420977613E+03  0.00000000000E+00 0. -1.
          1   -1    0    0  501    0  0.00000000000E+00 -0.00000000000E+00 -0.58453912508E+03  0.58453912508E+03  0.00000000000E+00 0.  1.
         23    2    1    2    0    0  0.16954120700E+03  0.41639721383E+03  0.14467931481E+03  0.48101200248E+03  0.91156907766E+02 0.  0.
         11    1    3    3    0    0  0.79333505220E+02  0.11000007662E+03  0.15611323442E+02  0.13651935880E+03  0.00000000000E+00 0.  1.
        -11    1    3    3    0    0  0.90207701780E+02  0.30639713722E+03  0.12906799137E+03  0.34449264368E+03  0.00000000000E+00 0. -1.
         22    1    1    2    0    0 -0.16954120700E+03 -0.41639721383E+03 -0.29500866376E+03  0.53773689873E+03  0.00000000000E+00 0.  1.
<mgrwt>
<rscale>  0 0.10075964E+04</rscale>
<asrwt>0</asrwt>
<pdfrwt beam="1">  1        1 0.89929096E-01 0.10075964E+04</pdfrwt>
<pdfrwt beam="2">  1       -1 0.66801504E-01 0.10075964E+04</pdfrwt>
<totfact> 0.80947212E+01</totfact>
</mgrwt>
</event>
<event>
 6    1  0.5196787E-004  0.2238165E+04  0.7818608E-02  0.8502709E-01
          2   -1    0    0  501    0  0.00000000000E+00  0.00000000000E+00  0.35396948765E+04  0.35396948765E+04  0.00000000000E+00 0.  1.
         -2   -1    0    0    0  501 -0.00000000000E+00 -0.00000000000E+00 -0.35380032940E+03  0.35380032940E+03  0.00000000000E+00 0. -1.
         23    2    1    2    0    0 -0.93444539919E+02  0.90513959880E+03  0.46926724068E+03  0.10285216463E+04  0.98160370389E+02 0.  0.
         11    1    3    3    0    0 -0.58004813945E+02  0.44979321681E+03  0.28743395698E+03  0.53693274808E+03  0.00000000000E+00 0. -1.
        -11    1    3    3    0    0 -0.35439725975E+02  0.45534638199E+03  0.18183328370E+03  0.49158889819E+03  0.00000000000E+00 0.  1.
         22    1    1    2    0    0  0.93444539919E+02 -0.90513959880E+03  0.27166273065E+04  0.28649735597E+04  0.00000000000E+00 0.  1.
<mgrwt>
<rscale>  0 0.22381646E+04</rscale>
<asrwt>0</asrwt>
<pdfrwt beam="1">  1        2 0.54456842E+00 0.22381646E+04</pdfrwt>
<pdfrwt beam="2">  1       -2 0.54430822E-01 0.22381646E+04</pdfrwt>
<totfact> 0.22142230E+00</totfact>
</mgrwt>
</event>
<event>
 6    1  0.5196787E-004  0.2275878E+04  0.7818608E-02  0.8487493E-01
         -2   -1    0    0    0  501 -0.00000000000E+00  0.00000000000E+00  0.82048874899E+03  0.82048874899E+03  0.00000000000E+00 0. -1.
          2   -1    0    0  501    0  0.00000000000E+00 -0.00000000000E+00 -0.15782113670E+04  0.15782113670E+04  0.00000000000E+00 0.  1.
         23    2    1    2    0    0 -0.66519439544E+03  0.53391426565E+03 -0.11702604810E+04  0.14512110579E+04  0.94635693693E+02 0.  0.
         13    1    3    3    0    0 -0.56725158551E+03  0.44463469739E+03 -0.10404035008E+04  0.12656673417E+04  0.00000000000E+00 0. -1.
        -13    1    3    3    0    0 -0.97942809925E+02  0.89279568259E+02 -0.12985698013E+03  0.18554371617E+03  0.00000000000E+00 0.  1.
         22    1    1    2    0    0  0.66519439544E+03 -0.53391426565E+03  0.41253786296E+03  0.94748905807E+03  0.00000000000E+00 0. -1.
<mgrwt>
<rscale>  0 0.22758776E+04</rscale>
<asrwt>0</asrwt>
<pdfrwt beam="1">  1        2 0.24280175E+00 0.22758776E+04</pdfrwt>
<pdfrwt beam="2">  1       -2 0.12622904E+00 0.22758776E+04</pdfrwt>
<totfact> 0.48751879E+00</totfact>
</mgrwt>
</event>
<event>
 6    1  0.5196787E-004  0.2477941E+04  0.7818608E-02  0.8410887E-01
         -2   -1    0    0    0  501 -0.00000000000E+00  0.00000000000E+00  0.58995436839E+03  0.58995436839E+03  0.00000000000E+00 0. -1.
          2   -1    0    0  501    0  0.00000000000E+00 -0.00000000000E+00 -0.26019769914E+04  0.26019769914E+04  0.00000000000E+00 0.  1.
         23    2    1    2    0    0 -0.70028942076E+03 -0.37628346314E+03  0.21396950266E+03  0.82824029263E+03  0.90578787773E+02 0.  0.
         11    1    3    3    0    0 -0.63356866362E+03 -0.34927406635E+03  0.21954758646E+03  0.75604415722E+03  0.00000000000E+00 0. -1.
        -11    1    3    3    0    0 -0.66720757145E+02 -0.27009396798E+02 -0.55780837998E+01  0.72196135411E+02  0.00000000000E+00 0.  1.
         22    1    1    2    0    0  0.70028942076E+03  0.37628346314E+03 -0.22259921257E+04  0.23636910672E+04  0.00000000000E+00 0.  1.
<mgrwt>
<rscale>  0 0.24779408E+04</rscale>
<asrwt>0</asrwt>
<pdfrwt beam="1">  1        2 0.40030415E+00 0.24779408E+04</pdfrwt>
<pdfrwt beam="2">  1       -2 0.90762211E-01 0.24779408E+04</pdfrwt>
<totfact> 0.28102030E+00</totfact>
</mgrwt>
</event>
<event>
 6    1  0.5196787E-004  0.2222388E+04  0.7818608E-02  0.8509167E-01
         -2   -1    0    0    0  501 -0.00000000000E+00  0.00000000000E+00  0.55211290814E+03  0.55211290814E+03  0.00000000000E+00 0. -1.
          2   -1    0    0  501    0  0.00000000000E+00 -0.00000000000E+00 -0.22364125202E+04  0.22364125202E+04  0.00000000000E+00 0.  1.
         23    2    1    2    0    0 -0.97287334748E+03 -0.40892613589E+00 -0.17395449464E+03  0.99196619159E+03  0.85170661538E+02 0.  0.
         13    1    3    3    0    0 -0.19561153708E+03 -0.33953577468E+02 -0.30502812738E+02  0.20086597633E+03  0.00000000000E+00 0. -1.
        -13    1    3    3    0    0 -0.77726181040E+03  0.33544651332E+02 -0.14345168190E+03  0.79110021526E+03  0.00000000000E+00 0.  1.
         22    1    1    2    0    0  0.97287334748E+03  0.40892613589E+00 -0.15103451175E+04  0.17965592368E+04  0.00000000000E+00 0. -1.
<mgrwt>
<rscale>  0 0.22223881E+04</rscale>
<asrwt>0</asrwt>
<pdfrwt beam="1">  1        2 0.34406346E+00 0.22223881E+04</pdfrwt>
<pdfrwt beam="2">  1       -2 0.84940447E-01 0.22223881E+04</pdfrwt>
<totfact> 0.54225752E+00</totfact>
</mgrwt>
</event>
<event>
 6    1  0.5196787E-004  0.3045438E+04  0.7818608E-02  0.8230873E-01
         -2   -1    0    0    0  501 -0.00000000000E+00  0.00000000000E+00  0.10594484906E+04  0.10594484906E+04  0.00000000000E+00 0. -1.
          2   -1    0    0  501    0  0.00000000000E+00 -0.00000000000E+00 -0.21885666588E+04  0.21885666588E+04  0.00000000000E+00 0.  1.
         23    2    1    2    0    0  0.36865927329E+03  0.14711216156E+04 -0.69268389502E+03  0.16698569373E+04  0.92210330776E+02 0.  0.
         11    1    3    3    0    0  0.36395492381E+03  0.13532242130E+04 -0.64415146030E+03  0.15422743145E+04  0.00000000000E+00 0.  1.
        -11    1    3    3    0    0  0.47043494789E+01  0.11789740256E+03 -0.48532434721E+02  0.12758262286E+03  0.00000000000E+00 0. -1.
         22    1    1    2    0    0 -0.36865927329E+03 -0.14711216156E+04 -0.43643427310E+03  0.15781582121E+04  0.00000000000E+00 0. -1.
<mgrwt>
<rscale>  0 0.30454383E+04</rscale>
<asrwt>0</asrwt>
<pdfrwt beam="1">  1        2 0.33670256E+00 0.30454383E+04</pdfrwt>
<pdfrwt beam="2">  1       -2 0.16299208E+00 0.30454383E+04</pdfrwt>
<totfact> 0.10702192E+00</totfact>
</mgrwt>
</event>
<event>
 6    1  0.5196787E-004  0.2337519E+04  0.7818608E-02  0.8463273E-01
         -2   -1    0    0    0  501 -0.00000000000E+00  0.00000000000E+00  0.54703490101E+03  0.54703490101E+03  0.00000000000E+00 0. -1.
          2   -1    0    0  501    0  0.00000000000E+00 -0.00000000000E+00 -0.24970960687E+04  0.24970960687E+04  0.00000000000E+00 0.  1.
         23    2    1    2    0    0 -0.84220175785E+03  0.63359171317E+03 -0.16290240809E+04  0.19424018419E+04  0.91995650016E+02 0.  0.
         13    1    3    3    0    0 -0.22378586523E+03  0.20191187468E+03 -0.52497991034E+03  0.60535314064E+03  0.00000000000E+00 0. -1.
        -13    1    3    3    0    0 -0.61841589262E+03  0.43167983849E+03 -0.11040441705E+04  0.13370487013E+04  0.00000000000E+00 0.  1.
         22    1    1    2    0    0  0.84220175785E+03 -0.63359171317E+03 -0.32103708688E+03  0.11017291278E+04  0.00000000000E+00 0. -1.
<mgrwt>
<rscale>  0 0.23375189E+04</rscale>
<asrwt>0</asrwt>
<pdfrwt beam="1">  1        2 0.38416863E+00 0.23375189E+04</pdfrwt>
<pdfrwt beam="2">  1       -2 0.84159214E-01 0.23375189E+04</pdfrwt>
<totfact> 0.38927149E+00</totfact>
</mgrwt>
</event>
<event>
 6    1  0.5196787E-004  0.3144585E+04  0.7818608E-02  0.8203608E-01
          2   -1    0    0  501    0  0.00000000000E+00  0.00000000000E+00  0.10012242710E+04  0.10012242710E+04  0.00000000000E+00 0. -1.
         -2   -1    0    0    0  501 -0.00000000000E+00 -0.00000000000E+00 -0.24690801691E+04  0.24690801691E+04  0.00000000000E+00 0.  1.
         23    2    1    2    0    0 -0.36032707005E+03 -0.60803663617E+03 -0.22828374236E+04  0.23915370716E+04  0.92513317619E+02 0.  0.
         13    1    3    3    0    0 -0.19255923156E+03 -0.38700366253E+03 -0.12801632392E+04  0.13511731241E+04  0.00000000000E+00 0. -1.
        -13    1    3    3    0    0 -0.16776783849E+03 -0.22103297364E+03 -0.10026741844E+04  0.10403639474E+04  0.00000000000E+00 0.  1.
         22    1    1    2    0    0  0.36032707005E+03  0.60803663617E+03  0.81498152553E+03  0.10787673685E+04  0.00000000000E+00 0. -1.
<mgrwt>
<rscale>  0 0.31445845E+04</rscale>
<asrwt>0</asrwt>
<pdfrwt beam="1">  1        2 0.15403450E+00 0.31445845E+04</pdfrwt>
<pdfrwt beam="2">  1       -2 0.37985848E+00 0.31445845E+04</pdfrwt>
<totfact> 0.21325926E-01</totfact>
</mgrwt>
</event>
<event>
 6    1  0.5196787E-004  0.3777548E+04  0.7818608E-02  0.8050990E-01
          2   -1    0    0  501    0  0.00000000000E+00  0.00000000000E+00  0.24831921723E+04  0.24831921723E+04  0.00000000000E+00 0.  1.
         -2   -1    0    0    0  501 -0.00000000000E+00 -0.00000000000E+00 -0.14366454489E+04  0.14366454489E+04  0.00000000000E+00 0. -1.
         23    2    1    2    0    0 -0.10508794324E+04  0.14989394760E+04  0.46116286036E+02  0.18336860940E+04  0.95450749618E+02 0.  0.
         13    1    3    3    0    0 -0.17615257612E+03  0.30829535971E+03  0.27660195188E+02  0.35614722418E+03  0.00000000000E+00 0. -1.
        -13    1    3    3    0    0 -0.87472685630E+03  0.11906441162E+04  0.18456090848E+02  0.14775388699E+04  0.00000000000E+00 0.  1.
         22    1    1    2    0    0  0.10508794324E+04 -0.14989394760E+04  0.10004304373E+04  0.20861515271E+04  0.00000000000E+00 0.  1.
<mgrwt>
<rscale>  0 0.37775477E+04</rscale>
<asrwt>0</asrwt>
<pdfrwt beam="1">  1        2 0.38202957E+00 0.37775477E+04</pdfrwt>
<pdfrwt beam="2">  1       -2 0.22102238E+00 0.37775477E+04</pdfrwt>
<totfact> 0.27845346E-01</totfact>
</mgrwt>
</event>
<event>
 6    1  0.5196787E-004  0.2008304E+04  0.7818608E-02  0.8602748E-01
          2   -1    0    0  501    0  0.00000000000E+00  0.00000000000E+00  0.32343993014E+04  0.32343993014E+04  0.00000000000E+00 0.  1.
         -2   -1    0    0    0  501 -0.00000000000E+00 -0.00000000000E+00 -0.31174902393E+03  0.31174902393E+03  0.00000000000E+00 0. -1.
         23    2    1    2    0    0  0.53758253364E+03  0.45236895062E+03  0.27260942076E+04  0.28165820593E+04  0.88950659418E+02 0.  0.
         11    1    3    3    0    0  0.94285081068E+02  0.63348027357E+02  0.57417687161E+03  0.58530481714E+03  0.00000000000E+00 0.  1.
        -11    1    3    3    0    0  0.44329745257E+03  0.38902092326E+03  0.21519173360E+04  0.22312772421E+04  0.00000000000E+00 0. -1.
         22    1    1    2    0    0 -0.53758253364E+03 -0.45236895062E+03  0.19655606982E+03  0.72956626604E+03  0.00000000000E+00 0. -1.
<mgrwt>
<rscale>  0 0.20083036E+04</rscale>
<asrwt>0</asrwt>
<pdfrwt beam="1">  1        2 0.49759987E+00 0.20083036E+04</pdfrwt>
<pdfrwt beam="2">  1       -2 0.47961391E-01 0.20083036E+04</pdfrwt>
<totfact> 0.47252224E+00</totfact>
</mgrwt>
</event>
<event>
 6    1  0.5196787E-004  0.1398056E+04  0.7818608E-02  0.8955227E-01
         -2   -1    0    0    0  501 -0.00000000000E+00  0.00000000000E+00  0.36989185988E+03  0.36989185988E+03  0.00000000000E+00 0. -1.
          2   -1    0    0  501    0  0.00000000000E+00 -0.00000000000E+00 -0.13210353278E+04  0.13210353278E+04  0.00000000000E+00 0.  1.
         23    2    1    2    0    0  0.33226007192E+03  0.58021476654E+02 -0.12140051777E+04  0.12633064146E+04  0.91494691347E+02 0.  0.
         13    1    3    3    0    0  0.20014487442E+03  0.48691898852E+01 -0.58253240203E+03  0.61597538846E+03  0.00000000000E+00 0.  1.
        -13    1    3    3    0    0  0.13211519749E+03  0.53152286769E+02 -0.63147277565E+03  0.64733102613E+03  0.00000000000E+00 0. -1.
         22    1    1    2    0    0 -0.33226007192E+03 -0.58021476654E+02  0.26286170974E+03  0.42762077311E+03  0.00000000000E+00 0. -1.
<mgrwt>
<rscale>  0 0.13980561E+04</rscale>
<asrwt>0</asrwt>
<pdfrwt beam="1">  1        2 0.20323621E+00 0.13980561E+04</pdfrwt>
<pdfrwt beam="2">  1       -2 0.56906440E-01 0.13980561E+04</pdfrwt>
<totfact> 0.45291922E+01</totfact>
</mgrwt>
</event>
<event>
 6    1  0.5196787E-004  0.1888371E+04  0.7818608E-02  0.8660667E-01
         -2   -1    0    0    0  501 -0.00000000000E+00  0.00000000000E+00  0.47355117692E+03  0.47355117692E+03  0.00000000000E+00 0. -1.
          2   -1    0    0  501    0  0.00000000000E+00 -0.00000000000E+00 -0.18825549210E+04  0.18825549210E+04  0.00000000000E+00 0.  1.
         23    2    1    2    0    0  0.64168022080E+02 -0.80034680830E+03 -0.91407252008E+02  0.81314366657E+03  0.90414535086E+02 0.  0.
         11    1    3    3    0    0  0.75870438491E+02 -0.40215064574E+03 -0.33907625451E+02  0.41064728462E+03  0.00000000000E+00 0.  1.
        -11    1    3    3    0    0 -0.11702416411E+02 -0.39819616256E+03 -0.57499626557E+02  0.40249638195E+03  0.00000000000E+00 0. -1.
         22    1    1    2    0    0 -0.64168022080E+02  0.80034680830E+03 -0.13175964921E+04  0.15429624313E+04  0.00000000000E+00 0.  1.
<mgrwt>
<rscale>  0 0.18883708E+04</rscale>
<asrwt>0</asrwt>
<pdfrwt beam="1">  1        2 0.28962383E+00 0.18883708E+04</pdfrwt>
<pdfrwt beam="2">  1       -2 0.72854028E-01 0.18883708E+04</pdfrwt>
<totfact> 0.12392833E+01</totfact>
</mgrwt>
</event>
<event>
 6    1  0.5196787E-004  0.3124506E+04  0.7818608E-02  0.8209044E-01
         -2   -1    0    0    0  501 -0.00000000000E+00  0.00000000000E+00  0.78252897051E+03  0.78252897051E+03  0.00000000000E+00 0. -1.
          2   -1    0    0  501    0  0.00000000000E+00 -0.00000000000E+00 -0.31189061942E+04  0.31189061942E+04  0.00000000000E+00 0.  1.
         23    2    1    2    0    0  0.29340877739E+03  0.42639714223E+03 -0.30079741003E+04  0.30535285672E+04  0.90693377531E+02 0.  0.
         13    1    3    3    0    0  0.13537605254E+03  0.24592673386E+03 -0.18265718171E+04  0.18480181917E+04  0.00000000000E+00 0.  1.
        -13    1    3    3    0    0  0.15803272485E+03  0.18047040837E+03 -0.11814022833E+04  0.12055103755E+04  0.00000000000E+00 0. -1.
         22    1    1    2    0    0 -0.29340877739E+03 -0.42639714223E+03  0.67159687660E+03  0.84790659757E+03  0.00000000000E+00 0. -1.
<mgrwt>
<rscale>  0 0.31245060E+04</rscale>
<asrwt>0</asrwt>
<pdfrwt beam="1">  1        2 0.47983172E+00 0.31245060E+04</pdfrwt>
<pdfrwt beam="2">  1       -2 0.12038907E+00 0.31245060E+04</pdfrwt>
<totfact> 0.65263764E-01</totfact>
</mgrwt>
</event>
<event>
 6    1  0.5196787E-004  0.3213804E+04  0.7818608E-02  0.8185181E-01
          2   -1    0    0  501    0  0.00000000000E+00  0.00000000000E+00  0.15587888851E+04  0.15587888851E+04  0.00000000000E+00 0.  1.
         -2   -1    0    0    0  501 -0.00000000000E+00 -0.00000000000E+00 -0.16565000302E+04  0.16565000302E+04  0.00000000000E+00 0. -1.
         23    2    1    2    0    0  0.15774326111E+04  0.52849008407E+02 -0.34321659191E+03  0.16179913273E+04  0.94929691242E+02 0.  0.
         13    1    3    3    0    0  0.12328897941E+04  0.25659948704E+02 -0.30465810477E+03  0.12702331432E+04  0.00000000000E+00 0. -1.
        -13    1    3    3    0    0  0.34454281700E+03  0.27189059703E+02 -0.38558487131E+02  0.34775818416E+03  0.00000000000E+00 0.  1.
         22    1    1    2    0    0 -0.15774326111E+04 -0.52849008407E+02  0.24550544688E+03  0.15972975880E+04  0.00000000000E+00 0.  1.
<mgrwt>
<rscale>  0 0.32138039E+04</rscale>
<asrwt>0</asrwt>
<pdfrwt beam="1">  1        2 0.23981368E+00 0.32138039E+04</pdfrwt>
<pdfrwt beam="2">  1       -2 0.25484616E+00 0.32138039E+04</pdfrwt>
<totfact> 0.59359460E-01</totfact>
</mgrwt>
</event>
<event>
 6    1  0.5196787E-004  0.4136819E+04  0.7818608E-02  0.7977500E-01
         -1   -1    0    0    0  501 -0.00000000000E+00  0.00000000000E+00  0.31864697552E+04  0.31864697552E+04  0.00000000000E+00 0. -1.
          1   -1    0    0  501    0  0.00000000000E+00 -0.00000000000E+00 -0.13426516366E+04  0.13426516366E+04  0.00000000000E+00 0.  1.
         23    2    1    2    0    0 -0.70562620610E+03 -0.18042450656E+03 -0.11960826091E+04  0.14031882864E+04  0.88670254161E+02 0.  0.
         11    1    3    3    0    0 -0.51775395361E+03 -0.94410397277E+02 -0.82905949928E+03  0.98199904936E+03  0.00000000000E+00 0. -1.
        -11    1    3    3    0    0 -0.18787225249E+03 -0.86014109282E+02 -0.36702310981E+03  0.42118923702E+03  0.00000000000E+00 0.  1.
         22    1    1    2    0    0  0.70562620610E+03  0.18042450656E+03  0.30399007277E+04  0.31259331054E+04  0.00000000000E+00 0. -1.
<mgrwt>
<rscale>  0 0.41368195E+04</rscale>
<asrwt>0</asrwt>
<pdfrwt beam="1">  1        1 0.20656179E+00 0.41368195E+04</pdfrwt>
<pdfrwt beam="2">  1       -1 0.49022612E+00 0.41368195E+04</pdfrwt>
<totfact> 0.11284212E-02</totfact>
</mgrwt>
</event>
<event>
 6    1  0.5196787E-004  0.2814750E+04  0.7818608E-02  0.8298704E-01
         -2   -1    0    0    0  501 -0.00000000000E+00  0.00000000000E+00  0.20547052516E+04  0.20547052516E+04  0.00000000000E+00 0. -1.
          2   -1    0    0  501    0  0.00000000000E+00 -0.00000000000E+00 -0.96398470293E+03  0.96398470293E+03  0.00000000000E+00 0.  1.
         23    2    1    2    0    0  0.45529086623E+02 -0.12309214208E+04 -0.18095330401E+03  0.12482677367E+04  0.90486476543E+02 0.  0.
         11    1    3    3    0    0 -0.98188208731E-01 -0.91621714125E+03 -0.11377242266E+03  0.92325404073E+03  0.00000000000E+00 0. -1.
        -11    1    3    3    0    0  0.45627274832E+02 -0.31470427952E+03 -0.67180881348E+02  0.32501369598E+03  0.00000000000E+00 0.  1.
         22    1    1    2    0    0 -0.45529086623E+02  0.12309214208E+04  0.12716738527E+04  0.17704222178E+04  0.00000000000E+00 0. -1.
<mgrwt>
<rscale>  0 0.28147500E+04</rscale>
<asrwt>0</asrwt>
<pdfrwt beam="1">  1        2 0.14830534E+00 0.28147500E+04</pdfrwt>
<pdfrwt beam="2">  1       -2 0.31610850E+00 0.28147500E+04</pdfrwt>
<totfact> 0.58460908E-01</totfact>
</mgrwt>
</event>
<event>
 6    1  0.5196787E-004  0.1128599E+04  0.7818608E-02  0.9177757E-01
         -2   -1    0    0    0  501 -0.00000000000E+00  0.00000000000E+00  0.15484195314E+03  0.15484195314E+03  0.00000000000E+00 0. -1.
          2   -1    0    0  501    0  0.00000000000E+00 -0.00000000000E+00 -0.20565101284E+04  0.20565101284E+04  0.00000000000E+00 0.  1.
         23    2    1    2    0    0 -0.18230941245E+03 -0.11942269487E+03 -0.19690085696E+04  0.19832441451E+04  0.93616719353E+02 0.  0.
         11    1    3    3    0    0 -0.54711238905E+02 -0.80989139895E+02 -0.10636038608E+04  0.10680850777E+04  0.00000000000E+00 0. -1.
        -11    1    3    3    0    0 -0.12759817354E+03 -0.38433554976E+02 -0.90540470879E+03  0.91515906745E+03  0.00000000000E+00 0.  1.
         22    1    1    2    0    0  0.18230941245E+03  0.11942269487E+03  0.67340394377E+02  0.22810793636E+03  0.00000000000E+00 0. -1.
<mgrwt>
<rscale>  0 0.11285992E+04</rscale>
<asrwt>0</asrwt>
<pdfrwt beam="1">  1        2 0.31638616E+00 0.11285992E+04</pdfrwt>
<pdfrwt beam="2">  1       -2 0.23821840E-01 0.11285992E+04</pdfrwt>
<totfact> 0.96655794E+01</totfact>
</mgrwt>
</event>
<event>
 6    1  0.5196787E-004  0.4710937E+04  0.7818608E-02  0.7874714E-01
         -2   -1    0    0    0  501 -0.00000000000E+00  0.00000000000E+00  0.14110225660E+04  0.14110225660E+04  0.00000000000E+00 0. -1.
          2   -1    0    0  501    0  0.00000000000E+00 -0.00000000000E+00 -0.39320650267E+04  0.39320650267E+04  0.00000000000E+00 0.  1.
         23    2    1    2    0    0  0.22213440350E+04 -0.77961942985E+03 -0.13118311102E+04  0.26965109609E+04  0.89970680660E+02 0.  0.
         13    1    3    3    0    0  0.86024147051E+03 -0.28672392402E+03 -0.45808652343E+03  0.10159080958E+04  0.00000000000E+00 0. -1.
        -13    1    3    3    0    0  0.13611025645E+04 -0.49289550584E+03 -0.85374458677E+03  0.16806028651E+04  0.00000000000E+00 0.  1.
         22    1    1    2    0    0 -0.22213440350E+04  0.77961942985E+03 -0.12092113505E+04  0.26465766317E+04  0.00000000000E+00 0. -1.
<mgrwt>
<rscale>  0 0.47109373E+04</rscale>
<asrwt>0</asrwt>
<pdfrwt beam="1">  1        2 0.60493307E+00 0.47109373E+04</pdfrwt>
<pdfrwt beam="2">  1       -2 0.21708040E+00 0.47109373E+04</pdfrwt>
<totfact> 0.29679521E-02</totfact>
</mgrwt>
</event>
<event>
 6    1  0.5196787E-004  0.1038118E+04  0.7818608E-02  0.9267698E-01
         -2   -1    0    0    0  501 -0.00000000000E+00  0.00000000000E+00  0.12714755664E+03  0.12714755664E+03  0.00000000000E+00 0. -1.
          2   -1    0    0  501    0  0.00000000000E+00 -0.00000000000E+00 -0.21189716703E+04  0.21189716703E+04  0.00000000000E+00 0.  1.
         23    2    1    2    0    0  0.14527241020E+03  0.40969562859E+03 -0.16010340444E+04  0.16615925300E+04  0.92871648087E+02 0.  0.
         13    1    3    3    0    0  0.27671135052E+02  0.21233516063E+03 -0.81653330724E+03  0.84414368089E+03  0.00000000000E+00 0. -1.
        -13    1    3    3    0    0  0.11760127515E+03  0.19736046795E+03 -0.78450073720E+03  0.81744884910E+03  0.00000000000E+00 0.  1.
         22    1    1    2    0    0 -0.14527241020E+03 -0.40969562859E+03 -0.39079006926E+03  0.58452669698E+03  0.00000000000E+00 0. -1.
<mgrwt>
<rscale>  0 0.10381177E+04</rscale>
<asrwt>0</asrwt>
<pdfrwt beam="1">  1        2 0.32599564E+00 0.10381177E+04</pdfrwt>
<pdfrwt beam="2">  1       -2 0.19561162E-01 0.10381177E+04</pdfrwt>
<totfact> 0.12754413E+02</totfact>
</mgrwt>
</event>
<event>
 6    1  0.5196787E-004  0.3401111E+04  0.7818608E-02  0.8137634E-01
          2   -1    0    0  501    0  0.00000000000E+00  0.00000000000E+00  0.26725812447E+04  0.26725812447E+04  0.00000000000E+00 0.  1.
         -2   -1    0    0    0  501 -0.00000000000E+00 -0.00000000000E+00 -0.10820583700E+04  0.10820583700E+04  0.00000000000E+00 0. -1.
         23    2    1    2    0    0 -0.44860046832E+03 -0.16382592212E+04  0.84743325977E+03  0.19006391207E+04  0.95657103818E+02 0.  0.
         11    1    3    3    0    0 -0.24484705143E+03 -0.10656345130E+04  0.53677362239E+03  0.12180529199E+04  0.00000000000E+00 0.  1.
        -11    1    3    3    0    0 -0.20375341689E+03 -0.57262470817E+03  0.31065963738E+03  0.68258620086E+03  0.00000000000E+00 0. -1.
         22    1    1    2    0    0  0.44860046832E+03  0.16382592212E+04  0.74308961493E+03  0.18540004940E+04  0.00000000000E+00 0. -1.
<mgrwt>
<rscale>  0 0.34011109E+04</rscale>
<asrwt>0</asrwt>
<pdfrwt beam="1">  1        2 0.41116634E+00 0.34011109E+04</pdfrwt>
<pdfrwt beam="2">  1       -2 0.16647052E+00 0.34011109E+04</pdfrwt>
<totfact> 0.51581693E-01</totfact>
</mgrwt>
</event>
<event>
 6    1  0.5196787E-004  0.2461787E+04  0.7818608E-02  0.8416727E-01
          1   -1    0    0  501    0  0.00000000000E+00  0.00000000000E+00  0.61206662985E+03  0.61206662985E+03  0.00000000000E+00 0. -1.
         -1   -1    0    0    0  501 -0.00000000000E+00 -0.00000000000E+00 -0.24753818797E+04  0.24753818797E+04  0.00000000000E+00 0.  1.
         23    2    1    2    0    0  0.89153916466E+02 -0.58612994657E+03 -0.22833434246E+04  0.23608671977E+04  0.92412095755E+02 0.  0.
         11    1    3    3    0    0  0.79358428016E+02 -0.31089254663E+03 -0.10960836918E+04  0.11420820439E+04  0.00000000000E+00 0. -1.
        -11    1    3    3    0    0  0.97954884494E+01 -0.27523739994E+03 -0.11872597328E+04  0.12187851538E+04  0.00000000000E+00 0.  1.
         22    1    1    2    0    0 -0.89153916466E+02  0.58612994657E+03  0.42002817478E+03  0.72658131182E+03  0.00000000000E+00 0. -1.
<mgrwt>
<rscale>  0 0.24617869E+04</rscale>
<asrwt>0</asrwt>
<pdfrwt beam="1">  1        1 0.94164099E-01 0.24617869E+04</pdfrwt>
<pdfrwt beam="2">  1       -1 0.38082797E+00 0.24617869E+04</pdfrwt>
<totfact> 0.28653546E-01</totfact>
</mgrwt>
</event>
<event>
 6    1  0.5196787E-004  0.1395468E+04  0.7818608E-02  0.8957105E-01
          2   -1    0    0  501    0  0.00000000000E+00  0.00000000000E+00  0.89005448787E+03  0.89005448787E+03  0.00000000000E+00 0.  1.
         -2   -1    0    0    0  501 -0.00000000000E+00 -0.00000000000E+00 -0.54696993616E+03  0.54696993616E+03  0.00000000000E+00 0. -1.
         23    2    1    2    0    0  0.20033176954E+03 -0.37424176841E+03 -0.39353943362E+03  0.58684525770E+03  0.96562682047E+02 0.  0.
         11    1    3    3    0    0  0.15084363350E+03 -0.19361600850E+03 -0.25468987760E+03  0.35370594322E+03  0.00000000000E+00 0. -1.
        -11    1    3    3    0    0  0.49488136045E+02 -0.18062575991E+03 -0.13884955601E+03  0.23313931448E+03  0.00000000000E+00 0.  1.
         22    1    1    2    0    0 -0.20033176954E+03  0.37424176841E+03  0.73662398533E+03  0.85017916633E+03  0.00000000000E+00 0.  1.
<mgrwt>
<rscale>  0 0.13954684E+04</rscale>
<asrwt>0</asrwt>
<pdfrwt beam="1">  1        2 0.13693146E+00 0.13954684E+04</pdfrwt>
<pdfrwt beam="2">  1       -2 0.84149221E-01 0.13954684E+04</pdfrwt>
<totfact> 0.35758625E+01</totfact>
</mgrwt>
</event>
<event>
 6    1  0.5196787E-004  0.1311947E+04  0.7818608E-02  0.9020145E-01
          2   -1    0    0  501    0  0.00000000000E+00  0.00000000000E+00  0.77952660583E+03  0.77952660583E+03  0.00000000000E+00 0.  1.
         -2   -1    0    0    0  501 -0.00000000000E+00 -0.00000000000E+00 -0.55200293481E+03  0.55200293481E+03  0.00000000000E+00 0. -1.
         23    2    1    2    0    0 -0.55860082160E+02  0.46362600479E+03  0.57744043296E+03  0.74799619849E+03  0.89394844601E+02 0.  0.
         11    1    3    3    0    0 -0.42712828367E+02  0.24132210612E+03  0.23515802925E+03  0.33964693924E+03  0.00000000000E+00 0. -1.
        -11    1    3    3    0    0 -0.13147253793E+02  0.22230389867E+03  0.34228240371E+03  0.40834925926E+03  0.00000000000E+00 0.  1.
         22    1    1    2    0    0  0.55860082160E+02 -0.46362600479E+03 -0.34991676194E+03  0.58353334214E+03  0.00000000000E+00 0. -1.
<mgrwt>
<rscale>  0 0.13119466E+04</rscale>
<asrwt>0</asrwt>
<pdfrwt beam="1">  1        2 0.11992717E+00 0.13119466E+04</pdfrwt>
<pdfrwt beam="2">  1       -2 0.84923528E-01 0.13119466E+04</pdfrwt>
<totfact> 0.42173445E+01</totfact>
</mgrwt>
</event>
<event>
 6    1  0.5196787E-004  0.9744801E+03  0.7818608E-02  0.9336986E-01
         -2   -1    0    0    0  501 -0.00000000000E+00  0.00000000000E+00  0.89870139955E+03  0.89870139955E+03  0.00000000000E+00 0.  1.
          2   -1    0    0  501    0  0.00000000000E+00 -0.00000000000E+00 -0.26416214547E+03  0.26416214547E+03  0.00000000000E+00 0. -1.
         23    2    1    2    0    0  0.34845768121E+03  0.27939309333E+03  0.99949589307E+02  0.46625076458E+03  0.88975271179E+02 0.  0.
         13    1    3    3    0    0  0.29211047691E+03  0.18838514252E+03  0.64714774406E+02  0.35356116114E+03  0.00000000000E+00 0.  1.
        -13    1    3    3    0    0  0.56347204295E+02  0.91007950808E+02  0.35234814900E+02  0.11268960344E+03  0.00000000000E+00 0. -1.
         22    1    1    2    0    0 -0.34845768121E+03 -0.27939309333E+03  0.53458966477E+03  0.69661278044E+03  0.00000000000E+00 0.  1.
<mgrwt>
<rscale>  0 0.97448015E+03</rscale>
<asrwt>0</asrwt>
<pdfrwt beam="1">  1        2 0.40640331E-01 0.97448015E+03</pdfrwt>
<pdfrwt beam="2">  1       -2 0.13826175E+00 0.97448015E+03</pdfrwt>
<totfact> 0.46895257E+01</totfact>
</mgrwt>
</event>
<event>
 6    1  0.5196787E-004  0.1116966E+04  0.7818608E-02  0.9188812E-01
         -2   -1    0    0    0  501 -0.00000000000E+00  0.00000000000E+00  0.22259422970E+04  0.22259422970E+04  0.00000000000E+00 0. -1.
          2   -1    0    0  501    0  0.00000000000E+00 -0.00000000000E+00 -0.14012183909E+03  0.14012183909E+03  0.00000000000E+00 0.  1.
         23    2    1    2    0    0  0.45723267433E+03  0.30550453416E+03  0.12045574041E+04  0.13273055940E+04  0.91579807154E+02 0.  0.
         11    1    3    3    0    0  0.33734674000E+03  0.18146517161E+03  0.77807870196E+03  0.86725941791E+03  0.00000000000E+00 0.  1.
        -11    1    3    3    0    0  0.11988593433E+03  0.12403936255E+03  0.42647870218E+03  0.46004617608E+03  0.00000000000E+00 0. -1.
         22    1    1    2    0    0 -0.45723267433E+03 -0.30550453416E+03  0.88126305380E+03  0.10387585421E+04  0.00000000000E+00 0.  1.
<mgrwt>
<rscale>  0 0.11169658E+04</rscale>
<asrwt>0</asrwt>
<pdfrwt beam="1">  1        2 0.21557208E-01 0.11169658E+04</pdfrwt>
<pdfrwt beam="2">  1       -2 0.34245263E+00 0.11169658E+04</pdfrwt>
<totfact> 0.45615481E+00</totfact>
</mgrwt>
</event>
<event>
 6    1  0.5196787E-004  0.2616466E+04  0.7818608E-02  0.8362629E-01
          2   -1    0    0  501    0  0.00000000000E+00  0.00000000000E+00  0.15896963221E+04  0.15896963221E+04  0.00000000000E+00 0.  1.
         -2   -1    0    0    0  501 -0.00000000000E+00 -0.00000000000E+00 -0.10766043893E+04  0.10766043893E+04  0.00000000000E+00 0. -1.
         23    2    1    2    0    0  0.80869154048E+03  0.82834268354E+03  0.87445329560E+03  0.14535700556E+04  0.89798281910E+02 0.  0.
         13    1    3    3    0    0  0.42826240363E+03  0.40340966982E+03  0.49097648661E+03  0.76629365029E+03  0.00000000000E+00 0. -1.
        -13    1    3    3    0    0  0.38042913685E+03  0.42493301372E+03  0.38347680899E+03  0.68727640535E+03  0.00000000000E+00 0.  1.
         22    1    1    2    0    0 -0.80869154048E+03 -0.82834268354E+03 -0.36136136277E+03  0.12127306558E+04  0.00000000000E+00 0. -1.
<mgrwt>
<rscale>  0 0.26164663E+04</rscale>
<asrwt>0</asrwt>
<pdfrwt beam="1">  1        2 0.24456866E+00 0.26164663E+04</pdfrwt>
<pdfrwt beam="2">  1       -2 0.16563144E+00 0.26164663E+04</pdfrwt>
<totfact> 0.22873884E+00</totfact>
</mgrwt>
</event>
<event>
 6    1  0.5196787E-004  0.2976842E+04  0.7818608E-02  0.8250375E-01
          1   -1    0    0  501    0  0.00000000000E+00  0.00000000000E+00  0.11944796773E+04  0.11944796773E+04  0.00000000000E+00 0.  1.
         -1   -1    0    0    0  501 -0.00000000000E+00 -0.00000000000E+00 -0.18546962271E+04  0.18546962271E+04  0.00000000000E+00 0. -1.
         23    2    1    2    0    0 -0.10604148634E+04 -0.10147534407E+04 -0.57504324805E+03  0.15789858762E+04  0.91199957059E+02 0.  0.
         11    1    3    3    0    0 -0.30049246421E+03 -0.26930023160E+03 -0.11712593154E+03  0.42016284893E+03  0.00000000000E+00 0. -1.
        -11    1    3    3    0    0 -0.75992239916E+03 -0.74545320911E+03 -0.45791731651E+03  0.11588230272E+04  0.00000000000E+00 0.  1.
         22    1    1    2    0    0  0.10604148634E+04  0.10147534407E+04 -0.85173301768E+02  0.14701900283E+04  0.00000000000E+00 0. -1.
<mgrwt>
<rscale>  0 0.29768419E+04</rscale>
<asrwt>0</asrwt>
<pdfrwt beam="1">  1        1 0.18376610E+00 0.29768419E+04</pdfrwt>
<pdfrwt beam="2">  1       -1 0.28533788E+00 0.29768419E+04</pdfrwt>
<totfact> 0.37799964E-01</totfact>
</mgrwt>
</event>
<event>
 6    1  0.6996250E-004  0.2857543E+04  0.7818608E-02  0.8285623E-01
          2   -1    0    0  501    0  0.00000000000E+00  0.00000000000E+00  0.17152940121E+04  0.17152940121E+04  0.00000000000E+00 0.  1.
         -2   -1    0    0    0  501 -0.00000000000E+00 -0.00000000000E+00 -0.11901095900E+04  0.11901095900E+04  0.00000000000E+00 0. -1.
         23    2    1    2    0    0 -0.10650488594E+04  0.71594281116E+03  0.89796024063E+03  0.15690410044E+04  0.93026329628E+02 0.  0.
         11    1    3    3    0    0 -0.72577424433E+03  0.53430721599E+03  0.60698262067E+03  0.10865819604E+04  0.00000000000E+00 0.  1.
        -11    1    3    3    0    0 -0.33927461508E+03  0.18163559517E+03  0.29097761995E+03  0.48245904405E+03  0.00000000000E+00 0. -1.
         22    1    1    2    0    0  0.10650488594E+04 -0.71594281116E+03 -0.37277581854E+03  0.13363625977E+04  0.00000000000E+00 0.  1.
<mgrwt>
<rscale>  0 0.28575429E+04</rscale>
<asrwt>0</asrwt>
<pdfrwt beam="1">  1        2 0.26389138E+00 0.28575429E+04</pdfrwt>
<pdfrwt beam="2">  1       -2 0.18309378E+00 0.28575429E+04</pdfrwt>
<totfact> 0.14381518E+00</totfact>
</mgrwt>
</event>
<event>
 6    1  0.5196787E-004  0.1695784E+04  0.7818608E-02  0.8763773E-01
          2   -1    0    0  501    0  0.00000000000E+00  0.00000000000E+00  0.67638239669E+03  0.67638239669E+03  0.00000000000E+00 0.  1.
         -2   -1    0    0    0  501 -0.00000000000E+00 -0.00000000000E+00 -0.10628910975E+04  0.10628910975E+04  0.00000000000E+00 0. -1.
         23    2    1    2    0    0  0.34144839666E+03 -0.75095403252E+03 -0.38359511527E+03  0.91433261422E+03  0.91323329070E+02 0.  0.
         13    1    3    3    0    0  0.14330818903E+03 -0.31317950875E+03 -0.11092043317E+03  0.36183143069E+03  0.00000000000E+00 0.  1.
        -13    1    3    3    0    0  0.19814020764E+03 -0.43777452377E+03 -0.27267468210E+03  0.55250118353E+03  0.00000000000E+00 0. -1.
         22    1    1    2    0    0 -0.34144839666E+03  0.75095403252E+03 -0.29135855849E+01  0.82494088002E+03  0.00000000000E+00 0.  1.
<mgrwt>
<rscale>  0 0.16957840E+04</rscale>
<asrwt>0</asrwt>
<pdfrwt beam="1">  1        2 0.10405883E+00 0.16957840E+04</pdfrwt>
<pdfrwt beam="2">  1       -2 0.16352171E+00 0.16957840E+04</pdfrwt>
<totfact> 0.96584733E+00</totfact>
</mgrwt>
</event>
<event>
 6    1  0.5196787E-004  0.8470808E+03  0.7818608E-02  0.9494263E-01
         -1   -1    0    0    0  501 -0.00000000000E+00  0.00000000000E+00  0.59609188956E+03  0.59609188956E+03  0.00000000000E+00 0. -1.
          1   -1    0    0  501    0  0.00000000000E+00 -0.00000000000E+00 -0.30093760585E+03  0.30093760585E+03  0.00000000000E+00 0.  1.
         23    2    1    2    0    0 -0.19135951558E+03 -0.15937978624E+03  0.50529373091E+03  0.57117835189E+03  0.94353456224E+02 0.  0.
         13    1    3    3    0    0  0.11440589524E+01 -0.26446160621E+02  0.97665877875E+02  0.10118958436E+03  0.00000000000E+00 0. -1.
        -13    1    3    3    0    0 -0.19250357453E+03 -0.13293362561E+03  0.40762785304E+03  0.46998876752E+03  0.00000000000E+00 0.  1.
         22    1    1    2    0    0  0.19135951558E+03  0.15937978624E+03 -0.21013944721E+03  0.32585114352E+03  0.00000000000E+00 0.  1.
<mgrwt>
<rscale>  0 0.84708079E+03</rscale>
<asrwt>0</asrwt>
<pdfrwt beam="1">  1        1 0.46298093E-01 0.84708079E+03</pdfrwt>
<pdfrwt beam="2">  1       -1 0.91706444E-01 0.84708079E+03</pdfrwt>
<totfact> 0.10227180E+02</totfact>
</mgrwt>
</event>
<event>
 6    1  0.5196787E-004  0.1502405E+04  0.7818608E-02  0.8882855E-01
         -2   -1    0    0    0  501 -0.00000000000E+00  0.00000000000E+00  0.11910147477E+04  0.11910147477E+04  0.00000000000E+00 0. -1.
          2   -1    0    0  501    0  0.00000000000E+00 -0.00000000000E+00 -0.47380187626E+03  0.47380187626E+03  0.00000000000E+00 0.  1.
         23    2    1    2    0    0  0.54025255585E+03 -0.20647478890E+03 -0.16636653124E+03  0.60877816661E+03  0.91806159248E+02 0.  0.
         13    1    3    3    0    0  0.30477862763E+03 -0.86315791899E+02 -0.12799628652E+03  0.34164817745E+03  0.00000000000E+00 0.  1.
        -13    1    3    3    0    0  0.23547392821E+03 -0.12015899700E+03 -0.38370244720E+02  0.26712998916E+03  0.00000000000E+00 0. -1.
         22    1    1    2    0    0 -0.54025255585E+03  0.20647478890E+03  0.88357940267E+03  0.10560384573E+04  0.00000000000E+00 0. -1.
<mgrwt>
<rscale>  0 0.15024048E+04</rscale>
<asrwt>0</asrwt>
<pdfrwt beam="1">  1        2 0.72892597E-01 0.15024048E+04</pdfrwt>
<pdfrwt beam="2">  1       -2 0.18323304E+00 0.15024048E+04</pdfrwt>
<totfact> 0.10895878E+01</totfact>
</mgrwt>
</event>
<event>
 6    1  0.5196787E-004  0.2173018E+04  0.7818608E-02  0.8529743E-01
          2   -1    0    0  501    0  0.00000000000E+00  0.00000000000E+00  0.11407103726E+04  0.11407103726E+04  0.00000000000E+00 0.  1.
         -2   -1    0    0    0  501 -0.00000000000E+00 -0.00000000000E+00 -0.10348828296E+04  0.10348828296E+04  0.00000000000E+00 0. -1.
         23    2    1    2    0    0 -0.33154750514E+03  0.76280074293E+03  0.74989050614E+03  0.11236398657E+04  0.91880656871E+02 0.  0.
         11    1    3    3    0    0 -0.14591837112E+03  0.43327646868E+03  0.44258995376E+03  0.63632266698E+03  0.00000000000E+00 0. -1.
        -11    1    3    3    0    0 -0.18562913402E+03  0.32952427425E+03  0.30730055238E+03  0.48731719877E+03  0.00000000000E+00 0.  1.
         22    1    1    2    0    0  0.33154750514E+03 -0.76280074293E+03 -0.64406296308E+03  0.10519533364E+04  0.00000000000E+00 0. -1.
<mgrwt>
<rscale>  0 0.21730178E+04</rscale>
<asrwt>0</asrwt>
<pdfrwt beam="1">  1        2 0.17549390E+00 0.21730178E+04</pdfrwt>
<pdfrwt beam="2">  1       -2 0.15921274E+00 0.21730178E+04</pdfrwt>
<totfact> 0.48103694E+00</totfact>
</mgrwt>
</event>
<event>
 6    1  0.5196787E-004  0.1367287E+04  0.7818608E-02  0.8977845E-01
         -1   -1    0    0    0  501 -0.00000000000E+00  0.00000000000E+00  0.57346476705E+03  0.57346476705E+03  0.00000000000E+00 0. -1.
          1   -1    0    0  501    0  0.00000000000E+00 -0.00000000000E+00 -0.81499030539E+03  0.81499030539E+03  0.00000000000E+00 0.  1.
         23    2    1    2    0    0  0.39822156048E+03  0.33473709987E+01 -0.68181345032E+03  0.79478423641E+03  0.90668546310E+02 0.  0.
         13    1    3    3    0    0  0.24145349194E+03  0.35322769187E+02 -0.35330896102E+03  0.42938876177E+03  0.00000000000E+00 0. -1.
        -13    1    3    3    0    0  0.15676806854E+03 -0.31975398189E+02 -0.32850448930E+03  0.36539547465E+03  0.00000000000E+00 0.  1.
         22    1    1    2    0    0 -0.39822156048E+03 -0.33473709987E+01  0.44028791197E+03  0.59367083603E+03  0.00000000000E+00 0. -1.
<mgrwt>
<rscale>  0 0.13672867E+04</rscale>
<asrwt>0</asrwt>
<pdfrwt beam="1">  1        1 0.12538312E+00 0.13672867E+04</pdfrwt>
<pdfrwt beam="2">  1       -1 0.88225349E-01 0.13672867E+04</pdfrwt>
<totfact> 0.26482984E+01</totfact>
</mgrwt>
</event>
<event>
 6    1  0.5196787E-004  0.9336807E+03  0.7818608E-02  0.9384431E-01
         -2   -1    0    0    0  501 -0.00000000000E+00  0.00000000000E+00  0.14984573545E+03  0.14984573545E+03  0.00000000000E+00 0. -1.
          2   -1    0    0  501    0  0.00000000000E+00 -0.00000000000E+00 -0.14544283734E+04  0.14544283734E+04  0.00000000000E+00 0.  1.
         23    2    1    2    0    0 -0.23133549168E+03 -0.39420945113E+03 -0.77992793781E+03  0.90844384547E+03  0.89807745290E+02 0.  0.
         13    1    3    3    0    0 -0.18034555234E+03 -0.22263904185E+03 -0.46383891921E+03  0.54519648217E+03  0.00000000000E+00 0. -1.
        -13    1    3    3    0    0 -0.50989939334E+02 -0.17157040928E+03 -0.31608901861E+03  0.36324736329E+03  0.00000000000E+00 0.  1.
         22    1    1    2    0    0  0.23133549168E+03  0.39420945113E+03 -0.52465470012E+03  0.69583026338E+03  0.00000000000E+00 0.  1.
<mgrwt>
<rscale>  0 0.93368065E+03</rscale>
<asrwt>0</asrwt>
<pdfrwt beam="1">  1        2 0.22375822E+00 0.93368065E+03</pdfrwt>
<pdfrwt beam="2">  1       -2 0.23053190E-01 0.93368065E+03</pdfrwt>
<totfact> 0.22386815E+02</totfact>
</mgrwt>
</event>
<event>
 6    1  0.5196787E-004  0.6338981E+03  0.7818608E-02  0.9837471E-01
         -2   -1    0    0    0  501 -0.00000000000E+00  0.00000000000E+00  0.43377179033E+02  0.43377179033E+02  0.00000000000E+00 0.  1.
          2   -1    0    0  501    0  0.00000000000E+00 -0.00000000000E+00 -0.23158884821E+04  0.23158884821E+04  0.00000000000E+00 0. -1.
         23    2    1    2    0    0  0.21638336149E+03 -0.19988203747E+03 -0.79502344543E+03  0.85269838500E+03  0.90871717120E+02 0.  0.
         13    1    3    3    0    0  0.54196630395E+02 -0.96017373942E+02 -0.21648755600E+03  0.24294746911E+03  0.00000000000E+00 0.  1.
        -13    1    3    3    0    0  0.16218673110E+03 -0.10386466353E+03 -0.57853588943E+03  0.60975091589E+03  0.00000000000E+00 0. -1.
         22    1    1    2    0    0 -0.21638336149E+03  0.19988203747E+03 -0.14774878576E+04  0.15065672761E+04  0.00000000000E+00 0. -1.
<mgrwt>
<rscale>  0 0.63389813E+03</rscale>
<asrwt>0</asrwt>
<pdfrwt beam="1">  1        2 0.35629069E+00 0.63389813E+03</pdfrwt>
<pdfrwt beam="2">  1       -2 0.66734093E-02 0.63389813E+03</pdfrwt>
<totfact> 0.60733053E+02</totfact>
</mgrwt>
</event>
<event>
 6    1  0.5196787E-004  0.2902244E+04  0.7818608E-02  0.8272210E-01
          2   -1    0    0  501    0  0.00000000000E+00  0.00000000000E+00  0.28627887250E+04  0.28627887250E+04  0.00000000000E+00 0.  1.
         -2   -1    0    0    0  501 -0.00000000000E+00 -0.00000000000E+00 -0.73556081265E+03  0.73556081265E+03  0.00000000000E+00 0. -1.
         23    2    1    2    0    0 -0.11780758899E+04 -0.61462298388E+03  0.34586647852E+03  0.13759920568E+04  0.90035019271E+02 0.  0.
         11    1    3    3    0    0 -0.38297234306E+03 -0.15946151286E+03  0.13001635934E+03  0.43474135221E+03  0.00000000000E+00 0. -1.
        -11    1    3    3    0    0 -0.79510354687E+03 -0.45516147103E+03  0.21585011918E+03  0.94125070459E+03  0.00000000000E+00 0.  1.
         22    1    1    2    0    0  0.11780758899E+04  0.61462298388E+03  0.17813614338E+04  0.22223574808E+04  0.00000000000E+00 0.  1.
<mgrwt>
<rscale>  0 0.29022441E+04</rscale>
<asrwt>0</asrwt>
<pdfrwt beam="1">  1        2 0.44042903E+00 0.29022441E+04</pdfrwt>
<pdfrwt beam="2">  1       -2 0.11316320E+00 0.29022441E+04</pdfrwt>
<totfact> 0.11201120E+00</totfact>
</mgrwt>
</event>
<event>
 6    1  0.5196787E-004  0.9084677E+03  0.7818608E-02  0.9415058E-01
          2   -1    0    0  501    0  0.00000000000E+00  0.00000000000E+00  0.24387997689E+04  0.24387997689E+04  0.00000000000E+00 0.  1.
         -2   -1    0    0    0  501 -0.00000000000E+00 -0.00000000000E+00 -0.84602433606E+02  0.84602433606E+02  0.00000000000E+00 0. -1.
         23    2    1    2    0    0  0.18825230716E+02  0.36515892617E+03  0.19157459100E+04  0.19524949569E+04  0.91971379320E+02 0.  0.
         11    1    3    3    0    0  0.53316725698E+02  0.16138589391E+03  0.82014445842E+03  0.83757090008E+03  0.00000000000E+00 0. -1.
        -11    1    3    3    0    0 -0.34491494983E+02  0.20377303226E+03  0.10956014516E+04  0.11149240569E+04  0.00000000000E+00 0.  1.
         22    1    1    2    0    0 -0.18825230716E+02 -0.36515892617E+03  0.43845142530E+03  0.57090724555E+03  0.00000000000E+00 0. -1.
<mgrwt>
<rscale>  0 0.90846771E+03</rscale>
<asrwt>0</asrwt>
<pdfrwt beam="1">  1        2 0.37519991E+00 0.90846771E+03</pdfrwt>
<pdfrwt beam="2">  1       -2 0.13015761E-01 0.90846771E+03</pdfrwt>
<totfact> 0.17140869E+02</totfact>
</mgrwt>
</event>
<event>
 6    1  0.5196787E-004  0.2964140E+04  0.7818608E-02  0.8254046E-01
          2   -1    0    0  501    0  0.00000000000E+00  0.00000000000E+00  0.12613852813E+04  0.12613852813E+04  0.00000000000E+00 0.  1.
         -2   -1    0    0    0  501 -0.00000000000E+00 -0.00000000000E+00 -0.17413644841E+04  0.17413644841E+04  0.00000000000E+00 0. -1.
         23    2    1    2    0    0  0.10358915732E+04 -0.56938517529E+03  0.66308539482E+03  0.13584056702E+04  0.91175078127E+02 0.  0.
         11    1    3    3    0    0  0.29402445309E+03 -0.13433873207E+03  0.21938569665E+03  0.39067551477E+03  0.00000000000E+00 0.  1.
        -11    1    3    3    0    0  0.74186712006E+03 -0.43504644323E+03  0.44369969818E+03  0.96773015544E+03  0.00000000000E+00 0. -1.
         22    1    1    2    0    0 -0.10358915732E+04  0.56938517529E+03 -0.11430645976E+04  0.16443440952E+04  0.00000000000E+00 0. -1.
<mgrwt>
<rscale>  0 0.29641400E+04</rscale>
<asrwt>0</asrwt>
<pdfrwt beam="1">  1        2 0.19405928E+00 0.29641400E+04</pdfrwt>
<pdfrwt beam="2">  1       -2 0.26790223E+00 0.29641400E+04</pdfrwt>
<totfact> 0.74639798E-01</totfact>
</mgrwt>
</event>
<event>
 6    1  0.5196787E-004  0.4822250E+04  0.7818608E-02  0.7856527E-01
         -2   -1    0    0    0  501 -0.00000000000E+00  0.00000000000E+00  0.28184533297E+04  0.28184533297E+04  0.00000000000E+00 0. -1.
          2   -1    0    0  501    0  0.00000000000E+00 -0.00000000000E+00 -0.20626641815E+04  0.20626641815E+04  0.00000000000E+00 0.  1.
         23    2    1    2    0    0  0.10822301354E+03  0.10609429913E+04  0.25659314316E+04  0.27801826390E+04  0.89995238963E+02 0.  0.
         11    1    3    3    0    0  0.75965770768E+02  0.81329336343E+03  0.18629829810E+04  0.20341884084E+04  0.00000000000E+00 0. -1.
        -11    1    3    3    0    0  0.32257242767E+02  0.24764962788E+03  0.70294845056E+03  0.74599423057E+03  0.00000000000E+00 0.  1.
         22    1    1    2    0    0 -0.10822301354E+03 -0.10609429913E+04 -0.18101422834E+04  0.21009348723E+04  0.00000000000E+00 0.  1.
<mgrwt>
<rscale>  0 0.48222496E+04</rscale>
<asrwt>0</asrwt>
<pdfrwt beam="1">  1        2 0.31733295E+00 0.48222496E+04</pdfrwt>
<pdfrwt beam="2">  1       -2 0.43360821E+00 0.48222496E+04</pdfrwt>
<totfact> 0.20315263E-02</totfact>
</mgrwt>
</event>
<event>
 6    1  0.5196787E-004  0.4189393E+04  0.7818608E-02  0.7967393E-01
         -2   -1    0    0    0  501 -0.00000000000E+00  0.00000000000E+00  0.16508474322E+04  0.16508474322E+04  0.00000000000E+00 0. -1.
          2   -1    0    0  501    0  0.00000000000E+00 -0.00000000000E+00 -0.26578795647E+04  0.26578795647E+04  0.00000000000E+00 0.  1.
         23    2    1    2    0    0 -0.28765540917E+03  0.11632495476E+04  0.12620745424E+04  0.17426521254E+04  0.90050736801E+02 0.  0.
         13    1    3    3    0    0 -0.99291130319E+02  0.53278030318E+03  0.61639385635E+03  0.82076486655E+03  0.00000000000E+00 0.  1.
        -13    1    3    3    0    0 -0.18836427885E+03  0.63046924439E+03  0.64568068602E+03  0.92188725881E+03  0.00000000000E+00 0. -1.
         22    1    1    2    0    0  0.28765540917E+03 -0.11632495476E+04 -0.22691066748E+04  0.25660748715E+04  0.00000000000E+00 0.  1.
<mgrwt>
<rscale>  0 0.41893931E+04</rscale>
<asrwt>0</asrwt>
<pdfrwt beam="1">  1        2 0.40890455E+00 0.41893931E+04</pdfrwt>
<pdfrwt beam="2">  1       -2 0.25397653E+00 0.41893931E+04</pdfrwt>
<totfact> 0.13274750E-01</totfact>
</mgrwt>
</event>
<event>
 6    1  0.5196787E-004  0.2358999E+04  0.7818608E-02  0.8455015E-01
         -2   -1    0    0    0  501 -0.00000000000E+00  0.00000000000E+00  0.39933450998E+03  0.39933450998E+03  0.00000000000E+00 0. -1.
          2   -1    0    0  501    0  0.00000000000E+00 -0.00000000000E+00 -0.34838432316E+04  0.34838432316E+04  0.00000000000E+00 0.  1.
         23    2    1    2    0    0  0.46682922473E+03 -0.68821711522E+03 -0.17147975234E+03  0.85377019246E+03  0.89139852633E+02 0.  0.
         11    1    3    3    0    0  0.28310607152E+03 -0.41892597846E+03 -0.14847532152E+03  0.52696579041E+03  0.00000000000E+00 0.  1.
        -11    1    3    3    0    0  0.18372315320E+03 -0.26929113676E+03 -0.23004430817E+02  0.32680440205E+03  0.00000000000E+00 0. -1.
         22    1    1    2    0    0 -0.46682922473E+03  0.68821711522E+03 -0.29130289693E+04  0.30294075491E+04  0.00000000000E+00 0.  1.
<mgrwt>
<rscale>  0 0.23589988E+04</rscale>
<asrwt>0</asrwt>
<pdfrwt beam="1">  1        2 0.53597590E+00 0.23589988E+04</pdfrwt>
<pdfrwt beam="2">  1       -2 0.61436077E-01 0.23589988E+04</pdfrwt>
<totfact> 0.18584105E+00</totfact>
</mgrwt>
</event>
<event>
 6    1  0.5196787E-004  0.3335001E+04  0.7818608E-02  0.8154046E-01
          2   -1    0    0  501    0  0.00000000000E+00  0.00000000000E+00  0.27681589287E+04  0.27681589287E+04  0.00000000000E+00 0.  1.
         -2   -1    0    0    0  501 -0.00000000000E+00 -0.00000000000E+00 -0.10044794125E+04  0.10044794125E+04  0.00000000000E+00 0. -1.
         23    2    1    2    0    0 -0.14683064783E+04  0.30805169150E+03  0.62411658555E+02  0.15043499817E+04  0.91399636893E+02 0.  0.
         11    1    3    3    0    0 -0.65563812841E+03  0.18362051616E+03  0.34380751416E+02  0.68173300159E+03  0.00000000000E+00 0. -1.
        -11    1    3    3    0    0 -0.81266834984E+03  0.12443117534E+03  0.28030907139E+02  0.82261698012E+03  0.00000000000E+00 0.  1.
         22    1    1    2    0    0  0.14683064783E+04 -0.30805169150E+03  0.17012678576E+04  0.22682883595E+04  0.00000000000E+00 0. -1.
<mgrwt>
<rscale>  0 0.33350014E+04</rscale>
<asrwt>0</asrwt>
<pdfrwt beam="1">  1        2 0.42587060E+00 0.33350014E+04</pdfrwt>
<pdfrwt beam="2">  1       -2 0.15453530E+00 0.33350014E+04</pdfrwt>
<totfact> 0.55686193E-01</totfact>
</mgrwt>
</event>
<event>
 6    1  0.5196787E-004  0.1970427E+04  0.7818608E-02  0.8620573E-01
          2   -1    0    0  501    0  0.00000000000E+00  0.00000000000E+00  0.27132019786E+04  0.27132019786E+04  0.00000000000E+00 0.  1.
         -2   -1    0    0    0  501 -0.00000000000E+00 -0.00000000000E+00 -0.35774915698E+03  0.35774915698E+03  0.00000000000E+00 0. -1.
         23    2    1    2    0    0 -0.12936476427E+03 -0.89428464441E+03  0.57692549798E+03  0.10760477022E+04  0.92495187946E+02 0.  0.
         11    1    3    3    0    0 -0.15861765412E+01 -0.20589542551E+03  0.10003111659E+03  0.22891410286E+03  0.00000000000E+00 0. -1.
        -11    1    3    3    0    0 -0.12777858773E+03 -0.68838921890E+03  0.47689438139E+03  0.84713359937E+03  0.00000000000E+00 0.  1.
         22    1    1    2    0    0  0.12936476427E+03  0.89428464441E+03  0.17785273237E+04  0.19949034334E+04  0.00000000000E+00 0.  1.
<mgrwt>
<rscale>  0 0.19704271E+04</rscale>
<asrwt>0</asrwt>
<pdfrwt beam="1">  1        2 0.41741568E+00 0.19704271E+04</pdfrwt>
<pdfrwt beam="2">  1       -2 0.55038334E-01 0.19704271E+04</pdfrwt>
<totfact> 0.75492697E+00</totfact>
</mgrwt>
</event>
<event>
 6    1  0.5196787E-004  0.2317766E+04  0.7818608E-02  0.8470949E-01
         -2   -1    0    0    0  501 -0.00000000000E+00  0.00000000000E+00  0.10239362087E+04  0.10239362087E+04  0.00000000000E+00 0. -1.
          2   -1    0    0  501    0  0.00000000000E+00 -0.00000000000E+00 -0.13116148228E+04  0.13116148228E+04  0.00000000000E+00 0.  1.
         23    2    1    2    0    0  0.43965074662E+03  0.12546610642E+03  0.92708462597E+03  0.10375971600E+04  0.89930194457E+02 0.  0.
         11    1    3    3    0    0  0.14904820394E+03  0.61865983272E+02  0.41652729191E+03  0.44669648744E+03  0.00000000000E+00 0. -1.
        -11    1    3    3    0    0  0.29060254268E+03  0.63600123151E+02  0.51055733406E+03  0.59090067257E+03  0.00000000000E+00 0.  1.
         22    1    1    2    0    0 -0.43965074662E+03 -0.12546610642E+03 -0.12147632401E+04  0.12979538714E+04  0.00000000000E+00 0.  1.
<mgrwt>
<rscale>  0 0.23177661E+04</rscale>
<asrwt>0</asrwt>
<pdfrwt beam="1">  1        2 0.20178690E+00 0.23177661E+04</pdfrwt>
<pdfrwt beam="2">  1       -2 0.15752865E+00 0.23177661E+04</pdfrwt>
<totfact> 0.38723172E+00</totfact>
</mgrwt>
</event>
<event>
 6    1  0.5196787E-004  0.1768476E+04  0.7818608E-02  0.8723245E-01
         -2   -1    0    0    0  501 -0.00000000000E+00  0.00000000000E+00  0.84146955227E+03  0.84146955227E+03  0.00000000000E+00 0. -1.
          2   -1    0    0  501    0  0.00000000000E+00 -0.00000000000E+00 -0.92918041781E+03  0.92918041781E+03  0.00000000000E+00 0.  1.
         23    2    1    2    0    0  0.24860532688E+03 -0.82014514844E+03  0.16436194442E+03  0.87735081830E+03  0.91032612429E+02 0.  0.
         11    1    3    3    0    0  0.14155840679E+03 -0.41313303259E+03  0.12719792311E+03  0.45485931538E+03  0.00000000000E+00 0.  1.
        -11    1    3    3    0    0  0.10704692009E+03 -0.40701211586E+03  0.37164021310E+02  0.42249150291E+03  0.00000000000E+00 0. -1.
         22    1    1    2    0    0 -0.24860532688E+03  0.82014514844E+03 -0.25207280996E+03  0.89329915179E+03  0.00000000000E+00 0.  1.
<mgrwt>
<rscale>  0 0.17684762E+04</rscale>
<asrwt>0</asrwt>
<pdfrwt beam="1">  1        2 0.14295083E+00 0.17684762E+04</pdfrwt>
<pdfrwt beam="2">  1       -2 0.12945685E+00 0.17684762E+04</pdfrwt>
<totfact> 0.11642294E+01</totfact>
</mgrwt>
</event>
<event>
 6    1  0.5196787E-004  0.1453662E+04  0.7818608E-02  0.8915865E-01
         -3   -1    0    0    0  501 -0.00000000000E+00  0.00000000000E+00  0.14758447427E+04  0.14758447427E+04  0.00000000000E+00 0. -1.
          3   -1    0    0  501    0  0.00000000000E+00 -0.00000000000E+00 -0.35795337908E+03  0.35795337908E+03  0.00000000000E+00 0.  1.
         23    2    1    2    0    0 -0.79293609658E+02 -0.34068373663E+03 -0.23826541393E+03  0.43325747965E+03  0.92675516000E+02 0.  0.
         13    1    3    3    0    0 -0.13381897729E+02 -0.14062415766E+03 -0.47377401632E+02  0.14899277529E+03  0.00000000000E+00 0. -1.
        -13    1    3    3    0    0 -0.65911711929E+02 -0.20005957897E+03 -0.19088801229E+03  0.28426470436E+03  0.00000000000E+00 0.  1.
         22    1    1    2    0    0  0.79293609658E+02  0.34068373663E+03  0.13561567775E+04  0.14005406421E+04  0.00000000000E+00 0. -1.
<mgrwt>
<rscale>  0 0.14536624E+04</rscale>
<asrwt>0</asrwt>
<pdfrwt beam="1">  1        3 0.55069751E-01 0.14536624E+04</pdfrwt>
<pdfrwt beam="2">  1       -3 0.22705303E+00 0.14536624E+04</pdfrwt>
<totfact> 0.82503517E-01</totfact>
</mgrwt>
</event>
<event>
 6    1  0.5196787E-004  0.1906651E+04  0.7818608E-02  0.8651553E-01
          1   -1    0    0  501    0  0.00000000000E+00  0.00000000000E+00  0.14846606769E+04  0.14846606769E+04  0.00000000000E+00 0.  1.
         -1   -1    0    0    0  501 -0.00000000000E+00 -0.00000000000E+00 -0.61214620867E+03  0.61214620867E+03  0.00000000000E+00 0. -1.
         23    2    1    2    0    0  0.64003931206E+03 -0.44107160449E+03 -0.16562129523E+03  0.79991816843E+03  0.90797475098E+02 0.  0.
         11    1    3    3    0    0  0.42199106972E+03 -0.24139101622E+03 -0.85789064658E+02  0.49366572623E+03  0.00000000000E+00 0.  1.
        -11    1    3    3    0    0  0.21804824234E+03 -0.19968058827E+03 -0.79832230569E+02  0.30625244221E+03  0.00000000000E+00 0. -1.
         22    1    1    2    0    0 -0.64003931206E+03  0.44107160449E+03  0.10381357634E+04  0.12968887171E+04  0.00000000000E+00 0.  1.
<mgrwt>
<rscale>  0 0.19066509E+04</rscale>
<asrwt>0</asrwt>
<pdfrwt beam="1">  1        1 0.22840933E+00 0.19066509E+04</pdfrwt>
<pdfrwt beam="2">  1       -1 0.94176341E-01 0.19066509E+04</pdfrwt>
<totfact> 0.68448767E+00</totfact>
</mgrwt>
</event>
<event>
 6    1  0.5196787E-004  0.1736274E+04  0.7818608E-02  0.8740942E-01
          2   -1    0    0  501    0  0.00000000000E+00  0.00000000000E+00  0.29315993470E+04  0.29315993470E+04  0.00000000000E+00 0.  1.
         -2   -1    0    0    0  501 -0.00000000000E+00 -0.00000000000E+00 -0.25708214478E+03  0.25708214478E+03  0.00000000000E+00 0. -1.
         23    2    1    2    0    0  0.58957823462E+03 -0.58685000456E+03  0.90243269993E+03  0.12310607660E+04  0.95553174649E+02 0.  0.
         13    1    3    3    0    0  0.87676694673E+02 -0.68750816187E+02  0.80317890625E+02  0.13734933953E+03  0.00000000000E+00 0.  1.
        -13    1    3    3    0    0  0.50190153995E+03 -0.51809918838E+03  0.82211480930E+03  0.10937114265E+04  0.00000000000E+00 0. -1.
         22    1    1    2    0    0 -0.58957823462E+03  0.58685000456E+03  0.17720845022E+04  0.19576207257E+04  0.00000000000E+00 0.  1.
<mgrwt>
<rscale>  0 0.17362740E+04</rscale>
<asrwt>0</asrwt>
<pdfrwt beam="1">  1        2 0.45101526E+00 0.17362740E+04</pdfrwt>
<pdfrwt beam="2">  1       -2 0.39551101E-01 0.17362740E+04</pdfrwt>
<totfact> 0.11063487E+01</totfact>
</mgrwt>
</event>
<event>
 6    1  0.5196787E-004  0.2952661E+04  0.7818608E-02  0.8257380E-01
          2   -1    0    0  501    0  0.00000000000E+00  0.00000000000E+00  0.19337974621E+04  0.19337974621E+04  0.00000000000E+00 0.  1.
         -2   -1    0    0    0  501 -0.00000000000E+00 -0.00000000000E+00 -0.11270834772E+04  0.11270834772E+04  0.00000000000E+00 0. -1.
         23    2    1    2    0    0 -0.77777017468E+03  0.72260859899E+03 -0.65772385697E+03  0.12521057116E+04  0.89879970012E+02 0.  0.
         11    1    3    3    0    0 -0.56123291421E+03  0.49230750344E+03 -0.42009315214E+03  0.85663721517E+03  0.00000000000E+00 0. -1.
        -11    1    3    3    0    0 -0.21653726047E+03  0.23030109554E+03 -0.23763070483E+03  0.39546849642E+03  0.00000000000E+00 0.  1.
         22    1    1    2    0    0  0.77777017468E+03 -0.72260859899E+03  0.14644378419E+04  0.18087752278E+04  0.00000000000E+00 0.  1.
<mgrwt>
<rscale>  0 0.29526606E+04</rscale>
<asrwt>0</asrwt>
<pdfrwt beam="1">  1        2 0.29750730E+00 0.29526606E+04</pdfrwt>
<pdfrwt beam="2">  1       -2 0.17339746E+00 0.29526606E+04</pdfrwt>
<totfact> 0.12603328E+00</totfact>
</mgrwt>
</event>
<event>
 6    1  0.5196787E-004  0.9948739E+03  0.7818608E-02  0.9314185E-01
          2   -1    0    0  501    0  0.00000000000E+00  0.00000000000E+00  0.17411087604E+03  0.17411087604E+03  0.00000000000E+00 0.  1.
         -2   -1    0    0    0  501 -0.00000000000E+00 -0.00000000000E+00 -0.14211834816E+04  0.14211834816E+04  0.00000000000E+00 0. -1.
         23    2    1    2    0    0 -0.15631574632E+03 -0.36089557445E+03 -0.11061839454E+04  0.11775266677E+04  0.90806959509E+02 0.  0.
         11    1    3    3    0    0  0.11061557143E+02 -0.19714674031E+02 -0.83895689937E+02  0.86887934770E+02  0.00000000000E+00 0.  1.
        -11    1    3    3    0    0 -0.16737730346E+03 -0.34118090042E+03 -0.10222882554E+04  0.10906387329E+04  0.00000000000E+00 0. -1.
         22    1    1    2    0    0  0.15631574632E+03  0.36089557445E+03 -0.14088866017E+03  0.41776768995E+03  0.00000000000E+00 0.  1.
<mgrwt>
<rscale>  0 0.99487386E+03</rscale>
<asrwt>0</asrwt>
<pdfrwt beam="1">  1        2 0.26786287E-01 0.99487386E+03</pdfrwt>
<pdfrwt beam="2">  1       -2 0.21864363E+00 0.99487386E+03</pdfrwt>
<totfact> 0.20460016E+01</totfact>
</mgrwt>
</event>
<event>
 6    1  0.5196787E-004  0.1373138E+04  0.7818608E-02  0.8973496E-01
         -1   -1    0    0    0  501 -0.00000000000E+00  0.00000000000E+00  0.42433790171E+03  0.42433790171E+03  0.00000000000E+00 0. -1.
          1   -1    0    0  501    0  0.00000000000E+00 -0.00000000000E+00 -0.11108523054E+04  0.11108523054E+04  0.00000000000E+00 0.  1.
         23    2    1    2    0    0  0.59548940509E+03  0.88124734402E+02 -0.70696875018E+03  0.93286805020E+03  0.89801920658E+02 0.  0.
         11    1    3    3    0    0  0.27754134463E+03  0.43611833175E+02 -0.26188508089E+03  0.38407679644E+03  0.00000000000E+00 0. -1.
        -11    1    3    3    0    0  0.31794806046E+03  0.44512901227E+02 -0.44508366929E+03  0.54879125375E+03  0.00000000000E+00 0.  1.
         22    1    1    2    0    0 -0.59548940509E+03 -0.88124734402E+02  0.20454346511E+02  0.60232215689E+03  0.00000000000E+00 0. -1.
<mgrwt>
<rscale>  0 0.13731376E+04</rscale>
<asrwt>0</asrwt>
<pdfrwt beam="1">  1        1 0.17090035E+00 0.13731376E+04</pdfrwt>
<pdfrwt beam="2">  1       -1 0.65282755E-01 0.13731376E+04</pdfrwt>
<totfact> 0.28920768E+01</totfact>
</mgrwt>
</event>
<event>
 6    1  0.5196787E-004  0.2789625E+04  0.7818608E-02  0.8306497E-01
          2   -1    0    0  501    0  0.00000000000E+00  0.00000000000E+00  0.41929235353E+04  0.41929235353E+04  0.00000000000E+00 0.  1.
         -2   -1    0    0    0  501 -0.00000000000E+00 -0.00000000000E+00 -0.46399646564E+03  0.46399646564E+03  0.00000000000E+00 0. -1.
         23    2    1    2    0    0 -0.33900695178E+03 -0.53455757429E+03  0.39384879653E+04  0.39901417150E+04  0.94159119240E+02 0.  0.
         11    1    3    3    0    0 -0.26798137775E+03 -0.38048625067E+03  0.30911400360E+04  0.31259767318E+04  0.00000000000E+00 0.  1.
        -11    1    3    3    0    0 -0.71025574032E+02 -0.15407132361E+03  0.84734792932E+03  0.86416498323E+03  0.00000000000E+00 0. -1.
         22    1    1    2    0    0  0.33900695178E+03  0.53455757429E+03 -0.20956089562E+03  0.66677828591E+03  0.00000000000E+00 0. -1.
<mgrwt>
<rscale>  0 0.27896249E+04</rscale>
<asrwt>0</asrwt>
<pdfrwt beam="1">  1        2 0.64506513E+00 0.27896249E+04</pdfrwt>
<pdfrwt beam="2">  1       -2 0.71384074E-01 0.27896249E+04</pdfrwt>
<totfact> 0.36619143E-01</totfact>
</mgrwt>
</event>
<event>
 6    1  0.5196787E-004  0.1813314E+04  0.7818608E-02  0.8699251E-01
         -2   -1    0    0    0  501 -0.00000000000E+00  0.00000000000E+00  0.49848374416E+03  0.49848374416E+03  0.00000000000E+00 0. -1.
          2   -1    0    0  501    0  0.00000000000E+00 -0.00000000000E+00 -0.16490539912E+04  0.16490539912E+04  0.00000000000E+00 0.  1.
         23    2    1    2    0    0  0.22552895937E+03  0.19012391511E+03  0.43568592310E+03  0.53408830884E+03  0.91747934261E+02 0.  0.
         13    1    3    3    0    0  0.15890582989E+03  0.15250894943E+03  0.38087536748E+03  0.43997282641E+03  0.00000000000E+00 0. -1.
        -13    1    3    3    0    0  0.66623129482E+02  0.37614965676E+02  0.54810555616E+02  0.94115482423E+02  0.00000000000E+00 0.  1.
         22    1    1    2    0    0 -0.22552895937E+03 -0.19012391511E+03 -0.15862561701E+04  0.16134494265E+04  0.00000000000E+00 0.  1.
<mgrwt>
<rscale>  0 0.18133137E+04</rscale>
<asrwt>0</asrwt>
<pdfrwt beam="1">  1        2 0.25370061E+00 0.18133137E+04</pdfrwt>
<pdfrwt beam="2">  1       -2 0.76689807E-01 0.18133137E+04</pdfrwt>
<totfact> 0.15002454E+01</totfact>
</mgrwt>
</event>
<event>
 6    1  0.5196787E-004  0.2622029E+04  0.7818608E-02  0.8360757E-01
          2   -1    0    0  501    0  0.00000000000E+00  0.00000000000E+00  0.27203990773E+04  0.27203990773E+04  0.00000000000E+00 0.  1.
         -2   -1    0    0    0  501 -0.00000000000E+00 -0.00000000000E+00 -0.63180414788E+03  0.63180414788E+03  0.00000000000E+00 0. -1.
         23    2    1    2    0    0 -0.10816178212E+04  0.18774199771E+03  0.13264851989E+03  0.11092430102E+04  0.87637075700E+02 0.  0.
         11    1    3    3    0    0 -0.68779165445E+03  0.85463276819E+02  0.10966816330E+03  0.70170395300E+03  0.00000000000E+00 0. -1.
        -11    1    3    3    0    0 -0.39382616677E+03  0.10227872090E+03  0.22980356582E+02  0.40753905723E+03  0.00000000000E+00 0.  1.
         22    1    1    2    0    0  0.10816178212E+04 -0.18774199771E+03  0.19559464095E+04  0.22429602149E+04  0.00000000000E+00 0.  1.
<mgrwt>
<rscale>  0 0.26220293E+04</rscale>
<asrwt>0</asrwt>
<pdfrwt beam="1">  1        2 0.41852293E+00 0.26220293E+04</pdfrwt>
<pdfrwt beam="2">  1       -2 0.97200640E-01 0.26220293E+04</pdfrwt>
<totfact> 0.20132256E+00</totfact>
</mgrwt>
</event>
<event>
 6    1  0.5196787E-004  0.2964986E+04  0.7818608E-02  0.8253801E-01
          2   -1    0    0  501    0  0.00000000000E+00  0.00000000000E+00  0.99186803922E+03  0.99186803922E+03  0.00000000000E+00 0.  1.
         -2   -1    0    0    0  501 -0.00000000000E+00 -0.00000000000E+00 -0.22158046970E+04  0.22158046970E+04  0.00000000000E+00 0. -1.
         23    2    1    2    0    0  0.13805160785E+04  0.47577696142E+03 -0.34455406072E+03  0.15031193895E+04  0.91989337095E+02 0.  0.
         13    1    3    3    0    0  0.42942198889E+03  0.10413309199E+03 -0.11223219055E+03  0.45589802586E+03  0.00000000000E+00 0. -1.
        -13    1    3    3    0    0  0.95109408963E+03  0.37164386943E+03 -0.23232187017E+03  0.10472213636E+04  0.00000000000E+00 0.  1.
         22    1    1    2    0    0 -0.13805160785E+04 -0.47577696142E+03 -0.87938259710E+03  0.17045533468E+04  0.00000000000E+00 0.  1.
<mgrwt>
<rscale>  0 0.29649862E+04</rscale>
<asrwt>0</asrwt>
<pdfrwt beam="1">  1        2 0.15259509E+00 0.29649862E+04</pdfrwt>
<pdfrwt beam="2">  1       -2 0.34089303E+00 0.29649862E+04</pdfrwt>
<totfact> 0.38842868E-01</totfact>
</mgrwt>
</event>
<event>
 6    1  0.5196787E-004  0.2678153E+04  0.7818608E-02  0.8342129E-01
         -2   -1    0    0    0  501 -0.00000000000E+00  0.00000000000E+00  0.20278601961E+04  0.20278601961E+04  0.00000000000E+00 0. -1.
          2   -1    0    0  501    0  0.00000000000E+00 -0.00000000000E+00 -0.88424509348E+03  0.88424509348E+03  0.00000000000E+00 0.  1.
         23    2    1    2    0    0  0.39475854054E+02 -0.11437098040E+04  0.13252716194E+04  0.17533863638E+04  0.91588300228E+02 0.  0.
         13    1    3    3    0    0 -0.75836662152E+01 -0.19273841520E+03  0.27329093744E+03  0.33450492549E+03  0.00000000000E+00 0. -1.
        -13    1    3    3    0    0  0.47059520269E+02 -0.95097138884E+03  0.10519806820E+04  0.14188814383E+04  0.00000000000E+00 0.  1.
         22    1    1    2    0    0 -0.39475854054E+02  0.11437098040E+04 -0.18165651675E+03  0.11587189258E+04  0.00000000000E+00 0.  1.
<mgrwt>
<rscale>  0 0.26781527E+04</rscale>
<asrwt>0</asrwt>
<pdfrwt beam="1">  1        2 0.13603771E+00 0.26781527E+04</pdfrwt>
<pdfrwt beam="2">  1       -2 0.31197849E+00 0.26781527E+04</pdfrwt>
<totfact> 0.70881319E-01</totfact>
</mgrwt>
</event>
<event>
 6    1  0.5196787E-004  0.2109195E+04  0.7818608E-02  0.8557204E-01
          2   -1    0    0  501    0  0.00000000000E+00  0.00000000000E+00  0.26032592590E+04  0.26032592590E+04  0.00000000000E+00 0.  1.
         -2   -1    0    0    0  501 -0.00000000000E+00 -0.00000000000E+00 -0.42722428655E+03  0.42722428655E+03  0.00000000000E+00 0. -1.
         23    2    1    2    0    0 -0.99196574270E+02 -0.24638495963E+03  0.25538246181E+04  0.25686713272E+04  0.74207133775E+02 0.  0.
         13    1    3    3    0    0 -0.92828411764E+02 -0.13302648540E+03  0.15193388502E+04  0.15279737241E+04  0.00000000000E+00 0. -1.
        -13    1    3    3    0    0 -0.63681625051E+01 -0.11335847424E+03  0.10344857678E+04  0.10406976031E+04  0.00000000000E+00 0.  1.
         22    1    1    2    0    0  0.99196574270E+02  0.24638495963E+03 -0.37778964561E+03  0.46181221835E+03  0.00000000000E+00 0. -1.
<mgrwt>
<rscale>  0 0.21091947E+04</rscale>
<asrwt>0</asrwt>
<pdfrwt beam="1">  1        2 0.40050142E+00 0.21091947E+04</pdfrwt>
<pdfrwt beam="2">  1       -2 0.65726815E-01 0.21091947E+04</pdfrwt>
<totfact> 0.59498029E+00</totfact>
</mgrwt>
</event>
<event>
 6    1  0.5196787E-004  0.1144718E+04  0.7818608E-02  0.9162670E-01
         -1   -1    0    0    0  501 -0.00000000000E+00  0.00000000000E+00  0.15877203790E+03  0.15877203790E+03  0.00000000000E+00 0.  1.
          1   -1    0    0  501    0  0.00000000000E+00 -0.00000000000E+00 -0.20633039702E+04  0.20633039702E+04  0.00000000000E+00 0. -1.
         23    2    1    2    0    0 -0.38802244404E+02  0.52355332482E+03 -0.53377602376E+03  0.75422538256E+03  0.91243553501E+02 0.  0.
         11    1    3    3    0    0 -0.98396089826E+01  0.20006973530E+03 -0.14306559370E+03  0.24615540008E+03  0.00000000000E+00 0. -1.
        -11    1    3    3    0    0 -0.28962635421E+02  0.32348358952E+03 -0.39071043006E+03  0.50806998248E+03  0.00000000000E+00 0.  1.
         22    1    1    2    0    0  0.38802244404E+02 -0.52355332482E+03 -0.13707559085E+04  0.14678506255E+04  0.00000000000E+00 0. -1.
<mgrwt>
<rscale>  0 0.11447183E+04</rscale>
<asrwt>0</asrwt>
<pdfrwt beam="1">  1        1 0.31743136E+00 0.11447183E+04</pdfrwt>
<pdfrwt beam="2">  1       -1 0.24426469E-01 0.11447183E+04</pdfrwt>
<totfact> 0.39202910E+01</totfact>
</mgrwt>
</event>
<event>
 6    1  0.5196787E-004  0.2523262E+04  0.7818608E-02  0.8394745E-01
         -2   -1    0    0    0  501 -0.00000000000E+00  0.00000000000E+00  0.14148423765E+04  0.14148423765E+04  0.00000000000E+00 0. -1.
          2   -1    0    0  501    0  0.00000000000E+00 -0.00000000000E+00 -0.11250105713E+04  0.11250105713E+04  0.00000000000E+00 0.  1.
         23    2    1    2    0    0  0.71371772025E+03 -0.36609587791E+03 -0.83308993916E+03  0.11598629405E+04  0.88453479796E+02 0.  0.
         11    1    3    3    0    0  0.18305451906E+03 -0.67490181661E+02 -0.16093063188E+03  0.25290818461E+03  0.00000000000E+00 0. -1.
        -11    1    3    3    0    0  0.53066320119E+03 -0.29860569625E+03 -0.67215930728E+03  0.90695475593E+03  0.00000000000E+00 0.  1.
         22    1    1    2    0    0 -0.71371772025E+03  0.36609587791E+03  0.11229217444E+04  0.13799900072E+04  0.00000000000E+00 0. -1.
<mgrwt>
<rscale>  0 0.25232619E+04</rscale>
<asrwt>0</asrwt>
<pdfrwt beam="1">  1        2 0.17307855E+00 0.25232619E+04</pdfrwt>
<pdfrwt beam="2">  1       -2 0.21766806E+00 0.25232619E+04</pdfrwt>
<totfact> 0.19140424E+00</totfact>
</mgrwt>
</event>
<event>
 6    1  0.5196787E-004  0.3356945E+04  0.7818608E-02  0.8148555E-01
          2   -1    0    0  501    0  0.00000000000E+00  0.00000000000E+00  0.18772624388E+04  0.18772624388E+04  0.00000000000E+00 0.  1.
         -2   -1    0    0    0  501 -0.00000000000E+00 -0.00000000000E+00 -0.15007331023E+04  0.15007331023E+04  0.00000000000E+00 0. -1.
         23    2    1    2    0    0  0.21623202950E+03 -0.13968140035E+04  0.10970379177E+04  0.17914967965E+04  0.90127287148E+02 0.  0.
         11    1    3    3    0    0  0.20061322795E+03 -0.11215972750E+04  0.85273034988E+03  0.14231567602E+04  0.00000000000E+00 0. -1.
        -11    1    3    3    0    0  0.15618801548E+02 -0.27521672845E+03  0.24430756785E+03  0.36834003623E+03  0.00000000000E+00 0.  1.
         22    1    1    2    0    0 -0.21623202950E+03  0.13968140035E+04 -0.72050858130E+03  0.15864987446E+04  0.00000000000E+00 0. -1.
<mgrwt>
<rscale>  0 0.33569450E+04</rscale>
<asrwt>0</asrwt>
<pdfrwt beam="1">  1        2 0.28880960E+00 0.33569450E+04</pdfrwt>
<pdfrwt beam="2">  1       -2 0.23088202E+00 0.33569450E+04</pdfrwt>
<totfact> 0.54867359E-01</totfact>
</mgrwt>
</event>
<event>
 6    1  0.5196787E-004  0.3321463E+04  0.7818608E-02  0.8157455E-01
          2   -1    0    0  501    0  0.00000000000E+00  0.00000000000E+00  0.34735875057E+04  0.34735875057E+04  0.00000000000E+00 0.  1.
         -2   -1    0    0    0  501 -0.00000000000E+00 -0.00000000000E+00 -0.79400025970E+03  0.79400025970E+03  0.00000000000E+00 0. -1.
         23    2    1    2    0    0  0.82077220384E+03  0.12919944068E+04  0.51696514404E+03  0.16180876402E+04  0.89655415024E+02 0.  0.
         13    1    3    3    0    0  0.51887157427E+03  0.86685273720E+03  0.30606876980E+03  0.10556227879E+04  0.00000000000E+00 0.  1.
        -13    1    3    3    0    0  0.30190062957E+03  0.42514166956E+03  0.21089637424E+03  0.56246485223E+03  0.00000000000E+00 0. -1.
         22    1    1    2    0    0 -0.82077220384E+03 -0.12919944068E+04  0.21626221020E+04  0.26495001252E+04  0.00000000000E+00 0.  1.
<mgrwt>
<rscale>  0 0.33214632E+04</rscale>
<asrwt>0</asrwt>
<pdfrwt beam="1">  1        2 0.53439807E+00 0.33214632E+04</pdfrwt>
<pdfrwt beam="2">  1       -2 0.12215389E+00 0.33214632E+04</pdfrwt>
<totfact> 0.35874135E-01</totfact>
</mgrwt>
</event>
<event>
 6    1  0.5196787E-004  0.2431411E+04  0.7818608E-02  0.8427836E-01
         -2   -1    0    0    0  501 -0.00000000000E+00  0.00000000000E+00  0.11658079895E+04  0.11658079895E+04  0.00000000000E+00 0. -1.
          2   -1    0    0  501    0  0.00000000000E+00 -0.00000000000E+00 -0.12677387840E+04  0.12677387840E+04  0.00000000000E+00 0.  1.
         23    2    1    2    0    0  0.21180103351E+03  0.11947526373E+04 -0.15392284921E+02  0.12170836809E+04  0.93606739882E+02 0.  0.
         13    1    3    3    0    0  0.73019381302E+02  0.23329820468E+03 -0.23932890288E+02  0.24562708643E+03  0.00000000000E+00 0.  1.
        -13    1    3    3    0    0  0.13878165220E+03  0.96145443261E+03  0.85406053671E+01  0.97145659445E+03  0.00000000000E+00 0. -1.
         22    1    1    2    0    0 -0.21180103351E+03 -0.11947526373E+04 -0.86538509497E+02  0.12164630926E+04  0.00000000000E+00 0. -1.
<mgrwt>
<rscale>  0 0.24314111E+04</rscale>
<asrwt>0</asrwt>
<pdfrwt beam="1">  1        2 0.19503674E+00 0.24314111E+04</pdfrwt>
<pdfrwt beam="2">  1       -2 0.17935508E+00 0.24314111E+04</pdfrwt>
<totfact> 0.28373852E+00</totfact>
</mgrwt>
</event>
<event>
 6    1  0.5196787E-004  0.4650610E+03  0.7818608E-02  0.1023324E+00
         -3   -1    0    0    0  501 -0.00000000000E+00  0.00000000000E+00  0.16752251183E+03  0.16752251183E+03  0.00000000000E+00 0. -1.
          3   -1    0    0  501    0  0.00000000000E+00 -0.00000000000E+00 -0.32276517069E+03  0.32276517069E+03  0.00000000000E+00 0.  1.
         23    2    1    2    0    0  0.10767458279E+03 -0.13369724511E+03 -0.23233399627E+03  0.30210733436E+03  0.88436341617E+02 0.  0.
         13    1    3    3    0    0 -0.15518338929E+01 -0.54266920781E+02 -0.95480497493E+02  0.10983547824E+03  0.00000000000E+00 0.  1.
        -13    1    3    3    0    0  0.10922641669E+03 -0.79430324331E+02 -0.13685349878E+03  0.19227185611E+03  0.00000000000E+00 0. -1.
         22    1    1    2    0    0 -0.10767458279E+03  0.13369724511E+03  0.77091337416E+02  0.18818034816E+03  0.00000000000E+00 0. -1.
<mgrwt>
<rscale>  0 0.46506099E+03</rscale>
<asrwt>0</asrwt>
<pdfrwt beam="1">  1        3 0.49656180E-01 0.46506099E+03</pdfrwt>
<pdfrwt beam="2">  1       -3 0.25772694E-01 0.46506099E+03</pdfrwt>
<totfact> 0.15051171E+02</totfact>
</mgrwt>
</event>
<event>
 6    1  0.5196787E-004  0.3065734E+04  0.7818608E-02  0.8225205E-01
          2   -1    0    0  501    0  0.00000000000E+00  0.00000000000E+00  0.44505304712E+04  0.44505304712E+04  0.00000000000E+00 0.  1.
         -2   -1    0    0    0  501 -0.00000000000E+00 -0.00000000000E+00 -0.52795529683E+03  0.52795529683E+03  0.00000000000E+00 0. -1.
         23    2    1    2    0    0  0.82681990228E+03 -0.87357063727E+03  0.35025068232E+04  0.37044315193E+04  0.92206427044E+02 0.  0.
         13    1    3    3    0    0  0.32991944489E+03 -0.41000391585E+03  0.14749198958E+04  0.15659944924E+04  0.00000000000E+00 0. -1.
        -13    1    3    3    0    0  0.49690045739E+03 -0.46356672142E+03  0.20275869275E+04  0.21384370269E+04  0.00000000000E+00 0.  1.
         22    1    1    2    0    0 -0.82681990228E+03  0.87357063727E+03  0.42006835112E+03  0.12740542487E+04  0.00000000000E+00 0. -1.
<mgrwt>
<rscale>  0 0.30657339E+04</rscale>
<asrwt>0</asrwt>
<pdfrwt beam="1">  1        2 0.68469697E+00 0.30657339E+04</pdfrwt>
<pdfrwt beam="2">  1       -2 0.81223895E-01 0.30657339E+04</pdfrwt>
<totfact> 0.15609149E-01</totfact>
</mgrwt>
</event>
<event>
 6    1  0.6249836E-004  0.2258240E+04  0.7818608E-02  0.8494571E-01
          2   -1    0    0  501    0  0.00000000000E+00  0.00000000000E+00  0.19956753827E+04  0.19956753827E+04  0.00000000000E+00 0.  1.
         -2   -1    0    0    0  501 -0.00000000000E+00 -0.00000000000E+00 -0.63883725528E+03  0.63883725528E+03  0.00000000000E+00 0. -1.
         23    2    1    2    0    0 -0.60768360293E+03 -0.92535274721E+03  0.42830335608E+03  0.11896133717E+04  0.78607514142E+02 0.  0.
         13    1    3    3    0    0 -0.37540261394E+03 -0.50722703630E+03  0.26105728837E+03  0.68290357791E+03  0.00000000000E+00 0. -1.
        -13    1    3    3    0    0 -0.23228098899E+03 -0.41812571091E+03  0.16724606770E+03  0.50670979380E+03  0.00000000000E+00 0.  1.
         22    1    1    2    0    0  0.60768360293E+03  0.92535274721E+03  0.92853477133E+03  0.14448992663E+04  0.00000000000E+00 0. -1.
<mgrwt>
<rscale>  0 0.22582398E+04</rscale>
<asrwt>0</asrwt>
<pdfrwt beam="1">  1        2 0.30702698E+00 0.22582398E+04</pdfrwt>
<pdfrwt beam="2">  1       -2 0.98282656E-01 0.22582398E+04</pdfrwt>
<totfact> 0.52589760E+00</totfact>
</mgrwt>
</event>
<event>
 6    1  0.5196787E-004  0.4453594E+04  0.7818608E-02  0.7918812E-01
         -2   -1    0    0    0  501 -0.00000000000E+00  0.00000000000E+00  0.17130864922E+04  0.17130864922E+04  0.00000000000E+00 0.  1.
          2   -1    0    0  501    0  0.00000000000E+00 -0.00000000000E+00 -0.28945556152E+04  0.28945556152E+04  0.00000000000E+00 0. -1.
         23    2    1    2    0    0  0.19199093790E+04  0.11229048624E+04 -0.50101519341E+03  0.22817046827E+04  0.90513431850E+02 0.  0.
         13    1    3    3    0    0  0.13799059910E+04  0.75973188941E+03 -0.35962019804E+03  0.16157536244E+04  0.00000000000E+00 0. -1.
        -13    1    3    3    0    0  0.54000338799E+03  0.36317297297E+03 -0.14139499536E+03  0.66595105830E+03  0.00000000000E+00 0.  1.
         22    1    1    2    0    0 -0.19199093790E+04 -0.11229048624E+04 -0.68045392961E+03  0.23259374248E+04  0.00000000000E+00 0. -1.
<mgrwt>
<rscale>  0 0.44535937E+04</rscale>
<asrwt>0</asrwt>
<pdfrwt beam="1">  1        2 0.44531625E+00 0.44535937E+04</pdfrwt>
<pdfrwt beam="2">  1       -2 0.26355177E+00 0.44535937E+04</pdfrwt>
<totfact> 0.81690930E-02</totfact>
</mgrwt>
</event>
<event>
 6    1  0.5196787E-004  0.9889076E+03  0.7818608E-02  0.9320795E-01
         -1   -1    0    0    0  501 -0.00000000000E+00  0.00000000000E+00  0.45725242788E+03  0.45725242788E+03  0.00000000000E+00 0. -1.
          1   -1    0    0  501    0  0.00000000000E+00 -0.00000000000E+00 -0.53468181732E+03  0.53468181732E+03  0.00000000000E+00 0.  1.
         23    2    1    2    0    0  0.70584028577E+02 -0.36105380426E+03  0.28609849285E+03  0.47473556398E+03  0.90440883671E+02 0.  0.
         11    1    3    3    0    0  0.75624994976E+02 -0.24907662272E+03  0.23819202749E+03  0.35283671267E+03  0.00000000000E+00 0. -1.
        -11    1    3    3    0    0 -0.50409663989E+01 -0.11197718153E+03  0.47906465361E+02  0.12189885131E+03  0.00000000000E+00 0.  1.
         22    1    1    2    0    0 -0.70584028577E+02  0.36105380426E+03 -0.36352788229E+03  0.51719868122E+03  0.00000000000E+00 0.  1.
<mgrwt>
<rscale>  0 0.98890760E+03</rscale>
<asrwt>0</asrwt>
<pdfrwt beam="1">  1        1 0.82258741E-01 0.98890760E+03</pdfrwt>
<pdfrwt beam="2">  1       -1 0.70346528E-01 0.98890760E+03</pdfrwt>
<totfact> 0.82750769E+01</totfact>
</mgrwt>
</event>
<event>
 6    1  0.5196787E-004  0.3955840E+04  0.7818608E-02  0.8013515E-01
          2   -1    0    0  501    0  0.00000000000E+00  0.00000000000E+00  0.22628137653E+04  0.22628137653E+04  0.00000000000E+00 0.  1.
         -2   -1    0    0    0  501 -0.00000000000E+00 -0.00000000000E+00 -0.17288950425E+04  0.17288950425E+04  0.00000000000E+00 0. -1.
         23    2    1    2    0    0 -0.18389054643E+04 -0.45560895873E+03  0.83700993113E+03  0.20731111141E+04  0.89728684409E+02 0.  0.
         11    1    3    3    0    0 -0.14170805330E+04 -0.36343043126E+03  0.68482993340E+03  0.16152990290E+04  0.00000000000E+00 0. -1.
        -11    1    3    3    0    0 -0.42182493123E+03 -0.92178527472E+02  0.15217999772E+03  0.45781208507E+03  0.00000000000E+00 0.  1.
         22    1    1    2    0    0  0.18389054643E+04  0.45560895873E+03 -0.30309120829E+03  0.19185976937E+04  0.00000000000E+00 0. -1.
<mgrwt>
<rscale>  0 0.39558400E+04</rscale>
<asrwt>0</asrwt>
<pdfrwt beam="1">  1        2 0.34812520E+00 0.39558400E+04</pdfrwt>
<pdfrwt beam="2">  1       -2 0.26598385E+00 0.39558400E+04</pdfrwt>
<totfact> 0.19324141E-01</totfact>
</mgrwt>
</event>
<event>
 6    1  0.5196787E-004  0.5097475E+04  0.7818608E-02  0.7813644E-01
         -2   -1    0    0    0  501 -0.00000000000E+00  0.00000000000E+00  0.19407319685E+04  0.19407319685E+04  0.00000000000E+00 0. -1.
          2   -1    0    0  501    0  0.00000000000E+00 -0.00000000000E+00 -0.33472224903E+04  0.33472224903E+04  0.00000000000E+00 0.  1.
         23    2    1    2    0    0  0.11544805132E+04 -0.63845334284E+03 -0.29646688991E+04  0.32462963625E+04  0.93436962775E+02 0.  0.
         11    1    3    3    0    0  0.85921015680E+03 -0.49734340008E+03 -0.23136819519E+04  0.25176808228E+04  0.00000000000E+00 0.  1.
        -11    1    3    3    0    0  0.29527035639E+03 -0.14110994277E+03 -0.65098694720E+03  0.72861553973E+03  0.00000000000E+00 0. -1.
         22    1    1    2    0    0 -0.11544805132E+04  0.63845334284E+03  0.15581783773E+04  0.20416580962E+04  0.00000000000E+00 0. -1.
<mgrwt>
<rscale>  0 0.50974745E+04</rscale>
<asrwt>0</asrwt>
<pdfrwt beam="1">  1        2 0.51495730E+00 0.50974745E+04</pdfrwt>
<pdfrwt beam="2">  1       -2 0.29857415E+00 0.50974745E+04</pdfrwt>
<totfact> 0.24223304E-02</totfact>
</mgrwt>
</event>
<event>
 6    1  0.1089031E-003  0.4873570E+04  0.7818608E-02  0.7848312E-01
          2   -1    0    0  501    0  0.00000000000E+00  0.00000000000E+00  0.26562660556E+04  0.26562660556E+04  0.00000000000E+00 0.  1.
         -2   -1    0    0    0  501 -0.00000000000E+00 -0.00000000000E+00 -0.22354388740E+04  0.22354388740E+04  0.00000000000E+00 0. -1.
         23    2    1    2    0    0  0.92816581676E+03  0.18055941566E+04 -0.11405429654E+04  0.23305452747E+04  0.94556754253E+02 0.  0.
         13    1    3    3    0    0  0.75188217791E+03  0.14992319181E+04 -0.97777873588E+03  0.19414104177E+04  0.00000000000E+00 0. -1.
        -13    1    3    3    0    0  0.17628363885E+03  0.30636223847E+03 -0.16276422949E+03  0.38913485695E+03  0.00000000000E+00 0.  1.
         22    1    1    2    0    0 -0.92816581676E+03 -0.18055941566E+04  0.15613701470E+04  0.25611596549E+04  0.00000000000E+00 0. -1.
<mgrwt>
<rscale>  0 0.48735697E+04</rscale>
<asrwt>0</asrwt>
<pdfrwt beam="1">  1        2 0.40865631E+00 0.48735697E+04</pdfrwt>
<pdfrwt beam="2">  1       -2 0.34391367E+00 0.48735697E+04</pdfrwt>
<totfact> 0.35228672E-02</totfact>
</mgrwt>
</event>
<event>
 6    1  0.8543536E-004  0.3104309E+04  0.7818608E-02  0.8214556E-01
          2   -1    0    0  501    0  0.00000000000E+00  0.00000000000E+00  0.21523763548E+04  0.21523763548E+04  0.00000000000E+00 0.  1.
         -2   -1    0    0    0  501 -0.00000000000E+00 -0.00000000000E+00 -0.11193132595E+04  0.11193132595E+04  0.00000000000E+00 0. -1.
         23    2    1    2    0    0  0.59630717052E+03  0.39590348491E+03  0.19668291256E+04  0.20951519778E+04  0.94462637305E+02 0.  0.
         13    1    3    3    0    0  0.40787551075E+03  0.22927319084E+03  0.11934018652E+04  0.12818489147E+04  0.00000000000E+00 0. -1.
        -13    1    3    3    0    0  0.18843165977E+03  0.16663029407E+03  0.77342726037E+03  0.81330306306E+03  0.00000000000E+00 0.  1.
         22    1    1    2    0    0 -0.59630717052E+03 -0.39590348491E+03 -0.93376603021E+03  0.11765376365E+04  0.00000000000E+00 0. -1.
<mgrwt>
<rscale>  0 0.31043089E+04</rscale>
<asrwt>0</asrwt>
<pdfrwt beam="1">  1        2 0.33113482E+00 0.31043089E+04</pdfrwt>
<pdfrwt beam="2">  1       -2 0.17220204E+00 0.31043089E+04</pdfrwt>
<totfact> 0.95838187E-01</totfact>
</mgrwt>
</event>
<event>
 6    1  0.5196787E-004  0.2601630E+04  0.7818608E-02  0.8367648E-01
          2   -1    0    0  501    0  0.00000000000E+00  0.00000000000E+00  0.32202657912E+04  0.32202657912E+04  0.00000000000E+00 0.  1.
         -2   -1    0    0    0  501 -0.00000000000E+00 -0.00000000000E+00 -0.52545972842E+03  0.52545972842E+03  0.00000000000E+00 0. -1.
         23    2    1    2    0    0 -0.20605179674E+02  0.12061165041E+04  0.20434595629E+04  0.23748156547E+04  0.94238068102E+02 0.  0.
         13    1    3    3    0    0  0.34666477095E+02  0.68198741910E+03  0.11411380729E+04  0.13298513849E+04  0.00000000000E+00 0.  1.
        -13    1    3    3    0    0 -0.55271656770E+02  0.52412908504E+03  0.90232148997E+03  0.10449642698E+04  0.00000000000E+00 0. -1.
         22    1    1    2    0    0  0.20605179674E+02 -0.12061165041E+04  0.65134649992E+03  0.13709098650E+04  0.00000000000E+00 0. -1.
<mgrwt>
<rscale>  0 0.26016302E+04</rscale>
<asrwt>0</asrwt>
<pdfrwt beam="1">  1        2 0.49542549E+00 0.26016302E+04</pdfrwt>
<pdfrwt beam="2">  1       -2 0.80839960E-01 0.26016302E+04</pdfrwt>
<totfact> 0.15021618E+00</totfact>
</mgrwt>
</event>
<event>
 6    1  0.5196787E-004  0.1277905E+04  0.7818608E-02  0.9047272E-01
         -2   -1    0    0    0  501 -0.00000000000E+00  0.00000000000E+00  0.41005300485E+03  0.41005300485E+03  0.00000000000E+00 0. -1.
          2   -1    0    0  501    0  0.00000000000E+00 -0.00000000000E+00 -0.99562876984E+03  0.99562876984E+03  0.00000000000E+00 0.  1.
         23    2    1    2    0    0 -0.30639467664E+03  0.19497689146E+03  0.27961095909E+03  0.46736319680E+03  0.91391373786E+02 0.  0.
         11    1    3    3    0    0 -0.48850560495E+02  0.16884882834E+02  0.69246626958E+01  0.52148130191E+02  0.00000000000E+00 0.  1.
        -11    1    3    3    0    0 -0.25754411615E+03  0.17809200862E+03  0.27268629639E+03  0.41521506661E+03  0.00000000000E+00 0. -1.
         22    1    1    2    0    0  0.30639467664E+03 -0.19497689146E+03 -0.86518672408E+03  0.93831857789E+03  0.00000000000E+00 0.  1.
<mgrwt>
<rscale>  0 0.12779054E+04</rscale>
<asrwt>0</asrwt>
<pdfrwt beam="1">  1        2 0.15317366E+00 0.12779054E+04</pdfrwt>
<pdfrwt beam="2">  1       -2 0.63085078E-01 0.12779054E+04</pdfrwt>
<totfact> 0.57943185E+01</totfact>
</mgrwt>
</event>
<event>
 6    1  0.5196787E-004  0.1140279E+04  0.7818608E-02  0.9166798E-01
         -2   -1    0    0    0  501 -0.00000000000E+00  0.00000000000E+00  0.17143276731E+03  0.17143276731E+03  0.00000000000E+00 0. -1.
          2   -1    0    0  501    0  0.00000000000E+00 -0.00000000000E+00 -0.18961321823E+04  0.18961321823E+04  0.00000000000E+00 0.  1.
         23    2    1    2    0    0 -0.22405604259E+03 -0.51708501138E+03 -0.97270136412E+03  0.11278420715E+04  0.91114077929E+02 0.  0.
         11    1    3    3    0    0 -0.14298570844E+03 -0.41844464650E+03 -0.72631077127E+03  0.85033415282E+03  0.00000000000E+00 0.  1.
        -11    1    3    3    0    0 -0.81070334157E+02 -0.98640364885E+02 -0.24639059285E+03  0.27750791864E+03  0.00000000000E+00 0. -1.
         22    1    1    2    0    0  0.22405604259E+03  0.51708501138E+03 -0.75199805092E+03  0.93972287820E+03  0.00000000000E+00 0.  1.
<mgrwt>
<rscale>  0 0.11402792E+04</rscale>
<asrwt>0</asrwt>
<pdfrwt beam="1">  1        2 0.29171264E+00 0.11402792E+04</pdfrwt>
<pdfrwt beam="2">  1       -2 0.26374272E-01 0.11402792E+04</pdfrwt>
<totfact> 0.98452200E+01</totfact>
</mgrwt>
</event>
<event>
 6    1  0.5196787E-004  0.9011662E+03  0.7818608E-02  0.9424125E-01
         -2   -1    0    0    0  501 -0.00000000000E+00  0.00000000000E+00  0.12608810121E+03  0.12608810121E+03  0.00000000000E+00 0.  1.
          2   -1    0    0  501    0  0.00000000000E+00 -0.00000000000E+00 -0.16101847776E+04  0.16101847776E+04  0.00000000000E+00 0. -1.
         23    2    1    2    0    0  0.75248062152E+02 -0.77924869749E+01 -0.15964410084E+04  0.16008319593E+04  0.91192515919E+02 0.  0.
         13    1    3    3    0    0  0.65310476069E+02  0.82895279849E+01 -0.51063808309E+03  0.51486447388E+03  0.00000000000E+00 0. -1.
        -13    1    3    3    0    0  0.99375860832E+01 -0.16082014960E+02 -0.10858029253E+04  0.10859674855E+04  0.00000000000E+00 0.  1.
         22    1    1    2    0    0 -0.75248062152E+02  0.77924869749E+01  0.11234433207E+03  0.13544091944E+03  0.00000000000E+00 0.  1.
<mgrwt>
<rscale>  0 0.90116622E+03</rscale>
<asrwt>0</asrwt>
<pdfrwt beam="1">  1        2 0.24772073E+00 0.90116622E+03</pdfrwt>
<pdfrwt beam="2">  1       -2 0.19398170E-01 0.90116622E+03</pdfrwt>
<totfact> 0.24912748E+02</totfact>
</mgrwt>
</event>
<event>
 6    1  0.5196787E-004  0.2050808E+04  0.7818608E-02  0.8583228E-01
         -2   -1    0    0    0  501 -0.00000000000E+00  0.00000000000E+00  0.43154854328E+03  0.43154854328E+03  0.00000000000E+00 0. -1.
          2   -1    0    0  501    0  0.00000000000E+00 -0.00000000000E+00 -0.24364660213E+04  0.24364660213E+04  0.00000000000E+00 0.  1.
         23    2    1    2    0    0 -0.93979813305E+03 -0.41006801529E+02 -0.44074481597E+03  0.10427643885E+04  0.90551026569E+02 0.  0.
         13    1    3    3    0    0 -0.60525749317E+03 -0.91826017672E+01 -0.23896454191E+03  0.65078798813E+03  0.00000000000E+00 0. -1.
        -13    1    3    3    0    0 -0.33454063988E+03 -0.31824199762E+02 -0.20178027407E+03  0.39197640034E+03  0.00000000000E+00 0.  1.
         22    1    1    2    0    0  0.93979813305E+03  0.41006801529E+02 -0.15641726620E+04  0.18252501761E+04  0.00000000000E+00 0.  1.
<mgrwt>
<rscale>  0 0.20508080E+04</rscale>
<asrwt>0</asrwt>
<pdfrwt beam="1">  1        2 0.37484092E+00 0.20508080E+04</pdfrwt>
<pdfrwt beam="2">  1       -2 0.66392084E-01 0.20508080E+04</pdfrwt>
<totfact> 0.73122458E+00</totfact>
</mgrwt>
</event>
<event>
 6    1  0.5196787E-004  0.2166577E+04  0.7818608E-02  0.8532470E-01
          2   -1    0    0  501    0  0.00000000000E+00  0.00000000000E+00  0.26901822644E+04  0.26901822644E+04  0.00000000000E+00 0.  1.
         -2   -1    0    0    0  501 -0.00000000000E+00 -0.00000000000E+00 -0.43622088069E+03  0.43622088069E+03  0.00000000000E+00 0. -1.
         23    2    1    2    0    0  0.21658351686E+03 -0.36840387590E+03 -0.30394905545E+03  0.53303937378E+03  0.95478322836E+02 0.  0.
         11    1    3    3    0    0  0.15361387220E+03 -0.28972921172E+03 -0.18274129154E+03  0.37541259634E+03  0.00000000000E+00 0. -1.
        -11    1    3    3    0    0  0.62969644653E+02 -0.78674664178E+02 -0.12120776391E+03  0.15762677743E+03  0.00000000000E+00 0.  1.
         22    1    1    2    0    0 -0.21658351686E+03  0.36840387590E+03  0.25579104392E+04  0.25933637713E+04  0.00000000000E+00 0.  1.
<mgrwt>
<rscale>  0 0.21665767E+04</rscale>
<asrwt>0</asrwt>
<pdfrwt beam="1">  1        2 0.41387418E+00 0.21665767E+04</pdfrwt>
<pdfrwt beam="2">  1       -2 0.67110906E-01 0.21665767E+04</pdfrwt>
<totfact> 0.50290059E+00</totfact>
</mgrwt>
</event>
<event>
 6    1  0.5196787E-004  0.4763918E+04  0.7818608E-02  0.7865994E-01
         -2   -1    0    0    0  501 -0.00000000000E+00  0.00000000000E+00  0.14175380222E+04  0.14175380222E+04  0.00000000000E+00 0. -1.
          2   -1    0    0  501    0  0.00000000000E+00 -0.00000000000E+00 -0.40025231281E+04  0.40025231281E+04  0.00000000000E+00 0.  1.
         23    2    1    2    0    0 -0.23552778194E+04 -0.31104318537E+03 -0.11114135369E+04  0.26244405324E+04  0.91469058558E+02 0.  0.
         13    1    3    3    0    0 -0.11045125785E+04 -0.99872578408E+02 -0.51645131942E+03  0.12233742409E+04  0.00000000000E+00 0.  1.
        -13    1    3    3    0    0 -0.12507652409E+04 -0.21117060696E+03 -0.59496221747E+03  0.14010662915E+04  0.00000000000E+00 0. -1.
         22    1    1    2    0    0  0.23552778194E+04  0.31104318537E+03 -0.14735715690E+04  0.27956206178E+04  0.00000000000E+00 0.  1.
<mgrwt>
<rscale>  0 0.47639180E+04</rscale>
<asrwt>0</asrwt>
<pdfrwt beam="1">  1        2 0.61577279E+00 0.47639180E+04</pdfrwt>
<pdfrwt beam="2">  1       -2 0.21808277E+00 0.47639180E+04</pdfrwt>
<totfact> 0.25559255E-02</totfact>
</mgrwt>
</event>
<event>
 6    1  0.5196787E-004  0.4110080E+04  0.7818608E-02  0.7982701E-01
          2   -1    0    0  501    0  0.00000000000E+00  0.00000000000E+00  0.28811271736E+04  0.28811271736E+04  0.00000000000E+00 0.  1.
         -2   -1    0    0    0  501 -0.00000000000E+00 -0.00000000000E+00 -0.14658118743E+04  0.14658118743E+04  0.00000000000E+00 0. -1.
         23    2    1    2    0    0  0.14350151822E+04  0.13808852520E+04  0.17603926775E+03  0.20013223412E+04  0.90491089552E+02 0.  0.
         11    1    3    3    0    0  0.89280741239E+03  0.79817967440E+03  0.11169496294E+03  0.12027766347E+04  0.00000000000E+00 0. -1.
        -11    1    3    3    0    0  0.54220776978E+03  0.58270557764E+03  0.64344304810E+02  0.79854570651E+03  0.00000000000E+00 0.  1.
         22    1    1    2    0    0 -0.14350151822E+04 -0.13808852520E+04  0.12392760315E+04  0.23456167067E+04  0.00000000000E+00 0.  1.
<mgrwt>
<rscale>  0 0.41100805E+04</rscale>
<asrwt>0</asrwt>
<pdfrwt beam="1">  1        2 0.44325033E+00 0.41100805E+04</pdfrwt>
<pdfrwt beam="2">  1       -2 0.22550952E+00 0.41100805E+04</pdfrwt>
<totfact> 0.14713741E-01</totfact>
</mgrwt>
</event>
<event>
 6    1  0.5196787E-004  0.5052655E+03  0.7818608E-02  0.1012414E+00
          4   -1    0    0  501    0  0.00000000000E+00  0.00000000000E+00  0.10977876314E+04  0.10977876314E+04  0.00000000000E+00 0.  1.
         -4   -1    0    0    0  501 -0.00000000000E+00 -0.00000000000E+00 -0.58138116021E+02  0.58138116021E+02  0.00000000000E+00 0. -1.
         23    2    1    2    0    0  0.21548629536E+03 -0.10619640839E+03  0.64267910471E+03  0.69192410131E+03  0.89501450866E+02 0.  0.
         13    1    3    3    0    0  0.14777631496E+03 -0.52534712240E+02  0.30001287519E+03  0.33853428265E+03  0.00000000000E+00 0. -1.
        -13    1    3    3    0    0  0.67709980406E+02 -0.53661696154E+02  0.34266622952E+03  0.35338981866E+03  0.00000000000E+00 0.  1.
         22    1    1    2    0    0 -0.21548629536E+03  0.10619640839E+03  0.39697041070E+03  0.46400164614E+03  0.00000000000E+00 0. -1.
<mgrwt>
<rscale>  0 0.50526549E+03</rscale>
<asrwt>0</asrwt>
<pdfrwt beam="1">  1        4 0.16889039E+00 0.50526549E+03</pdfrwt>
<pdfrwt beam="2">  1       -4 0.89443263E-02 0.50526549E+03</pdfrwt>
<totfact> 0.40859671E+01</totfact>
</mgrwt>
</event>
<event>
 6    1  0.5196787E-004  0.4997169E+04  0.7818608E-02  0.7828944E-01
          2   -1    0    0  501    0  0.00000000000E+00  0.00000000000E+00  0.41202386952E+04  0.41202386952E+04  0.00000000000E+00 0.  1.
         -2   -1    0    0    0  501 -0.00000000000E+00 -0.00000000000E+00 -0.15151852784E+04  0.15151852784E+04  0.00000000000E+00 0. -1.
         23    2    1    2    0    0  0.19623565649E+04 -0.44686820818E+03  0.29712194713E+04  0.35897915377E+04  0.89014911758E+02 0.  0.
         13    1    3    3    0    0  0.12375902637E+04 -0.27314859824E+03  0.17951474941E+04  0.21974517840E+04  0.00000000000E+00 0. -1.
        -13    1    3    3    0    0  0.72476630120E+03 -0.17371960995E+03  0.11760719772E+04  0.13923397537E+04  0.00000000000E+00 0.  1.
         22    1    1    2    0    0 -0.19623565649E+04  0.44686820818E+03 -0.36616605439E+03  0.20456324359E+04  0.00000000000E+00 0. -1.
<mgrwt>
<rscale>  0 0.49971692E+04</rscale>
<asrwt>0</asrwt>
<pdfrwt beam="1">  1        2 0.63388287E+00 0.49971692E+04</pdfrwt>
<pdfrwt beam="2">  1       -2 0.23310543E+00 0.49971692E+04</pdfrwt>
<totfact> 0.16110715E-02</totfact>
</mgrwt>
</event>
<event>
 6    1  0.5196787E-004  0.5294155E+04  0.7818608E-02  0.7784667E-01
          2   -1    0    0  501    0  0.00000000000E+00  0.00000000000E+00  0.19484664896E+04  0.19484664896E+04  0.00000000000E+00 0.  1.
         -2   -1    0    0    0  501 -0.00000000000E+00 -0.00000000000E+00 -0.35961709942E+04  0.35961709942E+04  0.00000000000E+00 0. -1.
         23    2    1    2    0    0 -0.73331363422E+03  0.10304827067E+04 -0.32585418611E+04  0.34966041627E+04  0.92206916518E+02 0.  0.
         13    1    3    3    0    0 -0.13746326319E+03  0.22077302551E+03 -0.76672763250E+03  0.80963457187E+03  0.00000000000E+00 0. -1.
        -13    1    3    3    0    0 -0.59585037103E+03  0.80970968120E+03 -0.24918142286E+04  0.26869695909E+04  0.00000000000E+00 0.  1.
         22    1    1    2    0    0  0.73331363422E+03 -0.10304827067E+04  0.16108373565E+04  0.20480333210E+04  0.00000000000E+00 0.  1.
<mgrwt>
<rscale>  0 0.52941548E+04</rscale>
<asrwt>0</asrwt>
<pdfrwt beam="1">  1        2 0.29976408E+00 0.52941548E+04</pdfrwt>
<pdfrwt beam="2">  1       -2 0.55325707E+00 0.52941548E+04</pdfrwt>
<totfact> 0.42246239E-03</totfact>
</mgrwt>
</event>
<event>
 6    1  0.5196787E-004  0.2060687E+04  0.7818608E-02  0.8578761E-01
          2   -1    0    0  501    0  0.00000000000E+00  0.00000000000E+00  0.21177180009E+04  0.21177180009E+04  0.00000000000E+00 0.  1.
         -2   -1    0    0    0  501 -0.00000000000E+00 -0.00000000000E+00 -0.50129819639E+03  0.50129819639E+03  0.00000000000E+00 0. -1.
         23    2    1    2    0    0 -0.46895377022E+03 -0.58239659006E+02  0.19704375428E+04  0.20285603942E+04  0.95517885623E+02 0.  0.
         13    1    3    3    0    0 -0.21451927206E+03 -0.41963216222E+02  0.11021073425E+04  0.11235746633E+04  0.00000000000E+00 0. -1.
        -13    1    3    3    0    0 -0.25443449817E+03 -0.16276442784E+02  0.86833020027E+03  0.90498573091E+03  0.00000000000E+00 0.  1.
         22    1    1    2    0    0  0.46895377022E+03  0.58239659006E+02 -0.35401773822E+03  0.59045580314E+03  0.00000000000E+00 0. -1.
<mgrwt>
<rscale>  0 0.20606875E+04</rscale>
<asrwt>0</asrwt>
<pdfrwt beam="1">  1        2 0.32580276E+00 0.20606875E+04</pdfrwt>
<pdfrwt beam="2">  1       -2 0.77122801E-01 0.20606875E+04</pdfrwt>
<totfact> 0.79671438E+00</totfact>
</mgrwt>
</event>
<event>
 6    1  0.5196787E-004  0.3330034E+04  0.7818608E-02  0.8155295E-01
          2   -1    0    0  501    0  0.00000000000E+00  0.00000000000E+00  0.96226130664E+03  0.96226130664E+03  0.00000000000E+00 0.  1.
         -2   -1    0    0    0  501 -0.00000000000E+00 -0.00000000000E+00 -0.28810070244E+04  0.28810070244E+04  0.00000000000E+00 0. -1.
         23    2    1    2    0    0 -0.15302144264E+04 -0.53931587257E+03 -0.53496612334E+03  0.17108369096E+04  0.91413220578E+02 0.  0.
         11    1    3    3    0    0 -0.36167688577E+03 -0.13055488277E+03 -0.86391777864E+02  0.39410441053E+03  0.00000000000E+00 0. -1.
        -11    1    3    3    0    0 -0.11685375407E+04 -0.40876098980E+03 -0.44857434548E+03  0.13167324991E+04  0.00000000000E+00 0.  1.
         22    1    1    2    0    0  0.15302144264E+04  0.53931587257E+03 -0.13837795944E+04  0.21324314215E+04  0.00000000000E+00 0.  1.
<mgrwt>
<rscale>  0 0.33300340E+04</rscale>
<asrwt>0</asrwt>
<pdfrwt beam="1">  1        2 0.14804020E+00 0.33300340E+04</pdfrwt>
<pdfrwt beam="2">  1       -2 0.44323185E+00 0.33300340E+04</pdfrwt>
<totfact> 0.85330421E-02</totfact>
</mgrwt>
</event>
<event>
 6    1  0.5196787E-004  0.6083716E+03  0.7818608E-02  0.9888188E-01
         -2   -1    0    0    0  501 -0.00000000000E+00  0.00000000000E+00  0.73489237521E+02  0.73489237521E+02  0.00000000000E+00 0. -1.
          2   -1    0    0  501    0  0.00000000000E+00 -0.00000000000E+00 -0.12590823762E+04  0.12590823762E+04  0.00000000000E+00 0.  1.
         23    2    1    2    0    0  0.54954790628E+02  0.18792963960E+03 -0.10962104292E+04  0.11173348901E+04  0.91773487650E+02 0.  0.
         11    1    3    3    0    0  0.23263140459E+02  0.17090594782E+03 -0.99686097668E+03  0.10116727848E+04  0.00000000000E+00 0.  1.
        -11    1    3    3    0    0  0.31691650170E+02  0.17023691780E+02 -0.99349452552E+02  0.10566210529E+03  0.00000000000E+00 0. -1.
         22    1    1    2    0    0 -0.54954790628E+02 -0.18792963960E+03 -0.89382709480E+02  0.21523672365E+03  0.00000000000E+00 0. -1.
<mgrwt>
<rscale>  0 0.60837161E+03</rscale>
<asrwt>0</asrwt>
<pdfrwt beam="1">  1        2 0.19370496E+00 0.60837161E+03</pdfrwt>
<pdfrwt beam="2">  1       -2 0.11306038E-01 0.60837161E+03</pdfrwt>
<totfact> 0.99357575E+02</totfact>
</mgrwt>
</event>
<event>
 6    1  0.5196787E-004  0.1702840E+04  0.7818608E-02  0.8759746E-01
         -2   -1    0    0    0  501 -0.00000000000E+00  0.00000000000E+00  0.33988212208E+03  0.33988212208E+03  0.00000000000E+00 0. -1.
          2   -1    0    0  501    0  0.00000000000E+00 -0.00000000000E+00 -0.21328454186E+04  0.21328454186E+04  0.00000000000E+00 0.  1.
         23    2    1    2    0    0  0.79856760904E+03 -0.18090115215E+03 -0.57336178565E+03  0.10037607955E+04  0.91414136264E+02 0.  0.
         13    1    3    3    0    0  0.59836020651E+03 -0.15061255378E+03 -0.47481314317E+03  0.77856701640E+03  0.00000000000E+00 0. -1.
        -13    1    3    3    0    0  0.20020740253E+03 -0.30288598374E+02 -0.98548642479E+02  0.22519377912E+03  0.00000000000E+00 0.  1.
         22    1    1    2    0    0 -0.79856760904E+03  0.18090115215E+03 -0.12196015109E+04  0.14689667452E+04  0.00000000000E+00 0.  1.
<mgrwt>
<rscale>  0 0.17028400E+04</rscale>
<asrwt>0</asrwt>
<pdfrwt beam="1">  1        2 0.32813007E+00 0.17028400E+04</pdfrwt>
<pdfrwt beam="2">  1       -2 0.52289556E-01 0.17028400E+04</pdfrwt>
<totfact> 0.18503281E+01</totfact>
</mgrwt>
</event>
<event>
 6    1  0.5196787E-004  0.1990857E+04  0.7818608E-02  0.8610907E-01
         -2   -1    0    0    0  501 -0.00000000000E+00  0.00000000000E+00  0.10658823470E+04  0.10658823470E+04  0.00000000000E+00 0. -1.
          2   -1    0    0  501    0  0.00000000000E+00 -0.00000000000E+00 -0.92963161510E+03  0.92963161510E+03  0.00000000000E+00 0.  1.
         23    2    1    2    0    0 -0.76586795984E+03  0.61331576367E+03 -0.86948390564E+02  0.98926955537E+03  0.91565674073E+02 0.  0.
         13    1    3    3    0    0 -0.48451274684E+03  0.33432557854E+03 -0.35771021167E+02  0.58975059158E+03  0.00000000000E+00 0. -1.
        -13    1    3    3    0    0 -0.28135521300E+03  0.27899018513E+03 -0.51177369397E+02  0.39951896378E+03  0.00000000000E+00 0.  1.
         22    1    1    2    0    0  0.76586795984E+03 -0.61331576367E+03  0.22319912252E+03  0.10062444068E+04  0.00000000000E+00 0.  1.
<mgrwt>
<rscale>  0 0.19908570E+04</rscale>
<asrwt>0</asrwt>
<pdfrwt beam="1">  1        2 0.14302025E+00 0.19908570E+04</pdfrwt>
<pdfrwt beam="2">  1       -2 0.16398190E+00 0.19908570E+04</pdfrwt>
<totfact> 0.61306742E+00</totfact>
</mgrwt>
</event>
<event>
 6    1  0.5196787E-004  0.4193841E+04  0.7818608E-02  0.7966545E-01
          2   -1    0    0  501    0  0.00000000000E+00  0.00000000000E+00  0.17068380810E+04  0.17068380810E+04  0.00000000000E+00 0.  1.
         -2   -1    0    0    0  501 -0.00000000000E+00 -0.00000000000E+00 -0.25761526093E+04  0.25761526093E+04  0.00000000000E+00 0. -1.
         23    2    1    2    0    0  0.90971702504E+03 -0.12355287110E+03  0.14889915577E+04  0.17522876314E+04  0.10278962283E+03 0.  0.
         11    1    3    3    0    0  0.41952315421E+03 -0.11702010282E+02  0.72435307406E+03  0.83715230983E+03  0.00000000000E+00 0. -1.
        -11    1    3    3    0    0  0.49019387083E+03 -0.11185086082E+03  0.76463848364E+03  0.91513532153E+03  0.00000000000E+00 0.  1.
         22    1    1    2    0    0 -0.90971702504E+03  0.12355287110E+03 -0.23583060860E+04  0.25307030590E+04  0.00000000000E+00 0. -1.
<mgrwt>
<rscale>  0 0.41938409E+04</rscale>
<asrwt>0</asrwt>
<pdfrwt beam="1">  1        2 0.26259048E+00 0.41938409E+04</pdfrwt>
<pdfrwt beam="2">  1       -2 0.39633117E+00 0.41938409E+04</pdfrwt>
<totfact> 0.59204780E-02</totfact>
</mgrwt>
</event>
<event>
 6    1  0.5196787E-004  0.3573717E+04  0.7818608E-02  0.8096539E-01
         -2   -1    0    0    0  501 -0.00000000000E+00  0.00000000000E+00  0.24512408682E+04  0.24512408682E+04  0.00000000000E+00 0. -1.
          2   -1    0    0  501    0  0.00000000000E+00 -0.00000000000E+00 -0.13025497443E+04  0.13025497443E+04  0.00000000000E+00 0.  1.
         23    2    1    2    0    0  0.27306351599E+03 -0.17270303531E+04  0.95706493973E+03  0.19948369124E+04  0.78762198238E+02 0.  0.
         11    1    3    3    0    0  0.27501676621E+02 -0.37772683943E+03  0.21415276443E+03  0.43508081314E+03  0.00000000000E+00 0.  1.
        -11    1    3    3    0    0  0.24556183937E+03 -0.13493035137E+04  0.74291217530E+03  0.15597560993E+04  0.00000000000E+00 0. -1.
         22    1    1    2    0    0 -0.27306351599E+03  0.17270303531E+04  0.19162618419E+03  0.17589537001E+04  0.00000000000E+00 0. -1.
<mgrwt>
<rscale>  0 0.35737169E+04</rscale>
<asrwt>0</asrwt>
<pdfrwt beam="1">  1        2 0.20039227E+00 0.35737169E+04</pdfrwt>
<pdfrwt beam="2">  1       -2 0.37711398E+00 0.35737169E+04</pdfrwt>
<totfact> 0.14053628E-01</totfact>
</mgrwt>
</event>
<event>
 6    1  0.5196787E-004  0.1635435E+04  0.7818608E-02  0.8799070E-01
          2   -1    0    0  501    0  0.00000000000E+00  0.00000000000E+00  0.14325402085E+04  0.14325402085E+04  0.00000000000E+00 0. -1.
         -2   -1    0    0    0  501 -0.00000000000E+00 -0.00000000000E+00 -0.46676655698E+03  0.46676655698E+03  0.00000000000E+00 0.  1.
         23    2    1    2    0    0 -0.26804381601E+03  0.73805815041E+03  0.23038646122E+03  0.82349468135E+03  0.92131688413E+02 0.  0.
         13    1    3    3    0    0 -0.90878541266E+02  0.33722850480E+03  0.13855903915E+03  0.37574004450E+03  0.00000000000E+00 0. -1.
        -13    1    3    3    0    0 -0.17716527475E+03  0.40082964561E+03  0.91827422076E+02  0.44775463685E+03  0.00000000000E+00 0.  1.
         22    1    1    2    0    0  0.26804381601E+03 -0.73805815041E+03  0.73538719028E+03  0.10758120841E+04  0.00000000000E+00 0. -1.
<mgrwt>
<rscale>  0 0.16354349E+04</rscale>
<asrwt>0</asrwt>
<pdfrwt beam="1">  1        2 0.22039080E+00 0.16354349E+04</pdfrwt>
<pdfrwt beam="2">  1       -2 0.71810240E-01 0.16354349E+04</pdfrwt>
<totfact> 0.23303928E+01</totfact>
</mgrwt>
</event>
<event>
 6    1  0.5196787E-004  0.4014409E+03  0.7818608E-02  0.1043282E+00
         -4   -1    0    0    0  501 -0.00000000000E+00  0.00000000000E+00  0.26404892347E+03  0.26404892347E+03  0.00000000000E+00 0. -1.
          4   -1    0    0  501    0  0.00000000000E+00 -0.00000000000E+00 -0.15258043745E+03  0.15258043745E+03  0.00000000000E+00 0.  1.
         23    2    1    2    0    0 -0.72504016042E+02  0.17102641994E+03  0.12870500808E+02  0.20632379431E+03  0.88865008004E+02 0.  0.
         13    1    3    3    0    0  0.19341837011E+02  0.40419980117E+02  0.12997150185E+02  0.46656268223E+02  0.00000000000E+00 0.  1.
        -13    1    3    3    0    0 -0.91845853054E+02  0.13060643982E+03 -0.12664937630E+00  0.15966752609E+03  0.00000000000E+00 0. -1.
         22    1    1    2    0    0  0.72504016042E+02 -0.17102641994E+03  0.98597985214E+02  0.21030556661E+03  0.00000000000E+00 0.  1.
<mgrwt>
<rscale>  0 0.40144091E+03</rscale>
<asrwt>0</asrwt>
<pdfrwt beam="1">  1        4 0.23473913E-01 0.40144091E+03</pdfrwt>
<pdfrwt beam="2">  1       -4 0.40622911E-01 0.40144091E+03</pdfrwt>
<totfact> 0.19295797E+02</totfact>
</mgrwt>
</event>
<event>
 6    1  0.5196787E-004  0.4776691E+04  0.7818608E-02  0.7863909E-01
          2   -1    0    0  501    0  0.00000000000E+00  0.00000000000E+00  0.24511032492E+04  0.24511032492E+04  0.00000000000E+00 0.  1.
         -2   -1    0    0    0  501 -0.00000000000E+00 -0.00000000000E+00 -0.23271949374E+04  0.23271949374E+04  0.00000000000E+00 0. -1.
         23    2    1    2    0    0  0.25800622941E+03  0.13852675577E+04 -0.18659544785E+04  0.23400432072E+04  0.92101437455E+02 0.  0.
         11    1    3    3    0    0  0.19470887401E+03  0.88489693903E+03 -0.11434899730E+04  0.14589460088E+04  0.00000000000E+00 0.  1.
        -11    1    3    3    0    0  0.63297355394E+02  0.50037061867E+03 -0.72246450546E+03  0.88109719832E+03  0.00000000000E+00 0. -1.
         22    1    1    2    0    0 -0.25800622941E+03 -0.13852675577E+04  0.19898627902E+04  0.24382549794E+04  0.00000000000E+00 0.  1.
<mgrwt>
<rscale>  0 0.47766914E+04</rscale>
<asrwt>0</asrwt>
<pdfrwt beam="1">  1        2 0.37709281E+00 0.47766914E+04</pdfrwt>
<pdfrwt beam="2">  1       -2 0.35802999E+00 0.47766914E+04</pdfrwt>
<totfact> 0.38109876E-02</totfact>
</mgrwt>
</event>
<event>
 6    1  0.5196787E-004  0.1032243E+04  0.7818608E-02  0.9273871E-01
          2   -1    0    0  501    0  0.00000000000E+00  0.00000000000E+00  0.33825940079E+04  0.33825940079E+04  0.00000000000E+00 0.  1.
         -2   -1    0    0    0  501 -0.00000000000E+00 -0.00000000000E+00 -0.78750694587E+02  0.78750694587E+02  0.00000000000E+00 0. -1.
         23    2    1    2    0    0  0.28094906706E+03 -0.38455551389E+03  0.10210491482E+04  0.11294003374E+04  0.78666622842E+02 0.  0.
         13    1    3    3    0    0  0.27721907642E+03 -0.34851131701E+03  0.96281136608E+03  0.10608092576E+04  0.00000000000E+00 0. -1.
        -13    1    3    3    0    0  0.37299906400E+01 -0.36044196879E+02  0.58237782098E+02  0.68591079759E+02  0.00000000000E+00 0.  1.
         22    1    1    2    0    0 -0.28094906706E+03  0.38455551389E+03  0.22827941651E+04  0.23319443651E+04  0.00000000000E+00 0.  1.
<mgrwt>
<rscale>  0 0.10322434E+04</rscale>
<asrwt>0</asrwt>
<pdfrwt beam="1">  1        2 0.52039897E+00 0.10322434E+04</pdfrwt>
<pdfrwt beam="2">  1       -2 0.12115494E-01 0.10322434E+04</pdfrwt>
<totfact> 0.50683004E+01</totfact>
</mgrwt>
</event>
<event>
 6    1  0.5196787E-004  0.8599907E+03  0.7818608E-02  0.9477025E-01
          2   -1    0    0  501    0  0.00000000000E+00  0.00000000000E+00  0.16945560552E+04  0.16945560552E+04  0.00000000000E+00 0.  1.
         -2   -1    0    0    0  501 -0.00000000000E+00 -0.00000000000E+00 -0.10911175344E+03  0.10911175344E+03  0.00000000000E+00 0. -1.
         23    2    1    2    0    0  0.15733528779E+03  0.39142117446E+03  0.92339755318E+03  0.10186386207E+04  0.83646098470E+02 0.  0.
         11    1    3    3    0    0  0.65421594741E+02  0.21037675248E+03  0.56954886873E+03  0.61067526306E+03  0.00000000000E+00 0. -1.
        -11    1    3    3    0    0  0.91913693046E+02  0.18104442198E+03  0.35384868445E+03  0.40796335765E+03  0.00000000000E+00 0.  1.
         22    1    1    2    0    0 -0.15733528779E+03 -0.39142117446E+03  0.66204674857E+03  0.78502918793E+03  0.00000000000E+00 0. -1.
<mgrwt>
<rscale>  0 0.85999066E+03</rscale>
<asrwt>0</asrwt>
<pdfrwt beam="1">  1        2 0.26070091E+00 0.85999066E+03</pdfrwt>
<pdfrwt beam="2">  1       -2 0.16786425E-01 0.85999066E+03</pdfrwt>
<totfact> 0.28824406E+02</totfact>
</mgrwt>
</event>
<event>
 6    1  0.5196787E-004  0.2639896E+04  0.7818608E-02  0.8354774E-01
         -2   -1    0    0    0  501 -0.00000000000E+00  0.00000000000E+00  0.69606703254E+03  0.69606703254E+03  0.00000000000E+00 0. -1.
          2   -1    0    0  501    0  0.00000000000E+00 -0.00000000000E+00 -0.25030094263E+04  0.25030094263E+04  0.00000000000E+00 0.  1.
         23    2    1    2    0    0 -0.13176481085E+03  0.11810321074E+04 -0.21240926656E+03  0.12104249816E+04  0.88386285734E+02 0.  0.
         13    1    3    3    0    0 -0.41395216437E+02  0.50697576269E+03 -0.13266414109E+03  0.52567838288E+03  0.00000000000E+00 0.  1.
        -13    1    3    3    0    0 -0.90369594414E+02  0.67405634471E+03 -0.79745125475E+02  0.68474659873E+03  0.00000000000E+00 0. -1.
         22    1    1    2    0    0  0.13176481085E+03 -0.11810321074E+04 -0.15945331272E+04  0.19886514772E+04  0.00000000000E+00 0.  1.
<mgrwt>
<rscale>  0 0.26398957E+04</rscale>
<asrwt>0</asrwt>
<pdfrwt beam="1">  1        2 0.38507838E+00 0.26398957E+04</pdfrwt>
<pdfrwt beam="2">  1       -2 0.10708723E+00 0.26398957E+04</pdfrwt>
<totfact> 0.21425277E+00</totfact>
</mgrwt>
</event>
<event>
 6    1  0.5196787E-004  0.1677186E+04  0.7818608E-02  0.8774484E-01
         -2   -1    0    0    0  501 -0.00000000000E+00  0.00000000000E+00  0.33811031321E+03  0.33811031321E+03  0.00000000000E+00 0. -1.
          2   -1    0    0  501    0  0.00000000000E+00 -0.00000000000E+00 -0.20799080443E+04  0.20799080443E+04  0.00000000000E+00 0.  1.
         23    2    1    2    0    0  0.58323653279E+03 -0.44047077019E+03 -0.28803359618E+03  0.79087069596E+03  0.91289389401E+02 0.  0.
         13    1    3    3    0    0  0.34693239044E+03 -0.22745536610E+03 -0.12431349686E+03  0.43307259507E+03  0.00000000000E+00 0. -1.
        -13    1    3    3    0    0  0.23630414236E+03 -0.21301540409E+03 -0.16372009932E+03  0.35779810088E+03  0.00000000000E+00 0.  1.
         22    1    1    2    0    0 -0.58323653279E+03  0.44047077019E+03 -0.14537641349E+04  0.16271476615E+04  0.00000000000E+00 0.  1.
<mgrwt>
<rscale>  0 0.16771862E+04</rscale>
<asrwt>0</asrwt>
<pdfrwt beam="1">  1        2 0.31998585E+00 0.16771862E+04</pdfrwt>
<pdfrwt beam="2">  1       -2 0.52016972E-01 0.16771862E+04</pdfrwt>
<totfact> 0.20062233E+01</totfact>
</mgrwt>
</event>
<event>
 6    1  0.5196787E-004  0.2143398E+04  0.7818608E-02  0.8542363E-01
          2   -1    0    0  501    0  0.00000000000E+00  0.00000000000E+00  0.17259421132E+04  0.17259421132E+04  0.00000000000E+00 0.  1.
         -2   -1    0    0    0  501 -0.00000000000E+00 -0.00000000000E+00 -0.66545635349E+03  0.66545635349E+03  0.00000000000E+00 0. -1.
         23    2    1    2    0    0  0.10417557244E+04 -0.11967381197E+03  0.29585535123E+03  0.10936171013E+04  0.94292973485E+02 0.  0.
         11    1    3    3    0    0  0.58641731712E+03 -0.34317449228E+02  0.13066968237E+03  0.60177863292E+03  0.00000000000E+00 0. -1.
        -11    1    3    3    0    0  0.45533840730E+03 -0.85356362744E+02  0.16518566886E+03  0.49183846842E+03  0.00000000000E+00 0.  1.
         22    1    1    2    0    0 -0.10417557244E+04  0.11967381197E+03  0.76463040845E+03  0.12977813653E+04  0.00000000000E+00 0.  1.
<mgrwt>
<rscale>  0 0.21433984E+04</rscale>
<asrwt>0</asrwt>
<pdfrwt beam="1">  1        2 0.26552955E+00 0.21433984E+04</pdfrwt>
<pdfrwt beam="2">  1       -2 0.10237790E+00 0.21433984E+04</pdfrwt>
<totfact> 0.68038238E+00</totfact>
</mgrwt>
</event>
<event>
 6    1  0.5196787E-004  0.7776290E+03  0.7818608E-02  0.9592975E-01
          2   -1    0    0  501    0  0.00000000000E+00  0.00000000000E+00  0.18843582658E+04  0.18843582658E+04  0.00000000000E+00 0.  1.
         -2   -1    0    0    0  501 -0.00000000000E+00 -0.00000000000E+00 -0.80227159015E+02  0.80227159015E+02  0.00000000000E+00 0. -1.
         23    2    1    2    0    0  0.26048564748E+03 -0.27167922643E+03  0.10976840103E+04  0.11641293831E+04  0.92869044590E+02 0.  0.
         13    1    3    3    0    0  0.23131146035E+03 -0.19709431986E+03  0.79728268103E+03  0.85323551033E+03  0.00000000000E+00 0. -1.
        -13    1    3    3    0    0  0.29174187132E+02 -0.74584906570E+02  0.30040132930E+03  0.31089387277E+03  0.00000000000E+00 0.  1.
         22    1    1    2    0    0 -0.26048564748E+03  0.27167922643E+03  0.70644709643E+03  0.80045604169E+03  0.00000000000E+00 0.  1.
<mgrwt>
<rscale>  0 0.77762899E+03</rscale>
<asrwt>0</asrwt>
<pdfrwt beam="1">  1        2 0.28990124E+00 0.77762899E+03</pdfrwt>
<pdfrwt beam="2">  1       -2 0.12342641E-01 0.77762899E+03</pdfrwt>
<totfact> 0.38334714E+02</totfact>
</mgrwt>
</event>
<event>
 6    1  0.5196787E-004  0.3075757E+04  0.7818608E-02  0.8222423E-01
          1   -1    0    0  501    0  0.00000000000E+00  0.00000000000E+00  0.24100382851E+04  0.24100382851E+04  0.00000000000E+00 0.  1.
         -1   -1    0    0    0  501 -0.00000000000E+00 -0.00000000000E+00 -0.98134120528E+03  0.98134120528E+03  0.00000000000E+00 0. -1.
         23    2    1    2    0    0 -0.58138400684E+03  0.13787489306E+04  0.32974288064E+03  0.15348622378E+04  0.90087428392E+02 0.  0.
         13    1    3    3    0    0 -0.12212022738E+03  0.21963678128E+03  0.35155240461E+02  0.25375097351E+03  0.00000000000E+00 0. -1.
        -13    1    3    3    0    0 -0.45926377946E+03  0.11591121493E+04  0.29458764018E+03  0.12811112643E+04  0.00000000000E+00 0.  1.
         22    1    1    2    0    0  0.58138400684E+03 -0.13787489306E+04  0.10989541992E+04  0.18565172525E+04  0.00000000000E+00 0.  1.
<mgrwt>
<rscale>  0 0.30757567E+04</rscale>
<asrwt>0</asrwt>
<pdfrwt beam="1">  1        1 0.37077512E+00 0.30757567E+04</pdfrwt>
<pdfrwt beam="2">  1       -1 0.15097557E+00 0.30757567E+04</pdfrwt>
<totfact> 0.45313748E-01</totfact>
</mgrwt>
</event>
<event>
 6    1  0.5196787E-004  0.1259926E+04  0.7818608E-02  0.9061962E-01
         -2   -1    0    0    0  501 -0.00000000000E+00  0.00000000000E+00  0.27273808606E+03  0.27273808606E+03  0.00000000000E+00 0. -1.
          2   -1    0    0  501    0  0.00000000000E+00 -0.00000000000E+00 -0.14550711738E+04  0.14550711738E+04  0.00000000000E+00 0.  1.
         23    2    1    2    0    0  0.12845080462E+03  0.49432299583E+03 -0.10918798716E+04  0.12091218610E+04  0.94441448988E+02 0.  0.
         11    1    3    3    0    0  0.73410375111E+02  0.27711271087E+03 -0.71971858164E+03  0.77470986469E+03  0.00000000000E+00 0. -1.
        -11    1    3    3    0    0  0.55040429509E+02  0.21721028497E+03 -0.37216128997E+03  0.43441199630E+03  0.00000000000E+00 0.  1.
         22    1    1    2    0    0 -0.12845080462E+03 -0.49432299583E+03 -0.90453216098E+02  0.51868739884E+03  0.00000000000E+00 0. -1.
<mgrwt>
<rscale>  0 0.12599259E+04</rscale>
<asrwt>0</asrwt>
<pdfrwt beam="1">  1        2 0.22385710E+00 0.12599259E+04</pdfrwt>
<pdfrwt beam="2">  1       -2 0.41959706E-01 0.12599259E+04</pdfrwt>
<totfact> 0.71177464E+01</totfact>
</mgrwt>
</event>
<event>
 6    1  0.5196787E-004  0.1460237E+04  0.7818608E-02  0.8911334E-01
          2   -1    0    0  501    0  0.00000000000E+00  0.00000000000E+00  0.23583811792E+04  0.23583811792E+04  0.00000000000E+00 0.  1.
         -2   -1    0    0    0  501 -0.00000000000E+00 -0.00000000000E+00 -0.22603348351E+03  0.22603348351E+03  0.00000000000E+00 0. -1.
         23    2    1    2    0    0 -0.62999675203E+03 -0.24606477003E+03  0.15438995060E+04  0.16879131007E+04  0.89337408425E+02 0.  0.
         11    1    3    3    0    0 -0.30672694591E+03 -0.11751322656E+03  0.86050513595E+03  0.92106452910E+03  0.00000000000E+00 0.  1.
        -11    1    3    3    0    0 -0.32326980612E+03 -0.12855154347E+03  0.68339437001E+03  0.76684857165E+03  0.00000000000E+00 0. -1.
         22    1    1    2    0    0  0.62999675203E+03  0.24606477003E+03  0.58844818974E+03  0.89650156198E+03  0.00000000000E+00 0. -1.
<mgrwt>
<rscale>  0 0.14602371E+04</rscale>
<asrwt>0</asrwt>
<pdfrwt beam="1">  1        2 0.36282786E+00 0.14602371E+04</pdfrwt>
<pdfrwt beam="2">  1       -2 0.34774384E-01 0.14602371E+04</pdfrwt>
<totfact> 0.31632531E+01</totfact>
</mgrwt>
</event>
<event>
 6    1  0.5196787E-004  0.2375053E+04  0.7818608E-02  0.8448903E-01
         -2   -1    0    0    0  501 -0.00000000000E+00  0.00000000000E+00  0.48283958762E+03  0.48283958762E+03  0.00000000000E+00 0. -1.
          2   -1    0    0  501    0  0.00000000000E+00 -0.00000000000E+00 -0.29206783112E+04  0.29206783112E+04  0.00000000000E+00 0.  1.
         23    2    1    2    0    0 -0.10575463408E+02 -0.11041945153E+04 -0.60109931598E+03  0.12603965725E+04  0.89004293221E+02 0.  0.
         11    1    3    3    0    0  0.30804117391E+02 -0.41342771101E+03 -0.25431432301E+03  0.48636112177E+03  0.00000000000E+00 0.  1.
        -11    1    3    3    0    0 -0.41379580799E+02 -0.69076680428E+03 -0.34678499297E+03  0.77403545071E+03  0.00000000000E+00 0. -1.
         22    1    1    2    0    0  0.10575463408E+02  0.11041945153E+04 -0.18367394076E+04  0.21431213263E+04  0.00000000000E+00 0.  1.
<mgrwt>
<rscale>  0 0.23750529E+04</rscale>
<asrwt>0</asrwt>
<pdfrwt beam="1">  1        2 0.44933512E+00 0.23750529E+04</pdfrwt>
<pdfrwt beam="2">  1       -2 0.74283015E-01 0.23750529E+04</pdfrwt>
<totfact> 0.28685451E+00</totfact>
</mgrwt>
</event>
<event>
 6    1  0.5196787E-004  0.9129478E+03  0.7818608E-02  0.9409539E-01
          2   -1    0    0  501    0  0.00000000000E+00  0.00000000000E+00  0.32485764972E+04  0.32485764972E+04  0.00000000000E+00 0.  1.
         -2   -1    0    0    0  501 -0.00000000000E+00 -0.00000000000E+00 -0.64141459989E+02  0.64141459989E+02  0.00000000000E+00 0. -1.
         23    2    1    2    0    0  0.19499702019E+03  0.29577671361E+03  0.26272164926E+04  0.26524148384E+04  0.86777150964E+02 0.  0.
         13    1    3    3    0    0  0.84213757465E+02  0.94671744203E+02  0.12236879482E+04  0.12302304218E+04  0.00000000000E+00 0. -1.
        -13    1    3    3    0    0  0.11078326273E+03  0.20110496940E+03  0.14035285444E+04  0.14221844167E+04  0.00000000000E+00 0.  1.
         22    1    1    2    0    0 -0.19499702019E+03 -0.29577671361E+03  0.55721854466E+03  0.66030311881E+03  0.00000000000E+00 0. -1.
<mgrwt>
<rscale>  0 0.91294784E+03</rscale>
<asrwt>0</asrwt>
<pdfrwt beam="1">  1        2 0.49978087E+00 0.91294784E+03</pdfrwt>
<pdfrwt beam="2">  1       -2 0.98679194E-02 0.91294784E+03</pdfrwt>
<totfact> 0.88223458E+01</totfact>
</mgrwt>
</event>
<event>
 6    1  0.5196787E-004  0.1752490E+04  0.7818608E-02  0.8731981E-01
         -2   -1    0    0    0  501 -0.00000000000E+00  0.00000000000E+00  0.14631379361E+04  0.14631379361E+04  0.00000000000E+00 0. -1.
          2   -1    0    0  501    0  0.00000000000E+00 -0.00000000000E+00 -0.52476627357E+03  0.52476627357E+03  0.00000000000E+00 0.  1.
         23    2    1    2    0    0 -0.43351989731E+03  0.48932192047E+03 -0.18737164241E+03  0.68610797683E+03  0.90887734427E+02 0.  0.
         13    1    3    3    0    0 -0.27570806055E+03  0.24563754128E+03 -0.11740084506E+03  0.38747347620E+03  0.00000000000E+00 0.  1.
        -13    1    3    3    0    0 -0.15781183676E+03  0.24368437919E+03 -0.69970797356E+02  0.29863450063E+03  0.00000000000E+00 0. -1.
         22    1    1    2    0    0  0.43351989731E+03 -0.48932192047E+03  0.11257433050E+04  0.13017962329E+04  0.00000000000E+00 0. -1.
<mgrwt>
<rscale>  0 0.17524902E+04</rscale>
<asrwt>0</asrwt>
<pdfrwt beam="1">  1        2 0.80733273E-01 0.17524902E+04</pdfrwt>
<pdfrwt beam="2">  1       -2 0.22509814E+00 0.17524902E+04</pdfrwt>
<totfact> 0.50577591E+00</totfact>
</mgrwt>
</event>
<event>
 6    1  0.5196787E-004  0.4893161E+04  0.7818608E-02  0.7845203E-01
         -2   -1    0    0    0  501 -0.00000000000E+00  0.00000000000E+00  0.23706101222E+04  0.23706101222E+04  0.00000000000E+00 0. -1.
          2   -1    0    0  501    0  0.00000000000E+00 -0.00000000000E+00 -0.25249853529E+04  0.25249853529E+04  0.00000000000E+00 0.  1.
         23    2    1    2    0    0 -0.16731558380E+04 -0.54581248095E+03 -0.17762778173E+04  0.25022861087E+04  0.94398957098E+02 0.  0.
         11    1    3    3    0    0 -0.53460153041E+03 -0.22100271321E+03 -0.58170194077E+03  0.82037683016E+03  0.00000000000E+00 0. -1.
        -11    1    3    3    0    0 -0.11385543076E+04 -0.32480976774E+03 -0.11945758765E+04  0.16819092786E+04  0.00000000000E+00 0.  1.
         22    1    1    2    0    0  0.16731558380E+04  0.54581248095E+03  0.16219025866E+04  0.23933093663E+04  0.00000000000E+00 0. -1.
<mgrwt>
<rscale>  0 0.48931609E+04</rscale>
<asrwt>0</asrwt>
<pdfrwt beam="1">  1        2 0.38845928E+00 0.48931609E+04</pdfrwt>
<pdfrwt beam="2">  1       -2 0.36470925E+00 0.48931609E+04</pdfrwt>
<totfact> 0.31027105E-02</totfact>
</mgrwt>
</event>
<event>
 6    1  0.5196787E-004  0.2146908E+04  0.7818608E-02  0.8540857E-01
         -2   -1    0    0    0  501 -0.00000000000E+00  0.00000000000E+00  0.66456548503E+03  0.66456548503E+03  0.00000000000E+00 0. -1.
          2   -1    0    0  501    0  0.00000000000E+00 -0.00000000000E+00 -0.17339203229E+04  0.17339203229E+04  0.00000000000E+00 0.  1.
         23    2    1    2    0    0 -0.46502439333E+03 -0.84355750593E+03 -0.12285177124E+02  0.96836930223E+03  0.98748304974E+02 0.  0.
         11    1    3    3    0    0 -0.40833657394E+02 -0.82097194665E+02  0.27778977791E+02  0.95807142506E+02  0.00000000000E+00 0.  1.
        -11    1    3    3    0    0 -0.42419073593E+03 -0.76146031126E+03 -0.40064154915E+02  0.87256215973E+03  0.00000000000E+00 0. -1.
         22    1    1    2    0    0  0.46502439333E+03  0.84355750593E+03 -0.10570696607E+04  0.14301165057E+04  0.00000000000E+00 0.  1.
<mgrwt>
<rscale>  0 0.21469081E+04</rscale>
<asrwt>0</asrwt>
<pdfrwt beam="1">  1        2 0.26675697E+00 0.21469081E+04</pdfrwt>
<pdfrwt beam="2">  1       -2 0.10224085E+00 0.21469081E+04</pdfrwt>
<totfact> 0.67543091E+00</totfact>
</mgrwt>
</event>
<event>
 6    1  0.5196787E-004  0.1122178E+04  0.7818608E-02  0.9183842E-01
          2   -1    0    0  501    0  0.00000000000E+00  0.00000000000E+00  0.65976200187E+03  0.65976200187E+03  0.00000000000E+00 0.  1.
         -2   -1    0    0    0  501 -0.00000000000E+00 -0.00000000000E+00 -0.47717302751E+03  0.47717302751E+03  0.00000000000E+00 0. -1.
         23    2    1    2    0    0 -0.28508860784E+03 -0.43599543089E+03  0.29196580013E+03  0.60464674275E+03  0.94795173933E+02 0.  0.
         11    1    3    3    0    0 -0.19605817378E+03 -0.34903780703E+03  0.25567848280E+03  0.47501335225E+03  0.00000000000E+00 0. -1.
        -11    1    3    3    0    0 -0.89030434061E+02 -0.86957623850E+02  0.36287317332E+02  0.12963339051E+03  0.00000000000E+00 0.  1.
         22    1    1    2    0    0  0.28508860784E+03  0.43599543089E+03 -0.10937682577E+03  0.53228828663E+03  0.00000000000E+00 0. -1.
<mgrwt>
<rscale>  0 0.11221776E+04</rscale>
<asrwt>0</asrwt>
<pdfrwt beam="1">  1        2 0.10150185E+00 0.11221776E+04</pdfrwt>
<pdfrwt beam="2">  1       -2 0.73411235E-01 0.11221776E+04</pdfrwt>
<totfact> 0.73321456E+01</totfact>
</mgrwt>
</event>
<event>
 6    1  0.5196787E-004  0.1706886E+04  0.7818608E-02  0.8757447E-01
         -2   -1    0    0    0  501 -0.00000000000E+00  0.00000000000E+00  0.25308662882E+04  0.25308662882E+04  0.00000000000E+00 0. -1.
          2   -1    0    0  501    0  0.00000000000E+00 -0.00000000000E+00 -0.28779287919E+03  0.28779287919E+03  0.00000000000E+00 0.  1.
         23    2    1    2    0    0  0.12407122101E+03 -0.83253892017E+03  0.91803073176E+03  0.12488652898E+04  0.91484240267E+02 0.  0.
         11    1    3    3    0    0  0.33849114366E+02 -0.11606262453E+03  0.93652649363E+02  0.15292846069E+03  0.00000000000E+00 0.  1.
        -11    1    3    3    0    0  0.90222106647E+02 -0.71647629564E+03  0.82437808239E+03  0.10959368291E+04  0.00000000000E+00 0. -1.
         22    1    1    2    0    0 -0.12407122101E+03  0.83253892017E+03  0.13250426773E+04  0.15697938776E+04  0.00000000000E+00 0.  1.
<mgrwt>
<rscale>  0 0.17068864E+04</rscale>
<asrwt>0</asrwt>
<pdfrwt beam="1">  1        2 0.44275829E-01 0.17068864E+04</pdfrwt>
<pdfrwt beam="2">  1       -2 0.38936403E+00 0.17068864E+04</pdfrwt>
<totfact> 0.95788158E-01</totfact>
</mgrwt>
</event>
<event>
 6    1  0.5196787E-004  0.2491865E+04  0.7818608E-02  0.8405889E-01
          2   -1    0    0  501    0  0.00000000000E+00  0.00000000000E+00  0.47847802427E+04  0.47847802427E+04  0.00000000000E+00 0.  1.
         -2   -1    0    0    0  501 -0.00000000000E+00 -0.00000000000E+00 -0.32443452147E+03  0.32443452147E+03  0.00000000000E+00 0. -1.
         23    2    1    2    0    0  0.11318357766E+04 -0.41884747668E+03  0.16121660165E+04  0.20158972790E+04  0.90978791505E+02 0.  0.
         11    1    3    3    0    0  0.78838981078E+03 -0.28091298597E+03  0.10483580204E+04  0.13414638043E+04  0.00000000000E+00 0.  1.
        -11    1    3    3    0    0  0.34344596585E+03 -0.13793449071E+03  0.56380799617E+03  0.67443347465E+03  0.00000000000E+00 0. -1.
         22    1    1    2    0    0 -0.11318357766E+04  0.41884747668E+03  0.28481797047E+04  0.30933174852E+04  0.00000000000E+00 0. -1.
<mgrwt>
<rscale>  0 0.24918651E+04</rscale>
<asrwt>0</asrwt>
<pdfrwt beam="1">  1        2 0.73611999E+00 0.24918651E+04</pdfrwt>
<pdfrwt beam="2">  1       -2 0.49913007E-01 0.24918651E+04</pdfrwt>
<totfact> 0.21158202E-01</totfact>
</mgrwt>
</event>
<event>
 6    1  0.5196787E-004  0.1913468E+04  0.7818608E-02  0.8648181E-01
         -2   -1    0    0    0  501 -0.00000000000E+00  0.00000000000E+00  0.88887431892E+03  0.88887431892E+03  0.00000000000E+00 0. -1.
          2   -1    0    0  501    0  0.00000000000E+00 -0.00000000000E+00 -0.10297746997E+04  0.10297746997E+04  0.00000000000E+00 0.  1.
         23    2    1    2    0    0 -0.29820418755E+02  0.47328767027E+03  0.76058849384E+03  0.90003590891E+03  0.81727010025E+02 0.  0.
         13    1    3    3    0    0  0.48492584283E+01  0.87368547726E+02  0.89822194692E+02  0.12539858491E+03  0.00000000000E+00 0. -1.
        -13    1    3    3    0    0 -0.34669677183E+02  0.38591912255E+03  0.67076629914E+03  0.77463732400E+03  0.00000000000E+00 0.  1.
         22    1    1    2    0    0  0.29820418755E+02 -0.47328767027E+03 -0.90148887461E+03  0.10186131097E+04  0.00000000000E+00 0.  1.
<mgrwt>
<rscale>  0 0.19134684E+04</rscale>
<asrwt>0</asrwt>
<pdfrwt beam="1">  1        2 0.15842688E+00 0.19134684E+04</pdfrwt>
<pdfrwt beam="2">  1       -2 0.13674990E+00 0.19134684E+04</pdfrwt>
<totfact> 0.86091709E+00</totfact>
</mgrwt>
</event>
<event>
 6    1  0.5196787E-004  0.4764449E+04  0.7818608E-02  0.7865907E-01
         -2   -1    0    0    0  501 -0.00000000000E+00  0.00000000000E+00  0.27767788418E+04  0.27767788418E+04  0.00000000000E+00 0. -1.
          2   -1    0    0  501    0  0.00000000000E+00 -0.00000000000E+00 -0.20437323963E+04  0.20437323963E+04  0.00000000000E+00 0.  1.
         23    2    1    2    0    0  0.81530251392E+02  0.22679697958E+04 -0.36315396549E+03  0.23001958774E+04  0.93199222464E+02 0.  0.
         11    1    3    3    0    0  0.65573757999E+02  0.17834328279E+04 -0.24673022567E+03  0.18016127147E+04  0.00000000000E+00 0. -1.
        -11    1    3    3    0    0  0.15956493393E+02  0.48453696784E+03 -0.11642373981E+03  0.49858316265E+03  0.00000000000E+00 0.  1.
         22    1    1    2    0    0 -0.81530251392E+02 -0.22679697958E+04  0.10962004110E+04  0.25203153607E+04  0.00000000000E+00 0. -1.
<mgrwt>
<rscale>  0 0.47644487E+04</rscale>
<asrwt>0</asrwt>
<pdfrwt beam="1">  1        2 0.31442037E+00 0.47644487E+04</pdfrwt>
<pdfrwt beam="2">  1       -2 0.42719675E+00 0.47644487E+04</pdfrwt>
<totfact> 0.23050241E-02</totfact>
</mgrwt>
</event>
<event>
 6    1  0.5196787E-004  0.2071308E+04  0.7818608E-02  0.8573989E-01
         -1   -1    0    0    0  501 -0.00000000000E+00  0.00000000000E+00  0.14066306058E+04  0.14066306058E+04  0.00000000000E+00 0. -1.
          1   -1    0    0  501    0  0.00000000000E+00 -0.00000000000E+00 -0.76251667500E+03  0.76251667500E+03  0.00000000000E+00 0.  1.
         23    2    1    2    0    0  0.40715545243E+03 -0.34000764272E+03 -0.60636603205E+03  0.81080973180E+03  0.91388712598E+02 0.  0.
         11    1    3    3    0    0  0.19982958216E+03 -0.14161301232E+03 -0.34188024295E+03  0.42055702073E+03  0.00000000000E+00 0. -1.
        -11    1    3    3    0    0  0.20732587027E+03 -0.19839463041E+03 -0.26448578910E+03  0.39025271107E+03  0.00000000000E+00 0.  1.
         22    1    1    2    0    0 -0.40715545243E+03  0.34000764272E+03  0.12504799628E+04  0.13583375490E+04  0.00000000000E+00 0. -1.
<mgrwt>
<rscale>  0 0.20713081E+04</rscale>
<asrwt>0</asrwt>
<pdfrwt beam="1">  1        1 0.11731026E+00 0.20713081E+04</pdfrwt>
<pdfrwt beam="2">  1       -1 0.21640471E+00 0.20713081E+04</pdfrwt>
<totfact> 0.25596107E+00</totfact>
</mgrwt>
</event>
<event>
 6    1  0.5196787E-004  0.3713557E+04  0.7818608E-02  0.8064964E-01
         -2   -1    0    0    0  501 -0.00000000000E+00  0.00000000000E+00  0.11548055654E+04  0.11548055654E+04  0.00000000000E+00 0.  1.
          2   -1    0    0  501    0  0.00000000000E+00 -0.00000000000E+00 -0.29854607066E+04  0.29854607066E+04  0.00000000000E+00 0. -1.
         23    2    1    2    0    0 -0.76022352325E+03  0.60937560995E+03  0.84476897089E+03  0.12929565560E+04  0.93934031880E+02 0.  0.
         13    1    3    3    0    0 -0.51947187536E+03  0.40388112375E+03  0.62578462304E+03  0.90806243499E+03  0.00000000000E+00 0. -1.
        -13    1    3    3    0    0 -0.24075164789E+03  0.20549448619E+03  0.21898434785E+03  0.38489412106E+03  0.00000000000E+00 0.  1.
         22    1    1    2    0    0  0.76022352325E+03 -0.60937560995E+03 -0.26754241121E+04  0.28473097160E+04  0.00000000000E+00 0. -1.
<mgrwt>
<rscale>  0 0.37135571E+04</rscale>
<asrwt>0</asrwt>
<pdfrwt beam="1">  1        2 0.45930165E+00 0.37135571E+04</pdfrwt>
<pdfrwt beam="2">  1       -2 0.17766239E+00 0.37135571E+04</pdfrwt>
<totfact> 0.27008482E-01</totfact>
</mgrwt>
</event>
<event>
 6    1  0.5196787E-004  0.2713983E+04  0.7818608E-02  0.8330482E-01
         -2   -1    0    0    0  501 -0.00000000000E+00  0.00000000000E+00  0.23534366455E+04  0.23534366455E+04  0.00000000000E+00 0. -1.
          2   -1    0    0  501    0  0.00000000000E+00 -0.00000000000E+00 -0.78244127629E+03  0.78244127629E+03  0.00000000000E+00 0.  1.
         23    2    1    2    0    0 -0.64900783952E+03  0.74025206157E+03 -0.29057047006E+03  0.10300261548E+04  0.85664410222E+02 0.  0.
         11    1    3    3    0    0 -0.18078196519E+03  0.25963579428E+03 -0.11285710083E+03  0.33590116078E+03  0.00000000000E+00 0.  1.
        -11    1    3    3    0    0 -0.46822587433E+03  0.48061626729E+03 -0.17771336923E+03  0.69412499406E+03  0.00000000000E+00 0. -1.
         22    1    1    2    0    0  0.64900783952E+03 -0.74025206157E+03  0.18615658392E+04  0.21058517669E+04  0.00000000000E+00 0. -1.
<mgrwt>
<rscale>  0 0.27139830E+04</rscale>
<asrwt>0</asrwt>
<pdfrwt beam="1">  1        2 0.12037558E+00 0.27139830E+04</pdfrwt>
<pdfrwt beam="2">  1       -2 0.36206717E+00 0.27139830E+04</pdfrwt>
<totfact> 0.40559135E-01</totfact>
</mgrwt>
</event>
<event>
 6    1  0.5196787E-004  0.1504043E+04  0.7818608E-02  0.8881769E-01
          2   -1    0    0  501    0  0.00000000000E+00  0.00000000000E+00  0.63035338457E+03  0.63035338457E+03  0.00000000000E+00 0.  1.
         -2   -1    0    0    0  501 -0.00000000000E+00 -0.00000000000E+00 -0.89717347124E+03  0.89717347124E+03  0.00000000000E+00 0. -1.
         23    2    1    2    0    0 -0.73356131051E+03 -0.97152799540E+02 -0.25355282052E+03  0.78744112896E+03  0.90684265661E+02 0.  0.
         13    1    3    3    0    0 -0.33323014530E+03 -0.77612122996E+02 -0.14924604705E+03  0.37328320874E+03  0.00000000000E+00 0.  1.
        -13    1    3    3    0    0 -0.40033116522E+03 -0.19540676545E+02 -0.10430677348E+03  0.41415792021E+03  0.00000000000E+00 0. -1.
         22    1    1    2    0    0  0.73356131051E+03  0.97152799540E+02 -0.13267266144E+02  0.74008572685E+03  0.00000000000E+00 0. -1.
<mgrwt>
<rscale>  0 0.15040430E+04</rscale>
<asrwt>0</asrwt>
<pdfrwt beam="1">  1        2 0.96977445E-01 0.15040430E+04</pdfrwt>
<pdfrwt beam="2">  1       -2 0.13802669E+00 0.15040430E+04</pdfrwt>
<totfact> 0.16799546E+01</totfact>
</mgrwt>
</event>
<event>
 6    1  0.5196787E-004  0.9422869E+04  0.7818608E-02  0.7368855E-01
         -1   -1    0    0    0  501 -0.00000000000E+00  0.00000000000E+00  0.52933150986E+04  0.52933150986E+04  0.00000000000E+00 0. -1.
          1   -1    0    0  501    0  0.00000000000E+00 -0.00000000000E+00 -0.41935181890E+04  0.41935181890E+04  0.00000000000E+00 0.  1.
         23    2    1    2    0    0  0.15292723949E+03 -0.44628187569E+04  0.20611952059E+04  0.49190740249E+04  0.92874047754E+02 0.  0.
         11    1    3    3    0    0  0.11487300584E+03 -0.22773928697E+04  0.10835651234E+04  0.25246440277E+04  0.00000000000E+00 0. -1.
        -11    1    3    3    0    0  0.38054233645E+02 -0.21854258872E+04  0.97763008253E+03  0.23944299972E+04  0.00000000000E+00 0.  1.
         22    1    1    2    0    0 -0.15292723949E+03  0.44628187569E+04 -0.96139829631E+03  0.45677592626E+04  0.00000000000E+00 0.  1.
<mgrwt>
<rscale>  0 0.94228686E+04</rscale>
<asrwt>0</asrwt>
<pdfrwt beam="1">  1        1 0.64515664E+00 0.94228686E+04</pdfrwt>
<pdfrwt beam="2">  1       -1 0.81435617E+00 0.94228686E+04</pdfrwt>
<totfact> 0.18921839E-06</totfact>
</mgrwt>
</event>
<event>
 6    1  0.5196787E-004  0.2842520E+04  0.7818608E-02  0.8290188E-01
          2   -1    0    0  501    0  0.00000000000E+00  0.00000000000E+00  0.19139275249E+04  0.19139275249E+04  0.00000000000E+00 0.  1.
         -2   -1    0    0    0  501 -0.00000000000E+00 -0.00000000000E+00 -0.10554111062E+04  0.10554111062E+04  0.00000000000E+00 0. -1.
         23    2    1    2    0    0  0.31412395453E+03  0.10490110840E+04  0.13736205159E+04  0.17592021330E+04  0.94131344592E+02 0.  0.
         11    1    3    3    0    0  0.12861949588E+03  0.45379045156E+03  0.66607198903E+03  0.81616214273E+03  0.00000000000E+00 0. -1.
        -11    1    3    3    0    0  0.18550445864E+03  0.59522063244E+03  0.70754852685E+03  0.94303999030E+03  0.00000000000E+00 0.  1.
         22    1    1    2    0    0 -0.31412395453E+03 -0.10490110840E+04 -0.51510409715E+03  0.12101364981E+04  0.00000000000E+00 0. -1.
<mgrwt>
<rscale>  0 0.28425203E+04</rscale>
<asrwt>0</asrwt>
<pdfrwt beam="1">  1        2 0.29445039E+00 0.28425203E+04</pdfrwt>
<pdfrwt beam="2">  1       -2 0.16237094E+00 0.28425203E+04</pdfrwt>
<totfact> 0.15652912E+00</totfact>
</mgrwt>
</event>
<event>
 6    1  0.5196787E-004  0.2542283E+04  0.7818608E-02  0.8388075E-01
          2   -1    0    0  501    0  0.00000000000E+00  0.00000000000E+00  0.34351311136E+04  0.34351311136E+04  0.00000000000E+00 0.  1.
         -2   -1    0    0    0  501 -0.00000000000E+00 -0.00000000000E+00 -0.47037513774E+03  0.47037513774E+03  0.00000000000E+00 0. -1.
         23    2    1    2    0    0  0.64221694136E+02 -0.10908123853E+04  0.24771101050E+04  0.27089300602E+04  0.90727685418E+02 0.  0.
         13    1    3    3    0    0  0.65543737333E+02 -0.85096430863E+03  0.18450496405E+04  0.20328906542E+04  0.00000000000E+00 0.  1.
        -13    1    3    3    0    0 -0.13220431963E+01 -0.23984807662E+03  0.63206046446E+03  0.67603940595E+03  0.00000000000E+00 0. -1.
         22    1    1    2    0    0 -0.64221694136E+02  0.10908123853E+04  0.48764587084E+03  0.11965761911E+04  0.00000000000E+00 0.  1.
<mgrwt>
<rscale>  0 0.25422827E+04</rscale>
<asrwt>0</asrwt>
<pdfrwt beam="1">  1        2 0.52848169E+00 0.25422827E+04</pdfrwt>
<pdfrwt beam="2">  1       -2 0.72365408E-01 0.25422827E+04</pdfrwt>
<totfact> 0.13865027E+00</totfact>
</mgrwt>
</event>
<event>
 6    1  0.5196787E-004  0.1382527E+04  0.7818608E-02  0.8966564E-01
          2   -1    0    0  501    0  0.00000000000E+00  0.00000000000E+00  0.15699207651E+04  0.15699207651E+04  0.00000000000E+00 0.  1.
         -2   -1    0    0    0  501 -0.00000000000E+00 -0.00000000000E+00 -0.30437555488E+03  0.30437555488E+03  0.00000000000E+00 0. -1.
         23    2    1    2    0    0 -0.18300283922E+03  0.26473793256E+03 -0.18648830999E+03  0.38702446994E+03  0.10692912828E+03 0.  0.
         11    1    3    3    0    0 -0.17849858407E+02  0.31601927610E+02  0.13014489177E+02  0.38557440298E+02  0.00000000000E+00 0. -1.
        -11    1    3    3    0    0 -0.16515298081E+03  0.23313600495E+03 -0.19950279916E+03  0.34846702965E+03  0.00000000000E+00 0.  1.
         22    1    1    2    0    0  0.18300283922E+03 -0.26473793256E+03  0.14520335202E+04  0.14872718501E+04  0.00000000000E+00 0.  1.
<mgrwt>
<rscale>  0 0.13825274E+04</rscale>
<asrwt>0</asrwt>
<pdfrwt beam="1">  1        2 0.24152627E+00 0.13825274E+04</pdfrwt>
<pdfrwt beam="2">  1       -2 0.46827009E-01 0.13825274E+04</pdfrwt>
<totfact> 0.48831162E+01</totfact>
</mgrwt>
</event>
<event>
 6    1  0.5196787E-004  0.2069226E+04  0.7818608E-02  0.8574922E-01
         -2   -1    0    0    0  501 -0.00000000000E+00  0.00000000000E+00  0.10174508763E+04  0.10174508763E+04  0.00000000000E+00 0. -1.
          2   -1    0    0  501    0  0.00000000000E+00 -0.00000000000E+00 -0.10520642946E+04  0.10520642946E+04  0.00000000000E+00 0.  1.
         23    2    1    2    0    0 -0.76532485652E+03  0.69115807046E+03 -0.64658757943E+02  0.10378542107E+04  0.97667769579E+02 0.  0.
         13    1    3    3    0    0 -0.33654544998E+03  0.31810671761E+03  0.18462305664E+02  0.46346044105E+03  0.00000000000E+00 0. -1.
        -13    1    3    3    0    0 -0.42877940654E+03  0.37305135286E+03 -0.83121063606E+02  0.57439376960E+03  0.00000000000E+00 0.  1.
         22    1    1    2    0    0  0.76532485652E+03 -0.69115807046E+03  0.30045339636E+02  0.10316609602E+04  0.00000000000E+00 0.  1.
<mgrwt>
<rscale>  0 0.20692257E+04</rscale>
<asrwt>0</asrwt>
<pdfrwt beam="1">  1        2 0.16185604E+00 0.20692257E+04</pdfrwt>
<pdfrwt beam="2">  1       -2 0.15653090E+00 0.20692257E+04</pdfrwt>
<totfact> 0.57637711E+00</totfact>
</mgrwt>
</event>
<event>
 6    1  0.5196787E-004  0.1565033E+04  0.7818608E-02  0.8842322E-01
         -2   -1    0    0    0  501 -0.00000000000E+00  0.00000000000E+00  0.73794000343E+03  0.73794000343E+03  0.00000000000E+00 0. -1.
          2   -1    0    0  501    0  0.00000000000E+00 -0.00000000000E+00 -0.82978551022E+03  0.82978551022E+03  0.00000000000E+00 0.  1.
         23    2    1    2    0    0 -0.25863111307E+03 -0.68909285209E+03  0.21244717322E+03  0.77127523488E+03  0.89401762156E+02 0.  0.
         11    1    3    3    0    0 -0.99485206680E+02 -0.24625209056E+03  0.32911550159E+02  0.26762019466E+03  0.00000000000E+00 0.  1.
        -11    1    3    3    0    0 -0.15914590639E+03 -0.44284076152E+03  0.17953562306E+03  0.50365504022E+03  0.00000000000E+00 0. -1.
         22    1    1    2    0    0  0.25863111307E+03  0.68909285209E+03 -0.30429268001E+03  0.79645027877E+03  0.00000000000E+00 0.  1.
<mgrwt>
<rscale>  0 0.15650328E+04</rscale>
<asrwt>0</asrwt>
<pdfrwt beam="1">  1        2 0.12765931E+00 0.15650328E+04</pdfrwt>
<pdfrwt beam="2">  1       -2 0.11352923E+00 0.15650328E+04</pdfrwt>
<totfact> 0.19187382E+01</totfact>
</mgrwt>
</event>
<event>
 6    1  0.5196787E-004  0.1858599E+04  0.7818608E-02  0.8675743E-01
          1   -1    0    0  501    0  0.00000000000E+00  0.00000000000E+00  0.13003230168E+04  0.13003230168E+04  0.00000000000E+00 0.  1.
         -1   -1    0    0    0  501 -0.00000000000E+00 -0.00000000000E+00 -0.66414084257E+03  0.66414084257E+03  0.00000000000E+00 0. -1.
         23    2    1    2    0    0  0.28154591181E+03  0.64015750437E+03  0.96194657958E+03  0.11929768675E+04  0.93716879933E+02 0.  0.
         11    1    3    3    0    0  0.70994293232E+02  0.85936093075E+02  0.12745892427E+03  0.16932506944E+03  0.00000000000E+00 0. -1.
        -11    1    3    3    0    0  0.21055161858E+03  0.55422141129E+03  0.83448765531E+03  0.10236517981E+04  0.00000000000E+00 0.  1.
         22    1    1    2    0    0 -0.28154591181E+03 -0.64015750437E+03 -0.32576440533E+03  0.77148699188E+03  0.00000000000E+00 0. -1.
<mgrwt>
<rscale>  0 0.18585991E+04</rscale>
<asrwt>0</asrwt>
<pdfrwt beam="1">  1        1 0.20004969E+00 0.18585991E+04</pdfrwt>
<pdfrwt beam="2">  1       -1 0.10217551E+00 0.18585991E+04</pdfrwt>
<totfact> 0.76996896E+00</totfact>
</mgrwt>
</event>
<event>
 6    1  0.5196787E-004  0.1408612E+04  0.7818608E-02  0.8947608E-01
          2   -1    0    0  501    0  0.00000000000E+00  0.00000000000E+00  0.84230910676E+03  0.84230910676E+03  0.00000000000E+00 0.  1.
         -2   -1    0    0    0  501 -0.00000000000E+00 -0.00000000000E+00 -0.58891341984E+03  0.58891341984E+03  0.00000000000E+00 0. -1.
         23    2    1    2    0    0 -0.14435532946E+03  0.12246980385E+03  0.81336533660E+03  0.84011904788E+03  0.91648948841E+02 0.  0.
         11    1    3    3    0    0 -0.84328580310E+02  0.11565050494E+03  0.46418161946E+03  0.48574779937E+03  0.00000000000E+00 0. -1.
        -11    1    3    3    0    0 -0.60026749147E+02  0.68192989095E+01  0.34918371714E+03  0.35437124851E+03  0.00000000000E+00 0.  1.
         22    1    1    2    0    0  0.14435532946E+03 -0.12246980385E+03 -0.55996964968E+03  0.59110347873E+03  0.00000000000E+00 0. -1.
<mgrwt>
<rscale>  0 0.14086123E+04</rscale>
<asrwt>0</asrwt>
<pdfrwt beam="1">  1        2 0.12958602E+00 0.14086123E+04</pdfrwt>
<pdfrwt beam="2">  1       -2 0.90602065E-01 0.14086123E+04</pdfrwt>
<totfact> 0.32538507E+01</totfact>
</mgrwt>
</event>
<event>
 6    1  0.5196787E-004  0.1496626E+04  0.7818608E-02  0.8886700E-01
          1   -1    0    0  501    0  0.00000000000E+00  0.00000000000E+00  0.15077121606E+04  0.15077121606E+04  0.00000000000E+00 0.  1.
         -1   -1    0    0    0  501 -0.00000000000E+00 -0.00000000000E+00 -0.37140527426E+03  0.37140527426E+03  0.00000000000E+00 0. -1.
         23    2    1    2    0    0 -0.52273964766E+03  0.46988216609E+03  0.25838061121E+03  0.75448392397E+03  0.91866544698E+02 0.  0.
         13    1    3    3    0    0 -0.33460222310E+03  0.24082391380E+03  0.14170792862E+03  0.43593112093E+03  0.00000000000E+00 0. -1.
        -13    1    3    3    0    0 -0.18813742456E+03  0.22905825229E+03  0.11667268260E+03  0.31855280304E+03  0.00000000000E+00 0.  1.
         22    1    1    2    0    0  0.52273964766E+03 -0.46988216609E+03  0.87792627514E+03  0.11246335109E+04  0.00000000000E+00 0.  1.
<mgrwt>
<rscale>  0 0.14966259E+04</rscale>
<asrwt>0</asrwt>
<pdfrwt beam="1">  1        1 0.23195571E+00 0.14966259E+04</pdfrwt>
<pdfrwt beam="2">  1       -1 0.57139274E-01 0.14966259E+04</pdfrwt>
<totfact> 0.19389380E+01</totfact>
</mgrwt>
</event>
<event>
 6    1  0.5196787E-004  0.1601309E+04  0.7818608E-02  0.8819744E-01
         -2   -1    0    0    0  501 -0.00000000000E+00  0.00000000000E+00  0.17454502050E+04  0.17454502050E+04  0.00000000000E+00 0. -1.
          2   -1    0    0  501    0  0.00000000000E+00 -0.00000000000E+00 -0.36726797114E+03  0.36726797114E+03  0.00000000000E+00 0.  1.
         23    2    1    2    0    0  0.13785319957E+03  0.50974294747E+02  0.17262421770E+04  0.17348986328E+04  0.91429365418E+02 0.  0.
         13    1    3    3    0    0  0.81265885070E+02 -0.13375923984E+02  0.10547923803E+04  0.10580028474E+04  0.00000000000E+00 0. -1.
        -13    1    3    3    0    0  0.56587314499E+02  0.64350218731E+02  0.67144979669E+03  0.67689578540E+03  0.00000000000E+00 0.  1.
         22    1    1    2    0    0 -0.13785319957E+03 -0.50974294747E+02 -0.34805994314E+03  0.37781954340E+03  0.00000000000E+00 0.  1.
<mgrwt>
<rscale>  0 0.16013094E+04</rscale>
<asrwt>0</asrwt>
<pdfrwt beam="1">  1        2 0.56502766E-01 0.16013094E+04</pdfrwt>
<pdfrwt beam="2">  1       -2 0.26853080E+00 0.16013094E+04</pdfrwt>
<totfact> 0.41581476E+00</totfact>
</mgrwt>
</event>
<event>
 6    1  0.5196787E-004  0.1133520E+04  0.7818608E-02  0.9173124E-01
         -2   -1    0    0    0  501 -0.00000000000E+00  0.00000000000E+00  0.15682467369E+03  0.15682467369E+03  0.00000000000E+00 0. -1.
          2   -1    0    0  501    0  0.00000000000E+00 -0.00000000000E+00 -0.20482530967E+04  0.20482530967E+04  0.00000000000E+00 0.  1.
         23    2    1    2    0    0 -0.38828747274E+03  0.39785742463E+03 -0.11272228681E+04  0.12600551136E+04  0.89720694094E+02 0.  0.
         13    1    3    3    0    0 -0.20699076827E+03  0.15885337976E+03 -0.58037792516E+03  0.63633176128E+03  0.00000000000E+00 0.  1.
        -13    1    3    3    0    0 -0.18129670447E+03  0.23900404487E+03 -0.54684494298E+03  0.62372335228E+03  0.00000000000E+00 0. -1.
         22    1    1    2    0    0  0.38828747274E+03 -0.39785742463E+03 -0.76420555486E+03  0.94502265682E+03  0.00000000000E+00 0. -1.
<mgrwt>
<rscale>  0 0.11335195E+04</rscale>
<asrwt>0</asrwt>
<pdfrwt beam="1">  1        2 0.31511583E+00 0.11335195E+04</pdfrwt>
<pdfrwt beam="2">  1       -2 0.24126875E-01 0.11335195E+04</pdfrwt>
<totfact> 0.95428061E+01</totfact>
</mgrwt>
</event>
<event>
 6    1  0.5196787E-004  0.1409703E+04  0.7818608E-02  0.8946825E-01
          2   -1    0    0  501    0  0.00000000000E+00  0.00000000000E+00  0.26909768732E+04  0.26909768732E+04  0.00000000000E+00 0.  1.
         -2   -1    0    0    0  501 -0.00000000000E+00 -0.00000000000E+00 -0.18462273898E+03  0.18462273898E+03  0.00000000000E+00 0. -1.
         23    2    1    2    0    0  0.36233635790E+03  0.56695746420E+03  0.16662604469E+04  0.17992698272E+04  0.90662185261E+02 0.  0.
         11    1    3    3    0    0  0.16056243029E+03  0.29803441784E+03  0.93583005958E+03  0.99517973685E+03  0.00000000000E+00 0. -1.
        -11    1    3    3    0    0  0.20177392761E+03  0.26892304636E+03  0.73043038730E+03  0.80409009036E+03  0.00000000000E+00 0.  1.
         22    1    1    2    0    0 -0.36233635790E+03 -0.56695746420E+03  0.84009368733E+03  0.10763297849E+04  0.00000000000E+00 0. -1.
<mgrwt>
<rscale>  0 0.14097028E+04</rscale>
<asrwt>0</asrwt>
<pdfrwt beam="1">  1        2 0.41399641E+00 0.14097028E+04</pdfrwt>
<pdfrwt beam="2">  1       -2 0.28403500E-01 0.14097028E+04</pdfrwt>
<totfact> 0.29846012E+01</totfact>
</mgrwt>
</event>
<event>
 6    1  0.5196787E-004  0.2609948E+04  0.7818608E-02  0.8364830E-01
         -2   -1    0    0    0  501 -0.00000000000E+00  0.00000000000E+00  0.14433374179E+04  0.14433374179E+04  0.00000000000E+00 0. -1.
          2   -1    0    0  501    0  0.00000000000E+00 -0.00000000000E+00 -0.11798747020E+04  0.11798747020E+04  0.00000000000E+00 0.  1.
         23    2    1    2    0    0 -0.11250537347E+04 -0.55813185485E+03 -0.21854437946E+03  0.12780028747E+04  0.90953991838E+02 0.  0.
         13    1    3    3    0    0 -0.29379813995E+03 -0.13853469349E+03 -0.96704884787E+02  0.33891155642E+03  0.00000000000E+00 0.  1.
        -13    1    3    3    0    0 -0.83125559478E+03 -0.41959716136E+03 -0.12183949467E+03  0.93909131832E+03  0.00000000000E+00 0. -1.
         22    1    1    2    0    0  0.11250537347E+04  0.55813185485E+03  0.48200709533E+03  0.13452092452E+04  0.00000000000E+00 0.  1.
<mgrwt>
<rscale>  0 0.26099481E+04</rscale>
<asrwt>0</asrwt>
<pdfrwt beam="1">  1        2 0.18151919E+00 0.26099481E+04</pdfrwt>
<pdfrwt beam="2">  1       -2 0.22205191E+00 0.26099481E+04</pdfrwt>
<totfact> 0.16510343E+00</totfact>
</mgrwt>
</event>
<event>
 6    1  0.5196787E-004  0.6565272E+03  0.7818608E-02  0.9794608E-01
         -1   -1    0    0    0  501 -0.00000000000E+00  0.00000000000E+00  0.13610325273E+03  0.13610325273E+03  0.00000000000E+00 0. -1.
          1   -1    0    0  501    0  0.00000000000E+00 -0.00000000000E+00 -0.79172976952E+03  0.79172976952E+03  0.00000000000E+00 0.  1.
         23    2    1    2    0    0 -0.13233783041E+03 -0.18917463573E+03 -0.17034054684E+02  0.24878907904E+03  0.91134530600E+02 0.  0.
         11    1    3    3    0    0 -0.12160646199E+03 -0.14135911749E+03  0.19754378317E+02  0.18751204536E+03  0.00000000000E+00 0. -1.
        -11    1    3    3    0    0 -0.10731368424E+02 -0.47815518239E+02 -0.36788433002E+02  0.61277033670E+02  0.00000000000E+00 0.  1.
         22    1    1    2    0    0  0.13233783041E+03  0.18917463573E+03 -0.63859246210E+03  0.67904394321E+03  0.00000000000E+00 0.  1.
<mgrwt>
<rscale>  0 0.65652722E+03</rscale>
<asrwt>0</asrwt>
<pdfrwt beam="1">  1        1 0.12180458E+00 0.65652722E+03</pdfrwt>
<pdfrwt beam="2">  1       -1 0.20938962E-01 0.65652722E+03</pdfrwt>
<totfact> 0.43047245E+02</totfact>
</mgrwt>
</event>
<event>
 6    1  0.5196787E-004  0.3677169E+04  0.7818608E-02  0.8073040E-01
          1   -1    0    0  501    0  0.00000000000E+00  0.00000000000E+00  0.18878153780E+04  0.18878153780E+04  0.00000000000E+00 0. -1.
         -1   -1    0    0    0  501 -0.00000000000E+00 -0.00000000000E+00 -0.17906372800E+04  0.17906372800E+04  0.00000000000E+00 0.  1.
         23    2    1    2    0    0 -0.12029866581E+04 -0.10544453598E+04  0.95309319027E+03  0.18641697248E+04  0.87807842557E+02 0.  0.
         13    1    3    3    0    0 -0.35271192709E+03 -0.26227509051E+03  0.24181641387E+03  0.50166632798E+03  0.00000000000E+00 0.  1.
        -13    1    3    3    0    0 -0.85027473100E+03 -0.79217026929E+03  0.71127677639E+03  0.13625033968E+04  0.00000000000E+00 0. -1.
         22    1    1    2    0    0  0.12029866581E+04  0.10544453598E+04 -0.85591509232E+03  0.18142829332E+04  0.00000000000E+00 0.  1.
<mgrwt>
<rscale>  0 0.36771688E+04</rscale>
<asrwt>0</asrwt>
<pdfrwt beam="1">  1        1 0.29043314E+00 0.36771688E+04</pdfrwt>
<pdfrwt beam="2">  1       -1 0.27548266E+00 0.36771688E+04</pdfrwt>
<totfact> 0.13590468E-01</totfact>
</mgrwt>
</event>
<event>
 6    1  0.5196787E-004  0.2161536E+04  0.7818608E-02  0.8534611E-01
          2   -1    0    0  501    0  0.00000000000E+00  0.00000000000E+00  0.67400930529E+03  0.67400930529E+03  0.00000000000E+00 0.  1.
         -2   -1    0    0    0  501 -0.00000000000E+00 -0.00000000000E+00 -0.17330014159E+04  0.17330014159E+04  0.00000000000E+00 0. -1.
         23    2    1    2    0    0  0.28686356605E+03 -0.91319012355E+03 -0.10847708353E+04  0.14494766749E+04  0.89710415114E+02 0.  0.
         13    1    3    3    0    0  0.20742328864E+03 -0.74037282959E+03 -0.82806644219E+03  0.11299868938E+04  0.00000000000E+00 0.  1.
        -13    1    3    3    0    0  0.79440277411E+02 -0.17281729396E+03 -0.25670439309E+03  0.31948978106E+03  0.00000000000E+00 0. -1.
         22    1    1    2    0    0 -0.28686356605E+03  0.91319012355E+03  0.25778724658E+02  0.95753404635E+03  0.00000000000E+00 0.  1.
<mgrwt>
<rscale>  0 0.21615356E+04</rscale>
<asrwt>0</asrwt>
<pdfrwt beam="1">  1        2 0.10369374E+00 0.21615356E+04</pdfrwt>
<pdfrwt beam="2">  1       -2 0.26661560E+00 0.21615356E+04</pdfrwt>
<totfact> 0.20030325E+00</totfact>
</mgrwt>
</event>
<event>
 6    1  0.5196787E-004  0.7061280E+04  0.7818608E-02  0.7571148E-01
          2   -1    0    0  501    0  0.00000000000E+00  0.00000000000E+00  0.35340004213E+04  0.35340004213E+04  0.00000000000E+00 0.  1.
         -2   -1    0    0    0  501 -0.00000000000E+00 -0.00000000000E+00 -0.35272828251E+04  0.35272828251E+04  0.00000000000E+00 0. -1.
         23    2    1    2    0    0  0.28629946174E+04  0.16461530209E+04 -0.12434831864E+04  0.35300568384E+04  0.92156931540E+02 0.  0.
         11    1    3    3    0    0  0.15687695498E+04  0.85087291963E+03 -0.68457654185E+03  0.19114569488E+04  0.00000000000E+00 0. -1.
        -11    1    3    3    0    0  0.12942250676E+04  0.79528010123E+03 -0.55890664458E+03  0.16185998895E+04  0.00000000000E+00 0.  1.
         22    1    1    2    0    0 -0.28629946174E+04 -0.16461530209E+04  0.12502007826E+04  0.35312264079E+04  0.00000000000E+00 0.  1.
<mgrwt>
<rscale>  0 0.70612801E+04</rscale>
<asrwt>0</asrwt>
<pdfrwt beam="1">  1        2 0.54369237E+00 0.70612801E+04</pdfrwt>
<pdfrwt beam="2">  1       -2 0.54265890E+00 0.70612801E+04</pdfrwt>
<totfact> 0.45502049E-04</totfact>
</mgrwt>
</event>
<event>
 6    1  0.5196787E-004  0.2527934E+04  0.7818608E-02  0.8393101E-01
         -2   -1    0    0    0  501 -0.00000000000E+00  0.00000000000E+00  0.13216783952E+04  0.13216783952E+04  0.00000000000E+00 0. -1.
          2   -1    0    0  501    0  0.00000000000E+00 -0.00000000000E+00 -0.12087755562E+04  0.12087755562E+04  0.00000000000E+00 0.  1.
         23    2    1    2    0    0  0.72885484755E+03  0.86193917400E+03 -0.50899118908E+03  0.12416868232E+04  0.92442457553E+02 0.  0.
         13    1    3    3    0    0  0.58253865353E+03  0.72870571016E+03 -0.39316840948E+03  0.10123955221E+04  0.00000000000E+00 0. -1.
        -13    1    3    3    0    0  0.14631619402E+03  0.13323346385E+03 -0.11582277960E+03  0.22929130118E+03  0.00000000000E+00 0.  1.
         22    1    1    2    0    0 -0.72885484755E+03 -0.86193917400E+03  0.62189402805E+03  0.12887671282E+04  0.00000000000E+00 0.  1.
<mgrwt>
<rscale>  0 0.25279340E+04</rscale>
<asrwt>0</asrwt>
<pdfrwt beam="1">  1        2 0.18596547E+00 0.25279340E+04</pdfrwt>
<pdfrwt beam="2">  1       -2 0.20333514E+00 0.25279340E+04</pdfrwt>
<totfact> 0.21060292E+00</totfact>
</mgrwt>
</event>
<event>
 6    1  0.5196787E-004  0.3084485E+04  0.7818608E-02  0.8220009E-01
         -2   -1    0    0    0  501 -0.00000000000E+00  0.00000000000E+00  0.14472322432E+04  0.14472322432E+04  0.00000000000E+00 0. -1.
          2   -1    0    0  501    0  0.00000000000E+00 -0.00000000000E+00 -0.16434905003E+04  0.16434905003E+04  0.00000000000E+00 0.  1.
         23    2    1    2    0    0  0.13697104602E+04 -0.21565019256E+02 -0.80517958017E+03  0.15916040114E+04  0.91199659625E+02 0.  0.
         11    1    3    3    0    0  0.86430006004E+03  0.87462505242E+01 -0.55136887502E+03  0.10252310603E+04  0.00000000000E+00 0.  1.
        -11    1    3    3    0    0  0.50541040021E+03 -0.30311269781E+02 -0.25381070515E+03  0.56637295112E+03  0.00000000000E+00 0. -1.
         22    1    1    2    0    0 -0.13697104602E+04  0.21565019256E+02  0.60892132310E+03  0.14991187320E+04  0.00000000000E+00 0. -1.
<mgrwt>
<rscale>  0 0.30844853E+04</rscale>
<asrwt>0</asrwt>
<pdfrwt beam="1">  1        2 0.25284469E+00 0.30844853E+04</pdfrwt>
<pdfrwt beam="2">  1       -2 0.22265112E+00 0.30844853E+04</pdfrwt>
<totfact> 0.85246669E-01</totfact>
</mgrwt>
</event>
<event>
 6    1  0.5196787E-004  0.1933189E+04  0.7818608E-02  0.8638510E-01
         -2   -1    0    0    0  501 -0.00000000000E+00  0.00000000000E+00  0.66291430344E+03  0.66291430344E+03  0.00000000000E+00 0. -1.
          2   -1    0    0  501    0  0.00000000000E+00 -0.00000000000E+00 -0.14093896897E+04  0.14093896897E+04  0.00000000000E+00 0.  1.
         23    2    1    2    0    0 -0.33338510310E+03 -0.80222318380E+03  0.74892705343E+02  0.87674838777E+03  0.91494013812E+02 0.  0.
         11    1    3    3    0    0 -0.44019448607E+02 -0.20304565171E+03  0.66870683921E+01  0.20787006860E+03  0.00000000000E+00 0.  1.
        -11    1    3    3    0    0 -0.28936565449E+03 -0.59917753208E+03  0.68205636951E+02  0.66887831918E+03  0.00000000000E+00 0. -1.
         22    1    1    2    0    0  0.33338510310E+03  0.80222318380E+03 -0.82136809157E+03  0.11955556053E+04  0.00000000000E+00 0. -1.
<mgrwt>
<rscale>  0 0.19331886E+04</rscale>
<asrwt>0</asrwt>
<pdfrwt beam="1">  1        2 0.21682918E+00 0.19331886E+04</pdfrwt>
<pdfrwt beam="2">  1       -2 0.10198682E+00 0.19331886E+04</pdfrwt>
<totfact> 0.10524046E+01</totfact>
</mgrwt>
</event>
<event>
 6    1  0.5196787E-004  0.8757594E+03  0.7818608E-02  0.9456401E-01
          2   -1    0    0  501    0  0.00000000000E+00  0.00000000000E+00  0.90630162883E+03  0.90630162883E+03  0.00000000000E+00 0.  1.
         -2   -1    0    0    0  501 -0.00000000000E+00 -0.00000000000E+00 -0.21156162315E+03  0.21156162315E+03  0.00000000000E+00 0. -1.
         23    2    1    2    0    0  0.97796930588E+02 -0.42141239886E+03  0.32147460997E+03  0.54647922597E+03  0.90227324142E+02 0.  0.
         13    1    3    3    0    0 -0.65836664501E+01 -0.11192883222E+03  0.54649376497E+02  0.12473156175E+03  0.00000000000E+00 0.  1.
        -13    1    3    3    0    0  0.10438059704E+03 -0.30948356664E+03  0.26682523347E+03  0.42174766422E+03  0.00000000000E+00 0. -1.
         22    1    1    2    0    0 -0.97796930588E+02  0.42141239886E+03  0.37326539571E+03  0.57138402601E+03  0.00000000000E+00 0.  1.
<mgrwt>
<rscale>  0 0.87575943E+03</rscale>
<asrwt>0</asrwt>
<pdfrwt beam="1">  1        2 0.13943102E+00 0.87575943E+03</pdfrwt>
<pdfrwt beam="2">  1       -2 0.32547942E-01 0.87575943E+03</pdfrwt>
<totfact> 0.25600597E+02</totfact>
</mgrwt>
</event>
<event>
 6    1  0.5196787E-004  0.1457499E+04  0.7818608E-02  0.8913218E-01
         -2   -1    0    0    0  501 -0.00000000000E+00  0.00000000000E+00  0.29124535819E+03  0.29124535819E+03  0.00000000000E+00 0. -1.
          2   -1    0    0  501    0  0.00000000000E+00 -0.00000000000E+00 -0.18234661240E+04  0.18234661240E+04  0.00000000000E+00 0.  1.
         23    2    1    2    0    0 -0.48726188160E+03 -0.44583024734E+03 -0.12062944261E+04  0.13782220189E+04  0.90337921788E+02 0.  0.
         13    1    3    3    0    0 -0.22233535097E+03 -0.25605910946E+03 -0.66277074331E+03  0.74448931088E+03  0.00000000000E+00 0.  1.
        -13    1    3    3    0    0 -0.26492653062E+03 -0.18977113787E+03 -0.54352368283E+03  0.63373270801E+03  0.00000000000E+00 0. -1.
         22    1    1    2    0    0  0.48726188160E+03  0.44583024734E+03 -0.32592633971E+03  0.73648946334E+03  0.00000000000E+00 0. -1.
<mgrwt>
<rscale>  0 0.14574993E+04</rscale>
<asrwt>0</asrwt>
<pdfrwt beam="1">  1        2 0.28053324E+00 0.14574993E+04</pdfrwt>
<pdfrwt beam="2">  1       -2 0.44806979E-01 0.14574993E+04</pdfrwt>
<totfact> 0.38339973E+01</totfact>
</mgrwt>
</event>
<event>
 6    1  0.5196787E-004  0.2316054E+04  0.7818608E-02  0.8471618E-01
         -2   -1    0    0    0  501 -0.00000000000E+00  0.00000000000E+00  0.10454594154E+04  0.10454594154E+04  0.00000000000E+00 0. -1.
          2   -1    0    0  501    0  0.00000000000E+00 -0.00000000000E+00 -0.12827153783E+04  0.12827153783E+04  0.00000000000E+00 0.  1.
         23    2    1    2    0    0 -0.12722136300E+03 -0.11404857250E+04  0.23358674549E+02  0.11513940353E+04  0.90937521352E+02 0.  0.
         11    1    3    3    0    0  0.84532849778E+01 -0.26908118169E+03  0.95164494397E+01  0.26938207657E+03  0.00000000000E+00 0. -1.
        -11    1    3    3    0    0 -0.13567464798E+03 -0.87140454327E+03  0.13842225109E+02  0.88201195872E+03  0.00000000000E+00 0.  1.
         22    1    1    2    0    0  0.12722136300E+03  0.11404857250E+04 -0.26061463747E+03  0.11767807584E+04  0.00000000000E+00 0.  1.
<mgrwt>
<rscale>  0 0.23160543E+04</rscale>
<asrwt>0</asrwt>
<pdfrwt beam="1">  1        2 0.19734083E+00 0.23160543E+04</pdfrwt>
<pdfrwt beam="2">  1       -2 0.16083991E+00 0.23160543E+04</pdfrwt>
<totfact> 0.38047722E+00</totfact>
</mgrwt>
</event>
<event>
 6    1  0.5196787E-004  0.2208304E+04  0.7818608E-02  0.8514980E-01
         -2   -1    0    0    0  501 -0.00000000000E+00  0.00000000000E+00  0.93305625477E+03  0.93305625477E+03  0.00000000000E+00 0.  1.
          2   -1    0    0  501    0  0.00000000000E+00 -0.00000000000E+00 -0.13066214467E+04  0.13066214467E+04  0.00000000000E+00 0. -1.
         23    2    1    2    0    0  0.91818706863E+03  0.47795332862E+03  0.19580103256E+03  0.10582866676E+04  0.10062678122E+03 0.  0.
         11    1    3    3    0    0  0.62112975556E+03  0.31242965172E+03  0.84086468022E+02  0.70034633905E+03  0.00000000000E+00 0.  1.
        -11    1    3    3    0    0  0.29705731308E+03  0.16552367690E+03  0.11171456453E+03  0.35794032854E+03  0.00000000000E+00 0. -1.
         22    1    1    2    0    0 -0.91818706863E+03 -0.47795332862E+03 -0.56936622447E+03  0.11813910339E+04  0.00000000000E+00 0. -1.
<mgrwt>
<rscale>  0 0.22083037E+04</rscale>
<asrwt>0</asrwt>
<pdfrwt beam="1">  1        2 0.20101868E+00 0.22083037E+04</pdfrwt>
<pdfrwt beam="2">  1       -2 0.14354712E+00 0.22083037E+04</pdfrwt>
<totfact> 0.50362020E+00</totfact>
</mgrwt>
</event>
<event>
 6    1  0.5196787E-004  0.3769831E+04  0.7818608E-02  0.8052660E-01
          2   -1    0    0  501    0  0.00000000000E+00  0.00000000000E+00  0.27193384421E+04  0.27193384421E+04  0.00000000000E+00 0.  1.
         -2   -1    0    0    0  501 -0.00000000000E+00 -0.00000000000E+00 -0.13065331121E+04  0.13065331121E+04  0.00000000000E+00 0. -1.
         23    2    1    2    0    0 -0.70690073907E+03 -0.12451561711E+04  0.20140941528E+04  0.24729160515E+04  0.92822390149E+02 0.  0.
         13    1    3    3    0    0 -0.18539045240E+03 -0.31077809301E+03  0.57925926961E+03  0.68300361958E+03  0.00000000000E+00 0. -1.
        -13    1    3    3    0    0 -0.52151028667E+03 -0.93437807809E+03  0.14348348831E+04  0.17899124319E+04  0.00000000000E+00 0.  1.
         22    1    1    2    0    0  0.70690073907E+03  0.12451561711E+04 -0.60128882274E+03  0.15529555028E+04  0.00000000000E+00 0. -1.
<mgrwt>
<rscale>  0 0.37698306E+04</rscale>
<asrwt>0</asrwt>
<pdfrwt beam="1">  1        2 0.41835976E+00 0.37698306E+04</pdfrwt>
<pdfrwt beam="2">  1       -2 0.20100509E+00 0.37698306E+04</pdfrwt>
<totfact> 0.27220419E-01</totfact>
</mgrwt>
</event>
<event>
 6    1  0.5196787E-004  0.2379122E+04  0.7818608E-02  0.8447362E-01
         -2   -1    0    0    0  501 -0.00000000000E+00  0.00000000000E+00  0.43353989463E+03  0.43353989463E+03  0.00000000000E+00 0. -1.
          2   -1    0    0  501    0  0.00000000000E+00 -0.00000000000E+00 -0.32639565972E+04  0.32639565972E+04  0.00000000000E+00 0.  1.
         23    2    1    2    0    0 -0.32862113304E+03 -0.73535472714E+03 -0.59909305573E+02  0.81228425342E+03  0.86476353140E+02 0.  0.
         11    1    3    3    0    0 -0.25824417643E+03 -0.63266827397E+03 -0.28717035463E+02  0.68394726965E+03  0.00000000000E+00 0.  1.
        -11    1    3    3    0    0 -0.70376956612E+02 -0.10268645317E+03 -0.31192270110E+02  0.12833698377E+03  0.00000000000E+00 0. -1.
         22    1    1    2    0    0  0.32862113304E+03  0.73535472714E+03 -0.27705073970E+04  0.28852122384E+04  0.00000000000E+00 0.  1.
<mgrwt>
<rscale>  0 0.23791220E+04</rscale>
<asrwt>0</asrwt>
<pdfrwt beam="1">  1        2 0.50214715E+00 0.23791220E+04</pdfrwt>
<pdfrwt beam="2">  1       -2 0.66698448E-01 0.23791220E+04</pdfrwt>
<totfact> 0.21920554E+00</totfact>
</mgrwt>
</event>
<event>
 6    1  0.5196787E-004  0.1657445E+04  0.7818608E-02  0.8786014E-01
         -2   -1    0    0    0  501 -0.00000000000E+00  0.00000000000E+00  0.11263478977E+04  0.11263478977E+04  0.00000000000E+00 0. -1.
          2   -1    0    0  501    0  0.00000000000E+00 -0.00000000000E+00 -0.60974173132E+03  0.60974173132E+03  0.00000000000E+00 0.  1.
         23    2    1    2    0    0 -0.55297088525E+03  0.52607880746E+03  0.59034459612E+03  0.96929561002E+03  0.92149475537E+02 0.  0.
         13    1    3    3    0    0 -0.33168855951E+03  0.27326802647E+03  0.37383719774E+03  0.56960246244E+03  0.00000000000E+00 0. -1.
        -13    1    3    3    0    0 -0.22128232575E+03  0.25281078100E+03  0.21650739838E+03  0.39969314759E+03  0.00000000000E+00 0.  1.
         22    1    1    2    0    0  0.55297088525E+03 -0.52607880746E+03 -0.73738429707E+02  0.76679401903E+03  0.00000000000E+00 0.  1.
<mgrwt>
<rscale>  0 0.16574454E+04</rscale>
<asrwt>0</asrwt>
<pdfrwt beam="1">  1        2 0.93806421E-01 0.16574454E+04</pdfrwt>
<pdfrwt beam="2">  1       -2 0.17328429E+00 0.16574454E+04</pdfrwt>
<totfact> 0.93720587E+00</totfact>
</mgrwt>
</event>
<event>
 6    1  0.5196787E-004  0.1255836E+04  0.7818608E-02  0.9065340E-01
         -2   -1    0    0    0  501 -0.00000000000E+00  0.00000000000E+00  0.13864702331E+03  0.13864702331E+03  0.00000000000E+00 0. -1.
          2   -1    0    0  501    0  0.00000000000E+00 -0.00000000000E+00 -0.28437773856E+04  0.28437773856E+04  0.00000000000E+00 0.  1.
         23    2    1    2    0    0 -0.48204558465E+03  0.10885904808E+03 -0.22667294975E+04  0.23218083659E+04  0.92267194881E+02 0.  0.
         11    1    3    3    0    0 -0.47170429628E+02  0.40725684669E+02 -0.25896460449E+03  0.26635746132E+03  0.00000000000E+00 0. -1.
        -11    1    3    3    0    0 -0.43487515502E+03  0.68133363413E+02 -0.20077648930E+04  0.20554509046E+04  0.00000000000E+00 0.  1.
         22    1    1    2    0    0  0.48204558465E+03 -0.10885904808E+03 -0.43840086487E+03  0.66061604306E+03  0.00000000000E+00 0. -1.
<mgrwt>
<rscale>  0 0.12558364E+04</rscale>
<asrwt>0</asrwt>
<pdfrwt beam="1">  1        2 0.43750422E+00 0.12558364E+04</pdfrwt>
<pdfrwt beam="2">  1       -2 0.21330311E-01 0.12558364E+04</pdfrwt>
<totfact> 0.41202828E+01</totfact>
</mgrwt>
</event>
<event>
 6    1  0.5196787E-004  0.1741340E+04  0.7818608E-02  0.8738132E-01
          2   -1    0    0  501    0  0.00000000000E+00  0.00000000000E+00  0.21150169619E+04  0.21150169619E+04  0.00000000000E+00 0.  1.
         -2   -1    0    0    0  501 -0.00000000000E+00 -0.00000000000E+00 -0.35842092875E+03  0.35842092875E+03  0.00000000000E+00 0. -1.
         23    2    1    2    0    0  0.52320489189E+03 -0.29655864258E+03  0.17702176990E+04  0.18718766410E+04  0.92526048477E+02 0.  0.
         13    1    3    3    0    0  0.24002200913E+03 -0.18853440822E+03  0.91106038340E+03  0.96082610818E+03  0.00000000000E+00 0. -1.
        -13    1    3    3    0    0  0.28318288275E+03 -0.10802423435E+03  0.85915731563E+03  0.91105053279E+03  0.00000000000E+00 0.  1.
         22    1    1    2    0    0 -0.52320489189E+03  0.29655864258E+03 -0.13621665849E+02  0.60156124972E+03  0.00000000000E+00 0. -1.
<mgrwt>
<rscale>  0 0.17413401E+04</rscale>
<asrwt>0</asrwt>
<pdfrwt beam="1">  1        2 0.32538722E+00 0.17413401E+04</pdfrwt>
<pdfrwt beam="2">  1       -2 0.55141683E-01 0.17413401E+04</pdfrwt>
<totfact> 0.16907804E+01</totfact>
</mgrwt>
</event>
<event>
 6    1  0.5196787E-004  0.1476020E+04  0.7818608E-02  0.8900558E-01
          2   -1    0    0  501    0  0.00000000000E+00  0.00000000000E+00  0.18100367864E+04  0.18100367864E+04  0.00000000000E+00 0.  1.
         -2   -1    0    0    0  501 -0.00000000000E+00 -0.00000000000E+00 -0.30091037546E+03  0.30091037546E+03  0.00000000000E+00 0. -1.
         23    2    1    2    0    0 -0.27927747853E+03  0.61599385596E+03  0.11692811498E+04  0.13540197267E+04  0.93309551577E+02 0.  0.
         13    1    3    3    0    0 -0.97883892401E+01  0.77283158102E+02  0.17421606275E+03  0.19083955463E+03  0.00000000000E+00 0. -1.
        -13    1    3    3    0    0 -0.26948908929E+03  0.53871069786E+03  0.99506508705E+03  0.11631801721E+04  0.00000000000E+00 0.  1.
         22    1    1    2    0    0  0.27927747853E+03 -0.61599385596E+03  0.33984526116E+03  0.75692743518E+03  0.00000000000E+00 0. -1.
<mgrwt>
<rscale>  0 0.14760201E+04</rscale>
<asrwt>0</asrwt>
<pdfrwt beam="1">  1        2 0.27846719E+00 0.14760201E+04</pdfrwt>
<pdfrwt beam="2">  1       -2 0.46293905E-01 0.14760201E+04</pdfrwt>
<totfact> 0.36478422E+01</totfact>
</mgrwt>
</event>
<event>
 6    1  0.5196787E-004  0.2067023E+04  0.7818608E-02  0.8575911E-01
          2   -1    0    0  501    0  0.00000000000E+00  0.00000000000E+00  0.69658647345E+03  0.69658647345E+03  0.00000000000E+00 0.  1.
         -2   -1    0    0    0  501 -0.00000000000E+00 -0.00000000000E+00 -0.15333998840E+04  0.15333998840E+04  0.00000000000E+00 0. -1.
         23    2    1    2    0    0  0.14782693727E+03  0.70203214765E+03  0.38046101106E+03  0.81702529739E+03  0.89876670625E+02 0.  0.
         13    1    3    3    0    0  0.41458300462E+02  0.26208554724E+03  0.18793873765E+03  0.32515933611E+03  0.00000000000E+00 0. -1.
        -13    1    3    3    0    0  0.10636863681E+03  0.43994660040E+03  0.19252227341E+03  0.49186596127E+03  0.00000000000E+00 0.  1.
         22    1    1    2    0    0 -0.14782693727E+03 -0.70203214765E+03 -0.12172744216E+04  0.14129610600E+04  0.00000000000E+00 0. -1.
<mgrwt>
<rscale>  0 0.20670226E+04</rscale>
<asrwt>0</asrwt>
<pdfrwt beam="1">  1        2 0.10716715E+00 0.20670226E+04</pdfrwt>
<pdfrwt beam="2">  1       -2 0.23590767E+00 0.20670226E+04</pdfrwt>
<totfact> 0.29908473E+00</totfact>
</mgrwt>
</event>
<event>
 6    1  0.5196787E-004  0.6104995E+04  0.7818608E-02  0.7677518E-01
         -2   -1    0    0    0  501 -0.00000000000E+00  0.00000000000E+00  0.20788918588E+04  0.20788918588E+04  0.00000000000E+00 0. -1.
          2   -1    0    0  501    0  0.00000000000E+00 -0.00000000000E+00 -0.44820708613E+04  0.44820708613E+04  0.00000000000E+00 0.  1.
         23    2    1    2    0    0  0.95259837529E+03  0.22610690872E+04 -0.31523752032E+04  0.39955832104E+04  0.85666141529E+02 0.  0.
         13    1    3    3    0    0  0.80650011541E+03  0.18917374862E+04 -0.26902561479E+04  0.33862355639E+04  0.00000000000E+00 0.  1.
        -13    1    3    3    0    0  0.14609825987E+03  0.36933160098E+03 -0.46211905527E+03  0.60934764647E+03  0.00000000000E+00 0. -1.
         22    1    1    2    0    0 -0.95259837529E+03 -0.22610690872E+04  0.74919620067E+03  0.25653795097E+04  0.00000000000E+00 0. -1.
<mgrwt>
<rscale>  0 0.61049949E+04</rscale>
<asrwt>0</asrwt>
<pdfrwt beam="1">  1        2 0.68954936E+00 0.61049949E+04</pdfrwt>
<pdfrwt beam="2">  1       -2 0.31982952E+00 0.61049949E+04</pdfrwt>
<totfact> 0.20296621E-03</totfact>
</mgrwt>
</event>
<event>
 6    1  0.5196787E-004  0.3518052E+04  0.7818608E-02  0.8109525E-01
          2   -1    0    0  501    0  0.00000000000E+00  0.00000000000E+00  0.29783719791E+04  0.29783719791E+04  0.00000000000E+00 0.  1.
         -2   -1    0    0    0  501 -0.00000000000E+00 -0.00000000000E+00 -0.10388807464E+04  0.10388807464E+04  0.00000000000E+00 0. -1.
         23    2    1    2    0    0  0.11240761352E+04 -0.70404691572E+03  0.22876696043E+04  0.26459550205E+04  0.91741675641E+02 0.  0.
         13    1    3    3    0    0  0.35361826729E+03 -0.25412151487E+03  0.68571621081E+03  0.81229941835E+03  0.00000000000E+00 0. -1.
        -13    1    3    3    0    0  0.77045786789E+03 -0.44992540085E+03  0.16019533935E+04  0.18336556022E+04  0.00000000000E+00 0.  1.
         22    1    1    2    0    0 -0.11240761352E+04  0.70404691572E+03 -0.34817837152E+03  0.13712977050E+04  0.00000000000E+00 0. -1.
<mgrwt>
<rscale>  0 0.35180525E+04</rscale>
<asrwt>0</asrwt>
<pdfrwt beam="1">  1        2 0.45821107E+00 0.35180525E+04</pdfrwt>
<pdfrwt beam="2">  1       -2 0.15982781E+00 0.35180525E+04</pdfrwt>
<totfact> 0.37209386E-01</totfact>
</mgrwt>
</event>
<event>
 6    1  0.5196787E-004  0.1760741E+04  0.7818608E-02  0.8727460E-01
          2   -1    0    0  501    0  0.00000000000E+00  0.00000000000E+00  0.24165034864E+04  0.24165034864E+04  0.00000000000E+00 0.  1.
         -2   -1    0    0    0  501 -0.00000000000E+00 -0.00000000000E+00 -0.32073279137E+03  0.32073279137E+03  0.00000000000E+00 0. -1.
         23    2    1    2    0    0 -0.26604554713E+03 -0.31254081029E+03 -0.15603703705E+03  0.44832822948E+03  0.90491177333E+02 0.  0.
         11    1    3    3    0    0 -0.72758496798E+02 -0.14335205624E+03 -0.35759460881E+02  0.16468864541E+03  0.00000000000E+00 0. -1.
        -11    1    3    3    0    0 -0.19328705033E+03 -0.16918875404E+03 -0.12027757617E+03  0.28363958407E+03  0.00000000000E+00 0.  1.
         22    1    1    2    0    0  0.26604554713E+03  0.31254081029E+03  0.22518077321E+04  0.22889080483E+04  0.00000000000E+00 0.  1.
<mgrwt>
<rscale>  0 0.17607406E+04</rscale>
<asrwt>0</asrwt>
<pdfrwt beam="1">  1        2 0.37176975E+00 0.17607406E+04</pdfrwt>
<pdfrwt beam="2">  1       -2 0.49343508E-01 0.17607406E+04</pdfrwt>
<totfact> 0.14335518E+01</totfact>
</mgrwt>
</event>
<event>
 6    1  0.5196787E-004  0.1887103E+04  0.7818608E-02  0.8661303E-01
          4   -1    0    0  501    0  0.00000000000E+00  0.00000000000E+00  0.80420427800E+03  0.80420427800E+03  0.00000000000E+00 0.  1.
         -4   -1    0    0    0  501 -0.00000000000E+00 -0.00000000000E+00 -0.11070435922E+04  0.11070435922E+04  0.00000000000E+00 0. -1.
         23    2    1    2    0    0  0.32252114176E+03 -0.38012004873E+03  0.65698491659E+03  0.82968710338E+03  0.90776486754E+02 0.  0.
         13    1    3    3    0    0  0.27124280448E+03 -0.36192459519E+03  0.58806113477E+03  0.74187463214E+03  0.00000000000E+00 0. -1.
        -13    1    3    3    0    0  0.51278337279E+02 -0.18195453541E+02  0.68923781820E+02  0.87812471233E+02  0.00000000000E+00 0.  1.
         22    1    1    2    0    0 -0.32252114176E+03  0.38012004873E+03 -0.95982423082E+03  0.10815607669E+04  0.00000000000E+00 0. -1.
<mgrwt>
<rscale>  0 0.18871027E+04</rscale>
<asrwt>0</asrwt>
<pdfrwt beam="1">  1        4 0.12372374E+00 0.18871027E+04</pdfrwt>
<pdfrwt beam="2">  1       -4 0.17031440E+00 0.18871027E+04</pdfrwt>
<totfact> 0.19352021E-01</totfact>
</mgrwt>
</event>
<event>
 6    1  0.5196787E-004  0.1831887E+04  0.7818608E-02  0.8689524E-01
         -2   -1    0    0    0  501 -0.00000000000E+00  0.00000000000E+00  0.42070323802E+03  0.42070323802E+03  0.00000000000E+00 0. -1.
          2   -1    0    0  501    0  0.00000000000E+00 -0.00000000000E+00 -0.19941680277E+04  0.19941680277E+04  0.00000000000E+00 0.  1.
         23    2    1    2    0    0 -0.34459378427E+03  0.82434166496E+03 -0.53680548129E+03  0.10463148809E+04  0.91272386458E+02 0.  0.
         11    1    3    3    0    0 -0.13473382934E+02  0.67915937191E+02 -0.66730605771E+02  0.96161740410E+02  0.00000000000E+00 0. -1.
        -11    1    3    3    0    0 -0.33112040134E+03  0.75642572777E+03 -0.47007487552E+03  0.95015314050E+03  0.00000000000E+00 0.  1.
         22    1    1    2    0    0  0.34459378427E+03 -0.82434166496E+03 -0.10366593084E+04  0.13685563849E+04  0.00000000000E+00 0.  1.
<mgrwt>
<rscale>  0 0.18318875E+04</rscale>
<asrwt>0</asrwt>
<pdfrwt beam="1">  1        2 0.30679508E+00 0.18318875E+04</pdfrwt>
<pdfrwt beam="2">  1       -2 0.64723576E-01 0.18318875E+04</pdfrwt>
<totfact> 0.13965248E+01</totfact>
</mgrwt>
</event>
<event>
 6    1  0.5196787E-004  0.1424112E+04  0.7818608E-02  0.8936547E-01
         -2   -1    0    0    0  501 -0.00000000000E+00  0.00000000000E+00  0.33847142280E+03  0.33847142280E+03  0.00000000000E+00 0. -1.
          2   -1    0    0  501    0  0.00000000000E+00 -0.00000000000E+00 -0.14979818709E+04  0.14979818709E+04  0.00000000000E+00 0.  1.
         23    2    1    2    0    0  0.47544752717E+03 -0.40347129178E+03 -0.10154609379E+04  0.11964613439E+04  0.10732845310E+03 0.  0.
         13    1    3    3    0    0  0.29490014179E+03 -0.31000189460E+03 -0.72682709799E+03  0.84341265028E+03  0.00000000000E+00 0. -1.
        -13    1    3    3    0    0  0.18054738538E+03 -0.93469397184E+02 -0.28863383987E+03  0.35304869366E+03  0.00000000000E+00 0.  1.
         22    1    1    2    0    0 -0.47544752717E+03  0.40347129178E+03 -0.14404951027E+03  0.63999194979E+03  0.00000000000E+00 0. -1.
<mgrwt>
<rscale>  0 0.14241124E+04</rscale>
<asrwt>0</asrwt>
<pdfrwt beam="1">  1        2 0.23045875E+00 0.14241124E+04</pdfrwt>
<pdfrwt beam="2">  1       -2 0.52072527E-01 0.14241124E+04</pdfrwt>
<totfact> 0.43046437E+01</totfact>
</mgrwt>
</event>
<event>
 6    1  0.5196787E-004  0.5754425E+04  0.7818608E-02  0.7721619E-01
          2   -1    0    0  501    0  0.00000000000E+00  0.00000000000E+00  0.24663372329E+04  0.24663372329E+04  0.00000000000E+00 0.  1.
         -2   -1    0    0    0  501 -0.00000000000E+00 -0.00000000000E+00 -0.33565372522E+04  0.33565372522E+04  0.00000000000E+00 0. -1.
         23    2    1    2    0    0  0.27892959664E+04  0.69571310589E+03 -0.54495625841E+03  0.29274674381E+04  0.94337497879E+02 0.  0.
         13    1    3    3    0    0  0.72825847921E+03  0.15514257403E+03 -0.10827925237E+03  0.75243207488E+03  0.00000000000E+00 0. -1.
        -13    1    3    3    0    0  0.20610374872E+04  0.54057053187E+03 -0.43667700604E+03  0.21750353632E+04  0.00000000000E+00 0.  1.
         22    1    1    2    0    0 -0.27892959664E+04 -0.69571310589E+03 -0.34524376088E+03  0.28954070471E+04  0.00000000000E+00 0. -1.
<mgrwt>
<rscale>  0 0.57544254E+04</rscale>
<asrwt>0</asrwt>
<pdfrwt beam="1">  1        2 0.37943650E+00 0.57544254E+04</pdfrwt>
<pdfrwt beam="2">  1       -2 0.51639035E+00 0.57544254E+04</pdfrwt>
<totfact> 0.33184014E-03</totfact>
</mgrwt>
</event>
<event>
 6    1  0.5196787E-004  0.4659510E+04  0.7818608E-02  0.7883291E-01
         -2   -1    0    0    0  501 -0.00000000000E+00  0.00000000000E+00  0.19475514258E+04  0.19475514258E+04  0.00000000000E+00 0. -1.
          2   -1    0    0  501    0  0.00000000000E+00 -0.00000000000E+00 -0.27869649310E+04  0.27869649310E+04  0.00000000000E+00 0.  1.
         23    2    1    2    0    0  0.86484200055E+02 -0.89867065926E+03 -0.26011669146E+04  0.27549043883E+04  0.91325791508E+02 0.  0.
         11    1    3    3    0    0  0.80094774196E+02 -0.47151776865E+03 -0.14638985710E+04  0.15400464944E+04  0.00000000000E+00 0. -1.
        -11    1    3    3    0    0  0.63894258592E+01 -0.42715289062E+03 -0.11372683436E+04  0.12148578938E+04  0.00000000000E+00 0.  1.
         22    1    1    2    0    0 -0.86484200055E+02  0.89867065926E+03  0.17617534093E+04  0.19796119685E+04  0.00000000000E+00 0. -1.
<mgrwt>
<rscale>  0 0.46595096E+04</rscale>
<asrwt>0</asrwt>
<pdfrwt beam="1">  1        2 0.42876384E+00 0.46595096E+04</pdfrwt>
<pdfrwt beam="2">  1       -2 0.29962330E+00 0.46595096E+04</pdfrwt>
<totfact> 0.56271627E-02</totfact>
</mgrwt>
</event>
<event>
 6    1  0.5196787E-004  0.1397570E+04  0.7818608E-02  0.8955579E-01
         -2   -1    0    0    0  501 -0.00000000000E+00  0.00000000000E+00  0.21806930188E+04  0.21806930188E+04  0.00000000000E+00 0. -1.
          2   -1    0    0  501    0  0.00000000000E+00 -0.00000000000E+00 -0.22391997831E+03  0.22391997831E+03  0.00000000000E+00 0.  1.
         23    2    1    2    0    0  0.23311144651E+03  0.51971499626E+02  0.21070008828E+04  0.21224598687E+04  0.91330121199E+02 0.  0.
         11    1    3    3    0    0  0.37663705248E+02 -0.16542539061E+02  0.19609729744E+03  0.20036556679E+03  0.00000000000E+00 0.  1.
        -11    1    3    3    0    0  0.19544774126E+03  0.68514038687E+02  0.19109035853E+04  0.19220943019E+04  0.00000000000E+00 0. -1.
         22    1    1    2    0    0 -0.23311144651E+03 -0.51971499626E+02 -0.15022784228E+03  0.28215312840E+03  0.00000000000E+00 0.  1.
<mgrwt>
<rscale>  0 0.13975704E+04</rscale>
<asrwt>0</asrwt>
<pdfrwt beam="1">  1        2 0.34449229E-01 0.13975704E+04</pdfrwt>
<pdfrwt beam="2">  1       -2 0.33549122E+00 0.13975704E+04</pdfrwt>
<totfact> 0.28674762E+00</totfact>
</mgrwt>
</event>
<event>
 6    1  0.5196787E-004  0.4254068E+04  0.7818608E-02  0.7955166E-01
         -2   -1    0    0    0  501 -0.00000000000E+00  0.00000000000E+00  0.11041457689E+04  0.11041457689E+04  0.00000000000E+00 0. -1.
          2   -1    0    0  501    0  0.00000000000E+00 -0.00000000000E+00 -0.40975334848E+04  0.40975334848E+04  0.00000000000E+00 0.  1.
         23    2    1    2    0    0 -0.17810330754E+04 -0.11510152683E+04 -0.13117334450E+04  0.24952284320E+04  0.92764937614E+02 0.  0.
         13    1    3    3    0    0 -0.13875883535E+04 -0.92162682802E+03 -0.10670469130E+04  0.19782281373E+04  0.00000000000E+00 0.  1.
        -13    1    3    3    0    0 -0.39344472191E+03 -0.22938844029E+03 -0.24468653197E+03  0.51700029465E+03  0.00000000000E+00 0. -1.
         22    1    1    2    0    0  0.17810330754E+04  0.11510152683E+04 -0.16816542709E+04  0.27064508217E+04  0.00000000000E+00 0.  1.
<mgrwt>
<rscale>  0 0.42540683E+04</rscale>
<asrwt>0</asrwt>
<pdfrwt beam="1">  1        2 0.63038975E+00 0.42540683E+04</pdfrwt>
<pdfrwt beam="2">  1       -2 0.16986858E+00 0.42540683E+04</pdfrwt>
<totfact> 0.46727638E-02</totfact>
</mgrwt>
</event>
<event>
 6    1  0.5196787E-004  0.2973012E+04  0.7818608E-02  0.8251480E-01
         -2   -1    0    0    0  501 -0.00000000000E+00  0.00000000000E+00  0.14200398097E+04  0.14200398097E+04  0.00000000000E+00 0. -1.
          2   -1    0    0  501    0  0.00000000000E+00 -0.00000000000E+00 -0.15560829985E+04  0.15560829985E+04  0.00000000000E+00 0.  1.
         23    2    1    2    0    0  0.19622032061E+03  0.74159649112E+03  0.12049179616E+04  0.14312459275E+04  0.90387173180E+02 0.  0.
         11    1    3    3    0    0  0.16112199104E+03  0.43612200766E+03  0.72250774698E+03  0.85917410692E+03  0.00000000000E+00 0. -1.
        -11    1    3    3    0    0  0.35098329577E+02  0.30547448347E+03  0.48241021459E+03  0.57207182061E+03  0.00000000000E+00 0.  1.
         22    1    1    2    0    0 -0.19622032061E+03 -0.74159649112E+03 -0.13409611503E+04  0.15448768807E+04  0.00000000000E+00 0.  1.
<mgrwt>
<rscale>  0 0.29730118E+04</rscale>
<asrwt>0</asrwt>
<pdfrwt beam="1">  1        2 0.23939738E+00 0.29730118E+04</pdfrwt>
<pdfrwt beam="2">  1       -2 0.21846766E+00 0.29730118E+04</pdfrwt>
<totfact> 0.10235336E+00</totfact>
</mgrwt>
</event>
<event>
 6    1  0.5196787E-004  0.2781148E+04  0.7818608E-02  0.8309145E-01
          2   -1    0    0  501    0  0.00000000000E+00  0.00000000000E+00  0.11495441566E+04  0.11495441566E+04  0.00000000000E+00 0.  1.
         -2   -1    0    0    0  501 -0.00000000000E+00 -0.00000000000E+00 -0.16821420492E+04  0.16821420492E+04  0.00000000000E+00 0. -1.
         23    2    1    2    0    0  0.82052135266E+03  0.14841541314E+03  0.86460096226E+03  0.12045884629E+04  0.90642792969E+02 0.  0.
         11    1    3    3    0    0  0.68466502818E+03  0.14529667736E+03  0.75929805660E+03  0.10326717116E+04  0.00000000000E+00 0. -1.
        -11    1    3    3    0    0  0.13585632448E+03  0.31187357807E+01  0.10530290565E+03  0.17191675122E+03  0.00000000000E+00 0.  1.
         22    1    1    2    0    0 -0.82052135266E+03 -0.14841541314E+03 -0.13971988548E+04  0.16270977429E+04  0.00000000000E+00 0. -1.
<mgrwt>
<rscale>  0 0.27811484E+04</rscale>
<asrwt>0</asrwt>
<pdfrwt beam="1">  1        2 0.17685295E+00 0.27811484E+04</pdfrwt>
<pdfrwt beam="2">  1       -2 0.25879108E+00 0.27811484E+04</pdfrwt>
<totfact> 0.10047512E+00</totfact>
</mgrwt>
</event>
<event>
 6    1  0.5196787E-004  0.1643549E+04  0.7818608E-02  0.8794232E-01
         -1   -1    0    0    0  501 -0.00000000000E+00  0.00000000000E+00  0.28760390061E+03  0.28760390061E+03  0.00000000000E+00 0. -1.
          1   -1    0    0  501    0  0.00000000000E+00 -0.00000000000E+00 -0.23480663813E+04  0.23480663813E+04  0.00000000000E+00 0.  1.
         23    2    1    2    0    0 -0.46871927133E+03 -0.47977960077E+03 -0.27903997059E+03  0.73215974079E+03  0.91150206906E+02 0.  0.
         11    1    3    3    0    0 -0.23176167153E+03 -0.22385956320E+03 -0.85884905877E+02  0.33347082853E+03  0.00000000000E+00 0. -1.
        -11    1    3    3    0    0 -0.23695759980E+03 -0.25592003757E+03 -0.19315506471E+03  0.39868891226E+03  0.00000000000E+00 0.  1.
         22    1    1    2    0    0  0.46871927133E+03  0.47977960077E+03 -0.17814225101E+04  0.19035105411E+04  0.00000000000E+00 0. -1.
<mgrwt>
<rscale>  0 0.16435487E+04</rscale>
<asrwt>0</asrwt>
<pdfrwt beam="1">  1        1 0.36124097E+00 0.16435487E+04</pdfrwt>
<pdfrwt beam="2">  1       -1 0.44246755E-01 0.16435487E+04</pdfrwt>
<totfact> 0.83462347E+00</totfact>
</mgrwt>
</event>
<event>
 6    1  0.5196787E-004  0.1750354E+04  0.7818608E-02  0.8733155E-01
          2   -1    0    0  501    0  0.00000000000E+00  0.00000000000E+00  0.32602526710E+04  0.32602526710E+04  0.00000000000E+00 0.  1.
         -2   -1    0    0    0  501 -0.00000000000E+00 -0.00000000000E+00 -0.23493117371E+03  0.23493117371E+03  0.00000000000E+00 0. -1.
         23    2    1    2    0    0  0.42534014937E+03  0.62326760613E+03  0.64089271711E+03  0.99420856309E+03  0.91271247168E+02 0.  0.
         13    1    3    3    0    0  0.20525102177E+03  0.32808337961E+03  0.27214702484E+03  0.47310748149E+03  0.00000000000E+00 0. -1.
        -13    1    3    3    0    0  0.22008912759E+03  0.29518422652E+03  0.36874569228E+03  0.52110108160E+03  0.00000000000E+00 0.  1.
         22    1    1    2    0    0 -0.42534014937E+03 -0.62326760613E+03  0.23844287802E+04  0.25009752816E+04  0.00000000000E+00 0.  1.
<mgrwt>
<rscale>  0 0.17503542E+04</rscale>
<asrwt>0</asrwt>
<pdfrwt beam="1">  1        2 0.50157730E+00 0.17503542E+04</pdfrwt>
<pdfrwt beam="2">  1       -2 0.36143260E-01 0.17503542E+04</pdfrwt>
<totfact> 0.81334093E+00</totfact>
</mgrwt>
</event>
<event>
 6    1  0.5196787E-004  0.2377157E+04  0.7818608E-02  0.8448106E-01
         -2   -1    0    0    0  501 -0.00000000000E+00  0.00000000000E+00  0.15348064046E+04  0.15348064046E+04  0.00000000000E+00 0. -1.
          2   -1    0    0  501    0  0.00000000000E+00 -0.00000000000E+00 -0.92045398624E+03  0.92045398624E+03  0.00000000000E+00 0.  1.
         23    2    1    2    0    0 -0.94738168496E+03 -0.12723353680E+03 -0.41891736735E+03  0.10476500471E+04  0.91424452719E+02 0.  0.
         13    1    3    3    0    0 -0.60363846191E+03 -0.12381282868E+03 -0.25665817476E+03  0.66751960864E+03  0.00000000000E+00 0. -1.
        -13    1    3    3    0    0 -0.34374322304E+03 -0.34207081211E+01 -0.16225919259E+03  0.38013043842E+03  0.00000000000E+00 0.  1.
         22    1    1    2    0    0  0.94738168496E+03  0.12723353680E+03  0.10332697858E+04  0.14076103438E+04  0.00000000000E+00 0. -1.
<mgrwt>
<rscale>  0 0.23771569E+04</rscale>
<asrwt>0</asrwt>
<pdfrwt beam="1">  1        2 0.14160831E+00 0.23771569E+04</pdfrwt>
<pdfrwt beam="2">  1       -2 0.23612406E+00 0.23771569E+04</pdfrwt>
<totfact> 0.20032425E+00</totfact>
</mgrwt>
</event>
<event>
 6    1  0.5196787E-004  0.3345079E+04  0.7818608E-02  0.8151519E-01
          2   -1    0    0  501    0  0.00000000000E+00  0.00000000000E+00  0.15381295994E+04  0.15381295994E+04  0.00000000000E+00 0.  1.
         -2   -1    0    0    0  501 -0.00000000000E+00 -0.00000000000E+00 -0.18186951359E+04  0.18186951359E+04  0.00000000000E+00 0. -1.
         23    2    1    2    0    0  0.11264080988E+04 -0.61902024096E+03 -0.12124355430E+04  0.17692596270E+04  0.91095652503E+02 0.  0.
         11    1    3    3    0    0  0.59209618006E+03 -0.32262969033E+03 -0.69829207416E+03  0.97071088609E+03  0.00000000000E+00 0.  1.
        -11    1    3    3    0    0  0.53431191874E+03 -0.29639055062E+03 -0.51414346887E+03  0.79854874090E+03  0.00000000000E+00 0. -1.
         22    1    1    2    0    0 -0.11264080988E+04  0.61902024096E+03  0.93187000653E+03  0.15875651082E+04  0.00000000000E+00 0.  1.
<mgrwt>
<rscale>  0 0.33450793E+04</rscale>
<asrwt>0</asrwt>
<pdfrwt beam="1">  1        2 0.23663532E+00 0.33450793E+04</pdfrwt>
<pdfrwt beam="2">  1       -2 0.27979925E+00 0.33450793E+04</pdfrwt>
<totfact> 0.42452704E-01</totfact>
</mgrwt>
</event>
<event>
 6    1  0.5196787E-004  0.6917854E+04  0.7818608E-02  0.7585967E-01
          2   -1    0    0  501    0  0.00000000000E+00  0.00000000000E+00  0.37680927745E+04  0.37680927745E+04  0.00000000000E+00 0.  1.
         -2   -1    0    0    0  501 -0.00000000000E+00 -0.00000000000E+00 -0.31751280801E+04  0.31751280801E+04  0.00000000000E+00 0. -1.
         23    2    1    2    0    0 -0.64484867266E+02 -0.27360155434E+04  0.24185244321E+04  0.36534476546E+04  0.92086831630E+02 0.  0.
         13    1    3    3    0    0 -0.69100636766E+02 -0.24669663836E+04  0.21462630328E+04  0.32706487188E+04  0.00000000000E+00 0. -1.
        -13    1    3    3    0    0  0.46157695003E+01 -0.26904915981E+03  0.27226139933E+03  0.38279893585E+03  0.00000000000E+00 0.  1.
         22    1    1    2    0    0  0.64484867266E+02  0.27360155434E+04 -0.18255597377E+04  0.32897732000E+04  0.00000000000E+00 0. -1.
<mgrwt>
<rscale>  0 0.69178543E+04</rscale>
<asrwt>0</asrwt>
<pdfrwt beam="1">  1        2 0.57970658E+00 0.69178543E+04</pdfrwt>
<pdfrwt beam="2">  1       -2 0.48848124E+00 0.69178543E+04</pdfrwt>
<totfact> 0.64031105E-04</totfact>
</mgrwt>
</event>
<event>
 6    1  0.5196787E-004  0.2524399E+04  0.7818608E-02  0.8394345E-01
          2   -1    0    0  501    0  0.00000000000E+00  0.00000000000E+00  0.11589972672E+04  0.11589972672E+04  0.00000000000E+00 0.  1.
         -2   -1    0    0    0  501 -0.00000000000E+00 -0.00000000000E+00 -0.13745912011E+04  0.13745912011E+04  0.00000000000E+00 0. -1.
         23    2    1    2    0    0  0.22478426454E+03  0.48658647206E+03 -0.12530224401E+04  0.13658760612E+04  0.90872541539E+02 0.  0.
         11    1    3    3    0    0  0.17981034426E+03  0.39071682345E+03 -0.90326448679E+03  0.10004389682E+04  0.00000000000E+00 0. -1.
        -11    1    3    3    0    0  0.44973920289E+02  0.95869648605E+02 -0.34975795329E+03  0.36543709297E+03  0.00000000000E+00 0.  1.
         22    1    1    2    0    0 -0.22478426454E+03 -0.48658647206E+03  0.10374285061E+04  0.11677124071E+04  0.00000000000E+00 0.  1.
<mgrwt>
<rscale>  0 0.25243989E+04</rscale>
<asrwt>0</asrwt>
<pdfrwt beam="1">  1        2 0.17830727E+00 0.25243989E+04</pdfrwt>
<pdfrwt beam="2">  1       -2 0.21147557E+00 0.25243989E+04</pdfrwt>
<totfact> 0.19991016E+00</totfact>
</mgrwt>
</event>
<event>
 6    1  0.5196787E-004  0.2726514E+04  0.7818608E-02  0.8326453E-01
         -1   -1    0    0    0  501 -0.00000000000E+00  0.00000000000E+00  0.21004408155E+04  0.21004408155E+04  0.00000000000E+00 0. -1.
          1   -1    0    0  501    0  0.00000000000E+00 -0.00000000000E+00 -0.88479957884E+03  0.88479957884E+03  0.00000000000E+00 0.  1.
         23    2    1    2    0    0 -0.11270951018E+04 -0.47335346324E+03 -0.46938693748E+02  0.12278232696E+04  0.10459383708E+03 0.  0.
         11    1    3    3    0    0 -0.73313040521E+03 -0.28407067436E+03 -0.75223392793E+02  0.78983219604E+03  0.00000000000E+00 0. -1.
        -11    1    3    3    0    0 -0.39396469657E+03 -0.18928278889E+03  0.28284699045E+02  0.43799107356E+03  0.00000000000E+00 0.  1.
         22    1    1    2    0    0  0.11270951018E+04  0.47335346324E+03  0.12625799304E+04  0.17574171247E+04  0.00000000000E+00 0. -1.
<mgrwt>
<rscale>  0 0.27265136E+04</rscale>
<asrwt>0</asrwt>
<pdfrwt beam="1">  1        1 0.13612301E+00 0.27265136E+04</pdfrwt>
<pdfrwt beam="2">  1       -1 0.32314474E+00 0.27265136E+04</pdfrwt>
<totfact> 0.38089187E-01</totfact>
</mgrwt>
</event>
<event>
 6    1  0.5196787E-004  0.1981133E+04  0.7818608E-02  0.8615493E-01
         -2   -1    0    0    0  501 -0.00000000000E+00  0.00000000000E+00  0.10041280254E+04  0.10041280254E+04  0.00000000000E+00 0. -1.
          2   -1    0    0  501    0  0.00000000000E+00 -0.00000000000E+00 -0.97718765988E+03  0.97718765988E+03  0.00000000000E+00 0.  1.
         23    2    1    2    0    0 -0.71972701451E+03 -0.64505138707E+03 -0.19402512192E+03  0.98989044146E+03  0.90216798790E+02 0.  0.
         13    1    3    3    0    0 -0.29365782332E+03 -0.30400645550E+03 -0.11822317621E+03  0.43889812209E+03  0.00000000000E+00 0. -1.
        -13    1    3    3    0    0 -0.42606919119E+03 -0.34104493157E+03 -0.75801945713E+02  0.55099231937E+03  0.00000000000E+00 0.  1.
         22    1    1    2    0    0  0.71972701451E+03  0.64505138707E+03  0.22096548740E+03  0.99142524378E+03  0.00000000000E+00 0. -1.
<mgrwt>
<rscale>  0 0.19811325E+04</rscale>
<asrwt>0</asrwt>
<pdfrwt beam="1">  1        2 0.15033656E+00 0.19811325E+04</pdfrwt>
<pdfrwt beam="2">  1       -2 0.15448123E+00 0.19811325E+04</pdfrwt>
<totfact> 0.67155679E+00</totfact>
</mgrwt>
</event>
<event>
 6    1  0.5196787E-004  0.3879391E+04  0.7818608E-02  0.8029329E-01
          2   -1    0    0  501    0  0.00000000000E+00  0.00000000000E+00  0.21360276497E+04  0.21360276497E+04  0.00000000000E+00 0.  1.
         -2   -1    0    0    0  501 -0.00000000000E+00 -0.00000000000E+00 -0.17614089225E+04  0.17614089225E+04  0.00000000000E+00 0. -1.
         23    2    1    2    0    0 -0.12928804913E+04 -0.11088985265E+04  0.11175590393E+04  0.20391695801E+04  0.89880272122E+02 0.  0.
         11    1    3    3    0    0 -0.68300112208E+03 -0.64325416718E+03  0.60293647629E+03  0.11152573025E+04  0.00000000000E+00 0. -1.
        -11    1    3    3    0    0 -0.60987936919E+03 -0.46564435929E+03  0.51462256298E+03  0.92391227756E+03  0.00000000000E+00 0.  1.
         22    1    1    2    0    0  0.12928804913E+04  0.11088985265E+04 -0.74294031206E+03  0.18582669921E+04  0.00000000000E+00 0. -1.
<mgrwt>
<rscale>  0 0.38793908E+04</rscale>
<asrwt>0</asrwt>
<pdfrwt beam="1">  1        2 0.32861964E+00 0.38793908E+04</pdfrwt>
<pdfrwt beam="2">  1       -2 0.27098599E+00 0.38793908E+04</pdfrwt>
<totfact> 0.21360335E-01</totfact>
</mgrwt>
</event>
<event>
 6    1  0.5196787E-004  0.2045534E+04  0.7818608E-02  0.8585623E-01
         -2   -1    0    0    0  501 -0.00000000000E+00  0.00000000000E+00  0.73137371254E+03  0.73137371254E+03  0.00000000000E+00 0. -1.
          2   -1    0    0  501    0  0.00000000000E+00 -0.00000000000E+00 -0.14302572782E+04  0.14302572782E+04  0.00000000000E+00 0.  1.
         23    2    1    2    0    0 -0.73852099282E+03 -0.60962750893E+03  0.23098271787E+02  0.96233255829E+03  0.92149151451E+02 0.  0.
         13    1    3    3    0    0 -0.26172431114E+03 -0.20426145475E+03  0.50970318975E+02  0.33588737748E+03  0.00000000000E+00 0.  1.
        -13    1    3    3    0    0 -0.47679668168E+03 -0.40536605418E+03 -0.27872047187E+02  0.62644518081E+03  0.00000000000E+00 0. -1.
         22    1    1    2    0    0  0.73852099282E+03  0.60962750893E+03 -0.72198183747E+03  0.11992984325E+04  0.00000000000E+00 0.  1.
<mgrwt>
<rscale>  0 0.20455342E+04</rscale>
<asrwt>0</asrwt>
<pdfrwt beam="1">  1        2 0.22003958E+00 0.20455342E+04</pdfrwt>
<pdfrwt beam="2">  1       -2 0.11251903E+00 0.20455342E+04</pdfrwt>
<totfact> 0.80056470E+00</totfact>
</mgrwt>
</event>
<event>
 6    1  0.5196787E-004  0.1627649E+04  0.7818608E-02  0.8803740E-01
          2   -1    0    0  501    0  0.00000000000E+00  0.00000000000E+00  0.21964787537E+04  0.21964787537E+04  0.00000000000E+00 0.  1.
         -2   -1    0    0    0  501 -0.00000000000E+00 -0.00000000000E+00 -0.30153270946E+03  0.30153270946E+03  0.00000000000E+00 0. -1.
         23    2    1    2    0    0 -0.43989802286E+03  0.51000652960E+03  0.25715424832E+03  0.72714193167E+03  0.94816404789E+02 0.  0.
         11    1    3    3    0    0 -0.21863194980E+03  0.28846733028E+03  0.18199753196E+03  0.40513754671E+03  0.00000000000E+00 0.  1.
        -11    1    3    3    0    0 -0.22126607306E+03  0.22153919932E+03  0.75156716355E+02  0.32200438497E+03  0.00000000000E+00 0. -1.
         22    1    1    2    0    0  0.43989802286E+03 -0.51000652960E+03  0.16377917960E+04  0.17708695315E+04  0.00000000000E+00 0.  1.
<mgrwt>
<rscale>  0 0.16276488E+04</rscale>
<asrwt>0</asrwt>
<pdfrwt beam="1">  1        2 0.33791980E+00 0.16276488E+04</pdfrwt>
<pdfrwt beam="2">  1       -2 0.46389649E-01 0.16276488E+04</pdfrwt>
<totfact> 0.21884100E+01</totfact>
</mgrwt>
</event>
<event>
 6    1  0.5196787E-004  0.4103830E+03  0.7818608E-02  0.1040243E+00
         -2   -1    0    0    0  501 -0.00000000000E+00  0.00000000000E+00  0.25262044698E+02  0.25262044698E+02  0.00000000000E+00 0. -1.
          2   -1    0    0  501    0  0.00000000000E+00 -0.00000000000E+00 -0.16666723697E+04  0.16666723697E+04  0.00000000000E+00 0.  1.
         23    2    1    2    0    0  0.85588572785E+02  0.12899088785E+03 -0.13497357020E+04  0.13617251798E+04  0.92438882450E+02 0.  0.
         11    1    3    3    0    0  0.30492059671E+01 -0.95588598252E+01 -0.25266077394E+03  0.25285991407E+03  0.00000000000E+00 0. -1.
        -11    1    3    3    0    0  0.82539366818E+02  0.13854974768E+03 -0.10970749281E+04  0.11088652657E+04  0.00000000000E+00 0.  1.
         22    1    1    2    0    0 -0.85588572785E+02 -0.12899088785E+03 -0.29167462301E+03  0.33020923465E+03  0.00000000000E+00 0. -1.
<mgrwt>
<rscale>  0 0.41038300E+03</rscale>
<asrwt>0</asrwt>
<pdfrwt beam="1">  1        2 0.25641116E+00 0.41038300E+03</pdfrwt>
<pdfrwt beam="2">  1       -2 0.38864680E-02 0.41038300E+03</pdfrwt>
<totfact> 0.31885984E+03</totfact>
</mgrwt>
</event>
<event>
 6    1  0.8298787E-004  0.3605902E+04  0.7818608E-02  0.8089141E-01
          2   -1    0    0  501    0  0.00000000000E+00  0.00000000000E+00  0.20152891190E+04  0.20152891190E+04  0.00000000000E+00 0.  1.
         -2   -1    0    0    0  501 -0.00000000000E+00 -0.00000000000E+00 -0.16129851959E+04  0.16129851959E+04  0.00000000000E+00 0. -1.
         23    2    1    2    0    0  0.93812227310E+03 -0.69570102340E+03  0.15819249473E+04  0.19682806179E+04  0.86998499205E+02 0.  0.
         11    1    3    3    0    0  0.51712048327E+03 -0.33945735935E+03  0.79387612127E+03  0.10064214768E+04  0.00000000000E+00 0. -1.
        -11    1    3    3    0    0  0.42100178984E+03 -0.35624366405E+03  0.78804882602E+03  0.96185914115E+03  0.00000000000E+00 0.  1.
         22    1    1    2    0    0 -0.93812227310E+03  0.69570102340E+03 -0.11796210241E+04  0.16599936969E+04  0.00000000000E+00 0. -1.
<mgrwt>
<rscale>  0 0.36059016E+04</rscale>
<asrwt>0</asrwt>
<pdfrwt beam="1">  1        2 0.31004448E+00 0.36059016E+04</pdfrwt>
<pdfrwt beam="2">  1       -2 0.24815157E+00 0.36059016E+04</pdfrwt>
<totfact> 0.35210780E-01</totfact>
</mgrwt>
</event>
<event>
 6    1  0.5196787E-004  0.1873759E+04  0.7818608E-02  0.8668029E-01
          2   -1    0    0  501    0  0.00000000000E+00  0.00000000000E+00  0.20528139234E+04  0.20528139234E+04  0.00000000000E+00 0.  1.
         -2   -1    0    0    0  501 -0.00000000000E+00 -0.00000000000E+00 -0.42758064288E+03  0.42758064288E+03  0.00000000000E+00 0. -1.
         23    2    1    2    0    0 -0.87266721781E+03  0.32184608482E+03  0.93729508124E+03  0.13235056600E+04  0.89510823186E+02 0.  0.
         13    1    3    3    0    0 -0.76079609077E+03  0.30055446052E+03  0.78884164097E+03  0.11364043339E+04  0.00000000000E+00 0. -1.
        -13    1    3    3    0    0 -0.11187112704E+03  0.21291624297E+02  0.14845344026E+03  0.18710132617E+03  0.00000000000E+00 0.  1.
         22    1    1    2    0    0  0.87266721781E+03 -0.32184608482E+03  0.68793819927E+03  0.11568889062E+04  0.00000000000E+00 0. -1.
<mgrwt>
<rscale>  0 0.18737593E+04</rscale>
<asrwt>0</asrwt>
<pdfrwt beam="1">  1        2 0.31581752E+00 0.18737593E+04</pdfrwt>
<pdfrwt beam="2">  1       -2 0.65781639E-01 0.18737593E+04</pdfrwt>
<totfact> 0.12467055E+01</totfact>
</mgrwt>
</event>
<event>
 6    1  0.5196787E-004  0.2524781E+04  0.7818608E-02  0.8394210E-01
         -2   -1    0    0    0  501 -0.00000000000E+00  0.00000000000E+00  0.47637089515E+03  0.47637089515E+03  0.00000000000E+00 0. -1.
          2   -1    0    0  501    0  0.00000000000E+00 -0.00000000000E+00 -0.33453546075E+04  0.33453546075E+04  0.00000000000E+00 0.  1.
         23    2    1    2    0    0  0.12267141770E+04 -0.26226027427E+03 -0.16274566580E+04  0.20567899372E+04  0.90341290253E+02 0.  0.
         11    1    3    3    0    0  0.95535032492E+03 -0.18118478576E+03 -0.12093289422E+04  0.15517727477E+04  0.00000000000E+00 0.  1.
        -11    1    3    3    0    0  0.27136385204E+03 -0.81075488510E+02 -0.41812771572E+03  0.50501718949E+03  0.00000000000E+00 0. -1.
         22    1    1    2    0    0 -0.12267141770E+04  0.26226027427E+03 -0.12415270544E+04  0.17649355654E+04  0.00000000000E+00 0.  1.
<mgrwt>
<rscale>  0 0.25247808E+04</rscale>
<asrwt>0</asrwt>
<pdfrwt beam="1">  1        2 0.51466992E+00 0.25247808E+04</pdfrwt>
<pdfrwt beam="2">  1       -2 0.73287833E-01 0.25247808E+04</pdfrwt>
<totfact> 0.15544656E+00</totfact>
</mgrwt>
</event>
<event>
 6    1  0.5196787E-004  0.1175370E+04  0.7818608E-02  0.9134693E-01
          2   -1    0    0  501    0  0.00000000000E+00  0.00000000000E+00  0.45888689147E+03  0.45888689147E+03  0.00000000000E+00 0.  1.
         -2   -1    0    0    0  501 -0.00000000000E+00 -0.00000000000E+00 -0.75263322100E+03  0.75263322100E+03  0.00000000000E+00 0. -1.
         23    2    1    2    0    0 -0.21820058601E+03  0.51700863980E+03  0.19957104485E+02  0.56862099606E+03  0.89566298253E+02 0.  0.
         11    1    3    3    0    0 -0.32258017679E+02  0.22502839669E+02 -0.54176849500E+01  0.39702755672E+02  0.00000000000E+00 0. -1.
        -11    1    3    3    0    0 -0.18594256833E+03  0.49450580013E+03  0.25374789435E+02  0.52891824039E+03  0.00000000000E+00 0.  1.
         22    1    1    2    0    0  0.21820058601E+03 -0.51700863980E+03 -0.31370343402E+03  0.64289911640E+03  0.00000000000E+00 0. -1.
<mgrwt>
<rscale>  0 0.11753698E+04</rscale>
<asrwt>0</asrwt>
<pdfrwt beam="1">  1        2 0.70597984E-01 0.11753698E+04</pdfrwt>
<pdfrwt beam="2">  1       -2 0.11578973E+00 0.11753698E+04</pdfrwt>
<totfact> 0.38963629E+01</totfact>
</mgrwt>
</event>
<event>
 6    1  0.5196787E-004  0.4762487E+04  0.7818608E-02  0.7866228E-01
          2   -1    0    0  501    0  0.00000000000E+00  0.00000000000E+00  0.25609120206E+04  0.25609120206E+04  0.00000000000E+00 0. -1.
         -2   -1    0    0    0  501 -0.00000000000E+00 -0.00000000000E+00 -0.22141804149E+04  0.22141804149E+04  0.00000000000E+00 0.  1.
         23    2    1    2    0    0 -0.70145054300E+03  0.11712830740E+04 -0.17816515575E+04  0.22464659718E+04  0.91597960550E+02 0.  0.
         11    1    3    3    0    0 -0.69026838548E+03  0.11242055718E+04 -0.17040765880E+04  0.21550372687E+04  0.00000000000E+00 0. -1.
        -11    1    3    3    0    0 -0.11182157525E+02  0.47077502193E+02 -0.77574969413E+02  0.91428703038E+02  0.00000000000E+00 0.  1.
         22    1    1    2    0    0  0.70145054300E+03 -0.11712830740E+04  0.21283831632E+04  0.25286264638E+04  0.00000000000E+00 0. -1.
<mgrwt>
<rscale>  0 0.47624873E+04</rscale>
<asrwt>0</asrwt>
<pdfrwt beam="1">  1        2 0.39398647E+00 0.47624873E+04</pdfrwt>
<pdfrwt beam="2">  1       -2 0.34064314E+00 0.47624873E+04</pdfrwt>
<totfact> 0.42399534E-02</totfact>
</mgrwt>
</event>
<event>
 6    1  0.5196787E-004  0.1854701E+04  0.7818608E-02  0.8677739E-01
         -2   -1    0    0    0  501 -0.00000000000E+00  0.00000000000E+00  0.74743457473E+03  0.74743457473E+03  0.00000000000E+00 0. -1.
          2   -1    0    0  501    0  0.00000000000E+00 -0.00000000000E+00 -0.11505745204E+04  0.11505745204E+04  0.00000000000E+00 0.  1.
         23    2    1    2    0    0  0.99667012071E+02  0.49084969697E+03 -0.99793677232E+03  0.11204165262E+04  0.92673902546E+02 0.  0.
         13    1    3    3    0    0  0.57580007536E+02  0.34356225578E+03 -0.77760278418E+03  0.85206606014E+03  0.00000000000E+00 0. -1.
        -13    1    3    3    0    0  0.42087004535E+02  0.14728744119E+03 -0.22033398814E+03  0.26835046602E+03  0.00000000000E+00 0.  1.
         22    1    1    2    0    0 -0.99667012071E+02 -0.49084969697E+03  0.59479682666E+03  0.77759256897E+03  0.00000000000E+00 0. -1.
<mgrwt>
<rscale>  0 0.18547012E+04</rscale>
<asrwt>0</asrwt>
<pdfrwt beam="1">  1        2 0.17701146E+00 0.18547012E+04</pdfrwt>
<pdfrwt beam="2">  1       -2 0.11498994E+00 0.18547012E+04</pdfrwt>
<totfact> 0.11247620E+01</totfact>
</mgrwt>
</event>
<event>
 6    1  0.5196787E-004  0.1876217E+04  0.7818608E-02  0.8666786E-01
          2   -1    0    0  501    0  0.00000000000E+00  0.00000000000E+00  0.51743601201E+03  0.51743601201E+03  0.00000000000E+00 0.  1.
         -2   -1    0    0    0  501 -0.00000000000E+00 -0.00000000000E+00 -0.17007845202E+04  0.17007845202E+04  0.00000000000E+00 0. -1.
         23    2    1    2    0    0  0.58445444594E+03 -0.57253606452E+03 -0.11303444777E+04  0.13983461688E+04  0.91152756025E+02 0.  0.
         13    1    3    3    0    0  0.37834104590E+03 -0.40973077138E+03 -0.82149764280E+03  0.99291471394E+03  0.00000000000E+00 0. -1.
        -13    1    3    3    0    0  0.20611340005E+03 -0.16280529313E+03 -0.30884683491E+03  0.40543145485E+03  0.00000000000E+00 0.  1.
         22    1    1    2    0    0 -0.58445444594E+03  0.57253606452E+03 -0.53004030488E+02  0.81987436343E+03  0.00000000000E+00 0.  1.
<mgrwt>
<rscale>  0 0.18762166E+04</rscale>
<asrwt>0</asrwt>
<pdfrwt beam="1">  1        2 0.79605540E-01 0.18762166E+04</pdfrwt>
<pdfrwt beam="2">  1       -2 0.26165916E+00 0.18762166E+04</pdfrwt>
<totfact> 0.30262113E+00</totfact>
</mgrwt>
</event>
<event>
 6    1  0.5196787E-004  0.2596523E+04  0.7818608E-02  0.8369383E-01
         -2   -1    0    0    0  501 -0.00000000000E+00  0.00000000000E+00  0.81078995157E+03  0.81078995157E+03  0.00000000000E+00 0. -1.
          2   -1    0    0  501    0  0.00000000000E+00 -0.00000000000E+00 -0.20788155331E+04  0.20788155331E+04  0.00000000000E+00 0.  1.
         23    2    1    2    0    0 -0.10045087860E+04  0.19433639263E+03 -0.15212751233E+04  0.18355941636E+04  0.91232657430E+02 0.  0.
         11    1    3    3    0    0 -0.62691725936E+03  0.10991699406E+03 -0.10212733742E+04  0.12033728851E+04  0.00000000000E+00 0.  1.
        -11    1    3    3    0    0 -0.37759152661E+03  0.84419398566E+02 -0.50000174911E+03  0.63222127846E+03  0.00000000000E+00 0. -1.
         22    1    1    2    0    0  0.10045087860E+04 -0.19433639263E+03  0.25324954183E+03  0.10540113211E+04  0.00000000000E+00 0. -1.
<mgrwt>
<rscale>  0 0.25965229E+04</rscale>
<asrwt>0</asrwt>
<pdfrwt beam="1">  1        2 0.31981777E+00 0.25965229E+04</pdfrwt>
<pdfrwt beam="2">  1       -2 0.12473692E+00 0.25965229E+04</pdfrwt>
<totfact> 0.25752804E+00</totfact>
</mgrwt>
</event>
<event>
 6    1  0.5196787E-004  0.1623359E+04  0.7818608E-02  0.8806325E-01
         -2   -1    0    0    0  501 -0.00000000000E+00  0.00000000000E+00  0.11124095866E+04  0.11124095866E+04  0.00000000000E+00 0. -1.
          2   -1    0    0  501    0  0.00000000000E+00 -0.00000000000E+00 -0.59224939274E+03  0.59224939274E+03  0.00000000000E+00 0.  1.
         23    2    1    2    0    0 -0.76611286976E+03  0.11446574139E+03  0.50652350276E+03  0.92992205977E+03  0.90319672535E+02 0.  0.
         13    1    3    3    0    0 -0.59680540862E+03  0.11252060938E+03  0.42987027340E+03  0.74406050510E+03  0.00000000000E+00 0. -1.
        -13    1    3    3    0    0 -0.16930746114E+03  0.19451320063E+01  0.76653229360E+02  0.18586155468E+03  0.00000000000E+00 0.  1.
         22    1    1    2    0    0  0.76611286976E+03 -0.11446574139E+03  0.13636691075E+02  0.77473691954E+03  0.00000000000E+00 0.  1.
<mgrwt>
<rscale>  0 0.16233594E+04</rscale>
<asrwt>0</asrwt>
<pdfrwt beam="1">  1        2 0.91115291E-01 0.16233594E+04</pdfrwt>
<pdfrwt beam="2">  1       -2 0.17113994E+00 0.16233594E+04</pdfrwt>
<totfact> 0.10079700E+01</totfact>
</mgrwt>
</event>
<event>
 6    1  0.5196787E-004  0.3290310E+04  0.7818608E-02  0.8165365E-01
          2   -1    0    0  501    0  0.00000000000E+00  0.00000000000E+00  0.15958648196E+04  0.15958648196E+04  0.00000000000E+00 0.  1.
         -2   -1    0    0    0  501 -0.00000000000E+00 -0.00000000000E+00 -0.16959674140E+04  0.16959674140E+04  0.00000000000E+00 0. -1.
         23    2    1    2    0    0  0.83575281601E+03 -0.13127244869E+04 -0.58026544472E+03  0.16632485818E+04  0.89216089932E+02 0.  0.
         13    1    3    3    0    0  0.21420195834E+03 -0.30834566775E+03 -0.17779878291E+03  0.41541778607E+03  0.00000000000E+00 0.  1.
        -13    1    3    3    0    0  0.62155085767E+03 -0.10043788191E+04 -0.40246666182E+03  0.12478307958E+04  0.00000000000E+00 0. -1.
         22    1    1    2    0    0 -0.83575281601E+03  0.13127244869E+04  0.48016285026E+03  0.16285836517E+04  0.00000000000E+00 0.  1.
<mgrwt>
<rscale>  0 0.32903099E+04</rscale>
<asrwt>0</asrwt>
<pdfrwt beam="1">  1        2 0.24551766E+00 0.32903099E+04</pdfrwt>
<pdfrwt beam="2">  1       -2 0.26091806E+00 0.32903099E+04</pdfrwt>
<totfact> 0.51614095E-01</totfact>
</mgrwt>
</event>
<event>
 6    1  0.7574624E-004  0.4244289E+04  0.7818608E-02  0.7957001E-01
          4   -1    0    0  501    0  0.00000000000E+00  0.00000000000E+00  0.20438747641E+04  0.20438747641E+04  0.00000000000E+00 0.  1.
         -4   -1    0    0    0  501 -0.00000000000E+00 -0.00000000000E+00 -0.22034118841E+04  0.22034118841E+04  0.00000000000E+00 0. -1.
         23    2    1    2    0    0 -0.19706420848E+04  0.32244449076E+03  0.63632450459E+03  0.20976828704E+04  0.89240536725E+02 0.  0.
         13    1    3    3    0    0 -0.88357690067E+03  0.12587782020E+03  0.24206952905E+03  0.92474376013E+03  0.00000000000E+00 0. -1.
        -13    1    3    3    0    0 -0.10870651842E+04  0.19656667056E+03  0.39425497554E+03  0.11729391102E+04  0.00000000000E+00 0.  1.
         22    1    1    2    0    0  0.19706420848E+04 -0.32244449076E+03 -0.79586162464E+03  0.21496037778E+04  0.00000000000E+00 0. -1.
<mgrwt>
<rscale>  0 0.42442893E+04</rscale>
<asrwt>0</asrwt>
<pdfrwt beam="1">  1        4 0.31444227E+00 0.42442893E+04</pdfrwt>
<pdfrwt beam="2">  1       -4 0.33898644E+00 0.42442893E+04</pdfrwt>
<totfact> 0.66076058E-04</totfact>
</mgrwt>
</event>
<event>
 6    1  0.5196787E-004  0.4661023E+04  0.7818608E-02  0.7883037E-01
          1   -1    0    0  501    0  0.00000000000E+00  0.00000000000E+00  0.29404082932E+04  0.29404082932E+04  0.00000000000E+00 0.  1.
         -1   -1    0    0    0  501 -0.00000000000E+00 -0.00000000000E+00 -0.18471188593E+04  0.18471188593E+04  0.00000000000E+00 0. -1.
         23    2    1    2    0    0 -0.11867449161E+04 -0.19592810198E+04  0.98252531755E+03  0.24941858566E+04  0.91986289340E+02 0.  0.
         11    1    3    3    0    0 -0.86008478456E+03 -0.14627569235E+04  0.69074612597E+03  0.18320845680E+04  0.00000000000E+00 0.  1.
        -11    1    3    3    0    0 -0.32666013151E+03 -0.49652409628E+03  0.29177919158E+03  0.66210128858E+03  0.00000000000E+00 0. -1.
         22    1    1    2    0    0  0.11867449161E+04  0.19592810198E+04  0.11076411631E+03  0.22933412959E+04  0.00000000000E+00 0.  1.
<mgrwt>
<rscale>  0 0.46610229E+04</rscale>
<asrwt>0</asrwt>
<pdfrwt beam="1">  1        1 0.45237051E+00 0.46610229E+04</pdfrwt>
<pdfrwt beam="2">  1       -1 0.28417213E+00 0.46610229E+04</pdfrwt>
<totfact> 0.20486185E-02</totfact>
</mgrwt>
</event>
<event>
 6    1  0.5196787E-004  0.2288471E+04  0.7818608E-02  0.8482481E-01
          2   -1    0    0  501    0  0.00000000000E+00  0.00000000000E+00  0.24181558098E+04  0.24181558098E+04  0.00000000000E+00 0.  1.
         -2   -1    0    0    0  501 -0.00000000000E+00 -0.00000000000E+00 -0.54143528563E+03  0.54143528563E+03  0.00000000000E+00 0. -1.
         23    2    1    2    0    0  0.22905197607E+03 -0.34066380978E+03 -0.43887148460E+03  0.60789320026E+03  0.91702365833E+02 0.  0.
         13    1    3    3    0    0  0.20029849508E+02 -0.71678849854E+02 -0.44281038564E+02  0.86601748042E+02  0.00000000000E+00 0. -1.
        -13    1    3    3    0    0  0.20902212656E+03 -0.26898495993E+03 -0.39459044603E+03  0.52129145222E+03  0.00000000000E+00 0.  1.
         22    1    1    2    0    0 -0.22905197607E+03  0.34066380978E+03  0.23155920087E+04  0.23516978951E+04  0.00000000000E+00 0.  1.
<mgrwt>
<rscale>  0 0.22884710E+04</rscale>
<asrwt>0</asrwt>
<pdfrwt beam="1">  1        2 0.37202396E+00 0.22884710E+04</pdfrwt>
<pdfrwt beam="2">  1       -2 0.83297738E-01 0.22884710E+04</pdfrwt>
<totfact> 0.44432798E+00</totfact>
</mgrwt>
</event>
<event>
 6    1  0.5196787E-004  0.1004446E+04  0.7818608E-02  0.9303682E-01
         -2   -1    0    0    0  501 -0.00000000000E+00  0.00000000000E+00  0.11574910164E+03  0.11574910164E+03  0.00000000000E+00 0. -1.
          2   -1    0    0  501    0  0.00000000000E+00 -0.00000000000E+00 -0.21790927446E+04  0.21790927446E+04  0.00000000000E+00 0.  1.
         23    2    1    2    0    0  0.15808121800E+03 -0.22946745882E+02 -0.21180854018E+04  0.21259842589E+04  0.89482261663E+02 0.  0.
         13    1    3    3    0    0  0.71769721614E+02 -0.19524252131E+02 -0.15058005355E+04  0.15076363427E+04  0.00000000000E+00 0. -1.
        -13    1    3    3    0    0  0.86311496390E+02 -0.34224937511E+01 -0.61228486631E+03  0.61834791613E+03  0.00000000000E+00 0.  1.
         22    1    1    2    0    0 -0.15808121800E+03  0.22946745882E+02  0.54741758858E+02  0.16885758732E+03  0.00000000000E+00 0. -1.
<mgrwt>
<rscale>  0 0.10044462E+04</rscale>
<asrwt>0</asrwt>
<pdfrwt beam="1">  1        2 0.33524501E+00 0.10044462E+04</pdfrwt>
<pdfrwt beam="2">  1       -2 0.17807555E-01 0.10044462E+04</pdfrwt>
<totfact> 0.13948667E+02</totfact>
</mgrwt>
</event>
<event>
 6    1  0.5196787E-004  0.1624650E+04  0.7818608E-02  0.8805546E-01
          2   -1    0    0  501    0  0.00000000000E+00  0.00000000000E+00  0.20271708998E+04  0.20271708998E+04  0.00000000000E+00 0.  1.
         -2   -1    0    0    0  501 -0.00000000000E+00 -0.00000000000E+00 -0.32551366780E+03  0.32551366780E+03  0.00000000000E+00 0. -1.
         23    2    1    2    0    0  0.11452816585E+03  0.74246763889E+03  0.41632738750E+03  0.86391067453E+03  0.92942263839E+02 0.  0.
         11    1    3    3    0    0  0.11770045086E+03  0.49948491553E+03  0.26374259554E+03  0.57697377208E+03  0.00000000000E+00 0.  1.
        -11    1    3    3    0    0 -0.31722850127E+01  0.24298272336E+03  0.15258479197E+03  0.28693690244E+03  0.00000000000E+00 0. -1.
         22    1    1    2    0    0 -0.11452816585E+03 -0.74246763889E+03  0.12853298445E+04  0.14887738931E+04  0.00000000000E+00 0.  1.
<mgrwt>
<rscale>  0 0.16246499E+04</rscale>
<asrwt>0</asrwt>
<pdfrwt beam="1">  1        2 0.31187244E+00 0.16246499E+04</pdfrwt>
<pdfrwt beam="2">  1       -2 0.50079027E-01 0.16246499E+04</pdfrwt>
<totfact> 0.23301194E+01</totfact>
</mgrwt>
</event>
<event>
 6    1  0.5196787E-004  0.8695621E+03  0.7818608E-02  0.9464451E-01
         -2   -1    0    0    0  501 -0.00000000000E+00  0.00000000000E+00  0.84187735575E+02  0.84187735575E+02  0.00000000000E+00 0. -1.
          2   -1    0    0  501    0  0.00000000000E+00 -0.00000000000E+00 -0.22453933279E+04  0.22453933279E+04  0.00000000000E+00 0.  1.
         23    2    1    2    0    0 -0.19930883846E+03 -0.30890657734E+03 -0.16906526172E+04  0.17324484241E+04  0.89016759959E+02 0.  0.
         13    1    3    3    0    0 -0.73344603891E+02 -0.16677137554E+03 -0.67290144442E+03  0.69712873741E+03  0.00000000000E+00 0. -1.
        -13    1    3    3    0    0 -0.12596423456E+03 -0.14213520180E+03 -0.10177511728E+04  0.10353196867E+04  0.00000000000E+00 0.  1.
         22    1    1    2    0    0  0.19930883846E+03  0.30890657734E+03 -0.47055297518E+03  0.59713263942E+03  0.00000000000E+00 0. -1.
<mgrwt>
<rscale>  0 0.86956214E+03</rscale>
<asrwt>0</asrwt>
<pdfrwt beam="1">  1        2 0.34544507E+00 0.86956214E+03</pdfrwt>
<pdfrwt beam="2">  1       -2 0.12951961E-01 0.86956214E+03</pdfrwt>
<totfact> 0.22254805E+02</totfact>
</mgrwt>
</event>
<event>
 6    1  0.5196787E-004  0.1113646E+04  0.7818608E-02  0.9191993E-01
          2   -1    0    0  501    0  0.00000000000E+00  0.00000000000E+00  0.40267131134E+03  0.40267131134E+03  0.00000000000E+00 0.  1.
         -2   -1    0    0    0  501 -0.00000000000E+00 -0.00000000000E+00 -0.76998704090E+03  0.76998704090E+03  0.00000000000E+00 0. -1.
         23    2    1    2    0    0 -0.36250376682E+03 -0.37072789283E+03 -0.38711630875E+03  0.65377472904E+03  0.93349924194E+02 0.  0.
         13    1    3    3    0    0 -0.30409275189E+02 -0.37572364454E+02 -0.66995371539E+01  0.48798467048E+02  0.00000000000E+00 0. -1.
        -13    1    3    3    0    0 -0.33209449163E+03 -0.33315552838E+03 -0.38041677160E+03  0.60497626199E+03  0.00000000000E+00 0.  1.
         22    1    1    2    0    0  0.36250376682E+03  0.37072789283E+03  0.19800579190E+02  0.51888362319E+03  0.00000000000E+00 0. -1.
<mgrwt>
<rscale>  0 0.11136457E+04</rscale>
<asrwt>0</asrwt>
<pdfrwt beam="1">  1        2 0.61949433E-01 0.11136457E+04</pdfrwt>
<pdfrwt beam="2">  1       -2 0.11845954E+00 0.11136457E+04</pdfrwt>
<totfact> 0.42916613E+01</totfact>
</mgrwt>
</event>
<event>
 6    1  0.5196787E-004  0.2380373E+04  0.7818608E-02  0.8446888E-01
          2   -1    0    0  501    0  0.00000000000E+00  0.00000000000E+00  0.13611104543E+04  0.13611104543E+04  0.00000000000E+00 0.  1.
         -2   -1    0    0    0  501 -0.00000000000E+00 -0.00000000000E+00 -0.10407265229E+04  0.10407265229E+04  0.00000000000E+00 0. -1.
         23    2    1    2    0    0  0.18090969894E+03 -0.43117358050E+03 -0.94193355597E+03  0.10557001287E+04  0.92870674814E+02 0.  0.
         11    1    3    3    0    0  0.11439600876E+03 -0.28560446605E+03 -0.51690279528E+03  0.60153541676E+03  0.00000000000E+00 0. -1.
        -11    1    3    3    0    0  0.66513690176E+02 -0.14556911445E+03 -0.42503076069E+03  0.45416471197E+03  0.00000000000E+00 0.  1.
         22    1    1    2    0    0 -0.18090969894E+03  0.43117358050E+03  0.12623174874E+04  0.13461368484E+04  0.00000000000E+00 0.  1.
<mgrwt>
<rscale>  0 0.23803729E+04</rscale>
<asrwt>0</asrwt>
<pdfrwt beam="1">  1        2 0.20940161E+00 0.23803729E+04</pdfrwt>
<pdfrwt beam="2">  1       -2 0.16011177E+00 0.23803729E+04</pdfrwt>
<totfact> 0.34503285E+00</totfact>
</mgrwt>
</event>
<event>
 6    1  0.5196787E-004  0.1213687E+04  0.7818608E-02  0.9100960E-01
          2   -1    0    0  501    0  0.00000000000E+00  0.00000000000E+00  0.26606504407E+03  0.26606504407E+03  0.00000000000E+00 0.  1.
         -2   -1    0    0    0  501 -0.00000000000E+00 -0.00000000000E+00 -0.13840944358E+04  0.13840944358E+04  0.00000000000E+00 0. -1.
         23    2    1    2    0    0  0.20818567282E+03 -0.49336037863E+03 -0.93959929595E+03  0.10857278749E+04  0.95981476542E+02 0.  0.
         13    1    3    3    0    0  0.10809704704E+03 -0.27842259000E+03 -0.42858265605E+03  0.52238606726E+03  0.00000000000E+00 0.  1.
        -13    1    3    3    0    0  0.10008862579E+03 -0.21493778863E+03 -0.51101663990E+03  0.56334180765E+03  0.00000000000E+00 0. -1.
         22    1    1    2    0    0 -0.20818567282E+03  0.49336037863E+03 -0.17843009575E+03  0.56443160492E+03  0.00000000000E+00 0.  1.
<mgrwt>
<rscale>  0 0.12136872E+04</rscale>
<asrwt>0</asrwt>
<pdfrwt beam="1">  1        2 0.40933083E-01 0.12136872E+04</pdfrwt>
<pdfrwt beam="2">  1       -2 0.21293761E+00 0.12136872E+04</pdfrwt>
<totfact> 0.13568029E+01</totfact>
</mgrwt>
</event>
<event>
 6    1  0.5196787E-004  0.2885449E+04  0.7818608E-02  0.8277220E-01
         -2   -1    0    0    0  501 -0.00000000000E+00  0.00000000000E+00  0.10590548757E+04  0.10590548757E+04  0.00000000000E+00 0. -1.
          2   -1    0    0  501    0  0.00000000000E+00 -0.00000000000E+00 -0.19653880545E+04  0.19653880545E+04  0.00000000000E+00 0.  1.
         23    2    1    2    0    0 -0.13887912714E+04 -0.10237962735E+03 -0.64124121522E+02  0.13970097119E+04  0.91112285235E+02 0.  0.
         11    1    3    3    0    0 -0.48100307057E+03  0.40095935858E+01 -0.40179878242E+02  0.48269498998E+03  0.00000000000E+00 0.  1.
        -11    1    3    3    0    0 -0.90778820085E+03 -0.10638922094E+03 -0.23944243279E+02  0.91431472192E+03  0.00000000000E+00 0. -1.
         22    1    1    2    0    0  0.13887912714E+04  0.10237962735E+03 -0.84220905736E+03  0.16274332183E+04  0.00000000000E+00 0.  1.
<mgrwt>
<rscale>  0 0.28854489E+04</rscale>
<asrwt>0</asrwt>
<pdfrwt beam="1">  1        2 0.30236739E+00 0.28854489E+04</pdfrwt>
<pdfrwt beam="2">  1       -2 0.16293152E+00 0.28854489E+04</pdfrwt>
<totfact> 0.14466440E+00</totfact>
</mgrwt>
</event>
<event>
 6    1  0.5196787E-004  0.9307841E+03  0.7818608E-02  0.9387897E-01
         -2   -1    0    0    0  501 -0.00000000000E+00  0.00000000000E+00  0.14200227795E+03  0.14200227795E+03  0.00000000000E+00 0. -1.
          2   -1    0    0  501    0  0.00000000000E+00 -0.00000000000E+00 -0.15252555933E+04  0.15252555933E+04  0.00000000000E+00 0.  1.
         23    2    1    2    0    0  0.35040755017E+03  0.28579162343E+03 -0.85384243295E+03  0.97102645451E+03  0.96866773496E+02 0.  0.
         13    1    3    3    0    0  0.21888631767E+03  0.15189534043E+03 -0.58865774602E+03  0.64614344883E+03  0.00000000000E+00 0. -1.
        -13    1    3    3    0    0  0.13152123250E+03  0.13389628300E+03 -0.26518468693E+03  0.32488300569E+03  0.00000000000E+00 0.  1.
         22    1    1    2    0    0 -0.35040755017E+03 -0.28579162343E+03 -0.52941088237E+03  0.69623141671E+03  0.00000000000E+00 0. -1.
<mgrwt>
<rscale>  0 0.93078412E+03</rscale>
<asrwt>0</asrwt>
<pdfrwt beam="1">  1        2 0.23465470E+00 0.93078412E+03</pdfrwt>
<pdfrwt beam="2">  1       -2 0.21846505E-01 0.93078412E+03</pdfrwt>
<totfact> 0.22486231E+02</totfact>
</mgrwt>
</event>
<event>
 6    1  0.5196787E-004  0.3036056E+04  0.7818608E-02  0.8233509E-01
          2   -1    0    0  501    0  0.00000000000E+00  0.00000000000E+00  0.15116844646E+04  0.15116844646E+04  0.00000000000E+00 0.  1.
         -2   -1    0    0    0  501 -0.00000000000E+00 -0.00000000000E+00 -0.15243985253E+04  0.15243985253E+04  0.00000000000E+00 0. -1.
         23    2    1    2    0    0 -0.10601344060E+04 -0.28736183370E+03  0.10395067929E+04  0.15150206944E+04  0.90838041467E+02 0.  0.
         13    1    3    3    0    0 -0.64804629486E+03 -0.14275083629E+03  0.66928781157E+03  0.94249030566E+03  0.00000000000E+00 0. -1.
        -13    1    3    3    0    0 -0.41208811117E+03 -0.14461099741E+03  0.37021898129E+03  0.57253038875E+03  0.00000000000E+00 0.  1.
         22    1    1    2    0    0  0.10601344060E+04  0.28736183370E+03 -0.10522208535E+04  0.15210622955E+04  0.00000000000E+00 0. -1.
<mgrwt>
<rscale>  0 0.30360564E+04</rscale>
<asrwt>0</asrwt>
<pdfrwt beam="1">  1        2 0.23256684E+00 0.30360564E+04</pdfrwt>
<pdfrwt beam="2">  1       -2 0.23452285E+00 0.30360564E+04</pdfrwt>
<totfact> 0.85490119E-01</totfact>
</mgrwt>
</event>
<event>
 6    1  0.5196787E-004  0.2957756E+04  0.7818608E-02  0.8255898E-01
          2   -1    0    0  501    0  0.00000000000E+00  0.00000000000E+00  0.13999549741E+04  0.13999549741E+04  0.00000000000E+00 0.  1.
         -2   -1    0    0    0  501 -0.00000000000E+00 -0.00000000000E+00 -0.15622501746E+04  0.15622501746E+04  0.00000000000E+00 0. -1.
         23    2    1    2    0    0 -0.56754825606E+03  0.12430730240E+04 -0.64319136794E+03  0.15135496722E+04  0.98974281511E+02 0.  0.
         13    1    3    3    0    0 -0.43291644924E+03  0.98338295023E+03 -0.46284171350E+03  0.11699064623E+04  0.00000000000E+00 0.  1.
        -13    1    3    3    0    0 -0.13463180682E+03  0.25969007375E+03 -0.18034965444E+03  0.34364320984E+03  0.00000000000E+00 0. -1.
         22    1    1    2    0    0  0.56754825606E+03 -0.12430730240E+04  0.48089616744E+03  0.14486554766E+04  0.00000000000E+00 0.  1.
<mgrwt>
<rscale>  0 0.29577558E+04</rscale>
<asrwt>0</asrwt>
<pdfrwt beam="1">  1        2 0.21537769E+00 0.29577558E+04</pdfrwt>
<pdfrwt beam="2">  1       -2 0.24034618E+00 0.29577558E+04</pdfrwt>
<totfact> 0.91631050E-01</totfact>
</mgrwt>
</event>
<event>
 6    1  0.5196787E-004  0.2855663E+04  0.7818608E-02  0.8286193E-01
          2   -1    0    0  501    0  0.00000000000E+00  0.00000000000E+00  0.12535023148E+04  0.12535023148E+04  0.00000000000E+00 0.  1.
         -2   -1    0    0    0  501 -0.00000000000E+00 -0.00000000000E+00 -0.16264050461E+04  0.16264050461E+04  0.00000000000E+00 0. -1.
         23    2    1    2    0    0  0.81516849762E+02  0.84804449736E+03 -0.13403604765E+04  0.15907995474E+04  0.90843418567E+02 0.  0.
         11    1    3    3    0    0  0.15243435225E+01  0.36382612906E+03 -0.51514920633E+03  0.63067462339E+03  0.00000000000E+00 0. -1.
        -11    1    3    3    0    0  0.79992506240E+02  0.48421836830E+03 -0.82521127016E+03  0.96012492398E+03  0.00000000000E+00 0.  1.
         22    1    1    2    0    0 -0.81516849762E+02 -0.84804449736E+03  0.96745774510E+03  0.12891078135E+04  0.00000000000E+00 0.  1.
<mgrwt>
<rscale>  0 0.28556628E+04</rscale>
<asrwt>0</asrwt>
<pdfrwt beam="1">  1        2 0.19284651E+00 0.28556628E+04</pdfrwt>
<pdfrwt beam="2">  1       -2 0.25021616E+00 0.28556628E+04</pdfrwt>
<totfact> 0.97688119E-01</totfact>
</mgrwt>
</event>
<event>
 6    1  0.5196787E-004  0.2713742E+04  0.7818608E-02  0.8330560E-01
          2   -1    0    0  501    0  0.00000000000E+00  0.00000000000E+00  0.45115805647E+04  0.45115805647E+04  0.00000000000E+00 0.  1.
         -2   -1    0    0    0  501 -0.00000000000E+00 -0.00000000000E+00 -0.40808298368E+03  0.40808298368E+03  0.00000000000E+00 0. -1.
         23    2    1    2    0    0  0.15798691204E+03 -0.16221796873E+03  0.44763785317E+04  0.44834127751E+04  0.10840119369E+03 0.  0.
         13    1    3    3    0    0  0.33692096402E+02 -0.87870736496E+02  0.24813234276E+04  0.24831074033E+04  0.00000000000E+00 0. -1.
        -13    1    3    3    0    0  0.12429481564E+03 -0.74347232231E+02  0.19950551041E+04  0.20003053718E+04  0.00000000000E+00 0.  1.
         22    1    1    2    0    0 -0.15798691204E+03  0.16221796873E+03 -0.37288095073E+03  0.43625077327E+03  0.00000000000E+00 0. -1.
<mgrwt>
<rscale>  0 0.27137423E+04</rscale>
<asrwt>0</asrwt>
<pdfrwt beam="1">  1        2 0.69408928E+00 0.27137423E+04</pdfrwt>
<pdfrwt beam="2">  1       -2 0.62782001E-01 0.27137423E+04</pdfrwt>
<totfact> 0.24775099E-01</totfact>
</mgrwt>
</event>
<event>
 6    1  0.5196787E-004  0.3217506E+04  0.7818608E-02  0.8184209E-01
          2   -1    0    0  501    0  0.00000000000E+00  0.00000000000E+00  0.14115243146E+04  0.14115243146E+04  0.00000000000E+00 0.  1.
         -2   -1    0    0    0  501 -0.00000000000E+00 -0.00000000000E+00 -0.18335397513E+04  0.18335397513E+04  0.00000000000E+00 0. -1.
         23    2    1    2    0    0  0.78685714079E+03  0.13708279812E+04  0.84443259590E+02  0.15853008522E+04  0.87946653684E+02 0.  0.
         13    1    3    3    0    0  0.55377895941E+03  0.98350841862E+03  0.98940410270E+02  0.11330265443E+04  0.00000000000E+00 0. -1.
        -13    1    3    3    0    0  0.23307818138E+03  0.38731956262E+03 -0.14497150680E+02  0.45227430791E+03  0.00000000000E+00 0.  1.
         22    1    1    2    0    0 -0.78685714079E+03 -0.13708279812E+04 -0.50645869631E+03  0.16597632136E+04  0.00000000000E+00 0. -1.
<mgrwt>
<rscale>  0 0.32175058E+04</rscale>
<asrwt>0</asrwt>
<pdfrwt beam="1">  1        2 0.21715759E+00 0.32175058E+04</pdfrwt>
<pdfrwt beam="2">  1       -2 0.28208304E+00 0.32175058E+04</pdfrwt>
<totfact> 0.49010526E-01</totfact>
</mgrwt>
</event>
<event>
 6    1  0.5196787E-004  0.2476369E+04  0.7818608E-02  0.8411453E-01
         -2   -1    0    0    0  501 -0.00000000000E+00  0.00000000000E+00  0.11837899123E+04  0.11837899123E+04  0.00000000000E+00 0. -1.
          2   -1    0    0  501    0  0.00000000000E+00 -0.00000000000E+00 -0.12950788436E+04  0.12950788436E+04  0.00000000000E+00 0.  1.
         23    2    1    2    0    0  0.10606537573E+04 -0.28923607148E+03  0.51083439591E+03  0.12156659487E+04  0.90818614097E+02 0.  0.
         11    1    3    3    0    0  0.28987078231E+03 -0.63555953488E+02  0.97223657887E+02  0.31227691127E+03  0.00000000000E+00 0. -1.
        -11    1    3    3    0    0  0.77078297503E+03 -0.22568011800E+03  0.41361073802E+03  0.90338903738E+03  0.00000000000E+00 0.  1.
         22    1    1    2    0    0 -0.10606537573E+04  0.28923607148E+03 -0.62212332717E+03  0.12632028072E+04  0.00000000000E+00 0.  1.
<mgrwt>
<rscale>  0 0.24763693E+04</rscale>
<asrwt>0</asrwt>
<pdfrwt beam="1">  1        2 0.19924290E+00 0.24763693E+04</pdfrwt>
<pdfrwt beam="2">  1       -2 0.18212153E+00 0.24763693E+04</pdfrwt>
<totfact> 0.26073635E+00</totfact>
</mgrwt>
</event>
<event>
 6    1  0.5196787E-004  0.3175020E+04  0.7818608E-02  0.8195446E-01
         -2   -1    0    0    0  501 -0.00000000000E+00  0.00000000000E+00  0.62790348692E+03  0.62790348692E+03  0.00000000000E+00 0. -1.
          2   -1    0    0  501    0  0.00000000000E+00 -0.00000000000E+00 -0.40136556773E+04  0.40136556773E+04  0.00000000000E+00 0.  1.
         23    2    1    2    0    0  0.57552319950E+03  0.14779945097E+04 -0.17364374556E+04  0.23533428679E+04  0.85515454978E+02 0.  0.
         13    1    3    3    0    0  0.33132131090E+03  0.75012147167E+03 -0.86399179182E+03  0.11911917770E+04  0.00000000000E+00 0.  1.
        -13    1    3    3    0    0  0.24420188860E+03  0.72787303807E+03 -0.87244566375E+03  0.11621510909E+04  0.00000000000E+00 0. -1.
         22    1    1    2    0    0 -0.57552319950E+03 -0.14779945097E+04 -0.16493147348E+04  0.22882162962E+04  0.00000000000E+00 0.  1.
<mgrwt>
<rscale>  0 0.31750202E+04</rscale>
<asrwt>0</asrwt>
<pdfrwt beam="1">  1        2 0.61748549E+00 0.31750202E+04</pdfrwt>
<pdfrwt beam="2">  1       -2 0.96600536E-01 0.31750202E+04</pdfrwt>
<totfact> 0.25180291E-01</totfact>
</mgrwt>
</event>
<event>
 6    1  0.5196787E-004  0.2408240E+04  0.7818608E-02  0.8436425E-01
         -2   -1    0    0    0  501 -0.00000000000E+00  0.00000000000E+00  0.11697651242E+04  0.11697651242E+04  0.00000000000E+00 0. -1.
          2   -1    0    0  501    0  0.00000000000E+00 -0.00000000000E+00 -0.12394839044E+04  0.12394839044E+04  0.00000000000E+00 0.  1.
         23    2    1    2    0    0  0.11000444115E+04  0.11753655231E+03 -0.50607693137E+03  0.12199967490E+04  0.91463975376E+02 0.  0.
         11    1    3    3    0    0  0.66928891769E+03  0.27553102973E+02 -0.31587761571E+03  0.74059806706E+03  0.00000000000E+00 0. -1.
        -11    1    3    3    0    0  0.43075549377E+03  0.89983449341E+02 -0.19019931566E+03  0.47939868194E+03  0.00000000000E+00 0.  1.
         22    1    1    2    0    0 -0.11000444115E+04 -0.11753655231E+03  0.43635815114E+03  0.11892522795E+04  0.00000000000E+00 0. -1.
<mgrwt>
<rscale>  0 0.24082401E+04</rscale>
<asrwt>0</asrwt>
<pdfrwt beam="1">  1        2 0.19068983E+00 0.24082401E+04</pdfrwt>
<pdfrwt beam="2">  1       -2 0.17996387E+00 0.24082401E+04</pdfrwt>
<totfact> 0.29254749E+00</totfact>
</mgrwt>
</event>
<event>
 6    1  0.5196787E-004  0.1656348E+04  0.7818608E-02  0.8786660E-01
          2   -1    0    0  501    0  0.00000000000E+00  0.00000000000E+00  0.18493173822E+04  0.18493173822E+04  0.00000000000E+00 0.  1.
         -2   -1    0    0    0  501 -0.00000000000E+00 -0.00000000000E+00 -0.37087852208E+03  0.37087852208E+03  0.00000000000E+00 0. -1.
         23    2    1    2    0    0  0.72700915310E+03 -0.30984062895E+03  0.42122318431E+03  0.90025328839E+03  0.92105853351E+02 0.  0.
         11    1    3    3    0    0  0.38539840762E+03 -0.12216139184E+03  0.24264402584E+03  0.47152037234E+03  0.00000000000E+00 0. -1.
        -11    1    3    3    0    0  0.34161074548E+03 -0.18767923711E+03  0.17857915847E+03  0.42873291606E+03  0.00000000000E+00 0.  1.
         22    1    1    2    0    0 -0.72700915310E+03  0.30984062895E+03  0.10572156758E+04  0.13199426159E+04  0.00000000000E+00 0.  1.
<mgrwt>
<rscale>  0 0.16563479E+04</rscale>
<asrwt>0</asrwt>
<pdfrwt beam="1">  1        2 0.28451036E+00 0.16563479E+04</pdfrwt>
<pdfrwt beam="2">  1       -2 0.57058235E-01 0.16563479E+04</pdfrwt>
<totfact> 0.22271246E+01</totfact>
</mgrwt>
</event>
<event>
 6    1  0.5196787E-004  0.2318645E+04  0.7818608E-02  0.8470606E-01
         -2   -1    0    0    0  501 -0.00000000000E+00  0.00000000000E+00  0.53084843520E+03  0.53084843520E+03  0.00000000000E+00 0. -1.
          2   -1    0    0  501    0  0.00000000000E+00 -0.00000000000E+00 -0.25318505575E+04  0.25318505575E+04  0.00000000000E+00 0.  1.
         23    2    1    2    0    0  0.19367021477E+03  0.72240152105E+03 -0.21690483763E+04  0.22961406758E+04  0.90105686477E+02 0.  0.
         13    1    3    3    0    0  0.81940187428E+02  0.15984874621E+03 -0.49786297253E+03  0.52927625622E+03  0.00000000000E+00 0.  1.
        -13    1    3    3    0    0  0.11173002734E+03  0.56255277483E+03 -0.16711854038E+04  0.17668644196E+04  0.00000000000E+00 0. -1.
         22    1    1    2    0    0 -0.19367021477E+03 -0.72240152105E+03  0.16804625400E+03  0.76655831688E+03  0.00000000000E+00 0. -1.
<mgrwt>
<rscale>  0 0.23186452E+04</rscale>
<asrwt>0</asrwt>
<pdfrwt beam="1">  1        2 0.38951547E+00 0.23186452E+04</pdfrwt>
<pdfrwt beam="2">  1       -2 0.81668991E-01 0.23186452E+04</pdfrwt>
<totfact> 0.39840738E+00</totfact>
</mgrwt>
</event>
<event>
 6    1  0.5196787E-004  0.2816475E+04  0.7818608E-02  0.8298172E-01
         -2   -1    0    0    0  501 -0.00000000000E+00  0.00000000000E+00  0.33073311560E+04  0.33073311560E+04  0.00000000000E+00 0. -1.
          2   -1    0    0  501    0  0.00000000000E+00 -0.00000000000E+00 -0.59961729402E+03  0.59961729402E+03  0.00000000000E+00 0.  1.
         23    2    1    2    0    0 -0.46125449680E+03  0.33594637083E+03  0.31389832762E+04  0.31916799811E+04  0.89383546947E+02 0.  0.
         11    1    3    3    0    0 -0.30096115064E+03  0.26205277700E+03  0.22951704059E+04  0.23296043579E+04  0.00000000000E+00 0.  1.
        -11    1    3    3    0    0 -0.16029334616E+03  0.73893593832E+02  0.84381287031E+03  0.86207562321E+03  0.00000000000E+00 0. -1.
         22    1    1    2    0    0  0.46125449680E+03 -0.33594637083E+03 -0.43126941428E+03  0.71526846889E+03  0.00000000000E+00 0.  1.
<mgrwt>
<rscale>  0 0.28164751E+04</rscale>
<asrwt>0</asrwt>
<pdfrwt beam="1">  1        2 0.92248816E-01 0.28164751E+04</pdfrwt>
<pdfrwt beam="2">  1       -2 0.50882017E+00 0.28164751E+04</pdfrwt>
<totfact> 0.62539039E-02</totfact>
</mgrwt>
</event>
<event>
 6    1  0.5196787E-004  0.2135400E+04  0.7818608E-02  0.8545808E-01
          2   -1    0    0  501    0  0.00000000000E+00  0.00000000000E+00  0.55953970709E+03  0.55953970709E+03  0.00000000000E+00 0.  1.
         -2   -1    0    0    0  501 -0.00000000000E+00 -0.00000000000E+00 -0.20373581159E+04  0.20373581159E+04  0.00000000000E+00 0. -1.
         23    2    1    2    0    0  0.13572956924E+03  0.55673015439E+03 -0.18330186874E+04  0.19227033268E+04  0.91976050072E+02 0.  0.
         11    1    3    3    0    0  0.95812661237E+02  0.29543915624E+03 -0.85772467784E+03  0.91222584050E+03  0.00000000000E+00 0. -1.
        -11    1    3    3    0    0  0.39916908005E+02  0.26129099814E+03 -0.97529400955E+03  0.10104774863E+04  0.00000000000E+00 0.  1.
         22    1    1    2    0    0 -0.13572956924E+03 -0.55673015439E+03  0.35520027859E+03  0.67419449618E+03  0.00000000000E+00 0.  1.
<mgrwt>
<rscale>  0 0.21353995E+04</rscale>
<asrwt>0</asrwt>
<pdfrwt beam="1">  1        2 0.86083033E-01 0.21353995E+04</pdfrwt>
<pdfrwt beam="2">  1       -2 0.31343971E+00 0.21353995E+04</pdfrwt>
<totfact> 0.13039026E+00</totfact>
</mgrwt>
</event>
<event>
 6    1  0.5196787E-004  0.2846015E+04  0.7818608E-02  0.8289123E-01
         -2   -1    0    0    0  501 -0.00000000000E+00  0.00000000000E+00  0.16917736997E+04  0.16917736997E+04  0.00000000000E+00 0. -1.
          2   -1    0    0  501    0  0.00000000000E+00 -0.00000000000E+00 -0.11969393927E+04  0.11969393927E+04  0.00000000000E+00 0.  1.
         23    2    1    2    0    0  0.96695120737E+03  0.10328696996E+04  0.10646675200E+03  0.14215240073E+04  0.87068250849E+02 0.  0.
         11    1    3    3    0    0  0.18482689468E+03  0.18733155783E+03 -0.13378190264E+02  0.26350155508E+03  0.00000000000E+00 0.  1.
        -11    1    3    3    0    0  0.78212431268E+03  0.84553814178E+03  0.11984494227E+03  0.11580224522E+04  0.00000000000E+00 0. -1.
         22    1    1    2    0    0 -0.96695120737E+03 -0.10328696996E+04  0.38836755496E+03  0.14671890851E+04  0.00000000000E+00 0.  1.
<mgrwt>
<rscale>  0 0.28460152E+04</rscale>
<asrwt>0</asrwt>
<pdfrwt beam="1">  1        2 0.18414452E+00 0.28460152E+04</pdfrwt>
<pdfrwt beam="2">  1       -2 0.26027288E+00 0.28460152E+04</pdfrwt>
<totfact> 0.91641865E-01</totfact>
</mgrwt>
</event>
<event>
 6    1  0.5196787E-004  0.6414010E+04  0.7818608E-02  0.7641087E-01
          2   -1    0    0  501    0  0.00000000000E+00  0.00000000000E+00  0.39438257078E+04  0.39438257078E+04  0.00000000000E+00 0.  1.
         -2   -1    0    0    0  501 -0.00000000000E+00 -0.00000000000E+00 -0.26078434813E+04  0.26078434813E+04  0.00000000000E+00 0. -1.
         23    2    1    2    0    0  0.24268381408E+04  0.10035222189E+04 -0.12110424045E+04  0.28932631596E+04  0.88021589057E+02 0.  0.
         13    1    3    3    0    0  0.17669486794E+04  0.69918099154E+03 -0.90512203882E+03  0.21048058342E+04  0.00000000000E+00 0.  1.
        -13    1    3    3    0    0  0.65988946143E+03  0.30434122731E+03 -0.30592036567E+03  0.78845732547E+03  0.00000000000E+00 0. -1.
         22    1    1    2    0    0 -0.24268381408E+04 -0.10035222189E+04  0.25470246310E+04  0.36584060294E+04  0.00000000000E+00 0.  1.
<mgrwt>
<rscale>  0 0.64140097E+04</rscale>
<asrwt>0</asrwt>
<pdfrwt beam="1">  1        2 0.60674242E+00 0.64140097E+04</pdfrwt>
<pdfrwt beam="2">  1       -2 0.40120669E+00 0.64140097E+04</pdfrwt>
<totfact> 0.17973050E-03</totfact>
</mgrwt>
</event>
<event>
 6    1  0.5196787E-004  0.4332881E+04  0.7818608E-02  0.7940566E-01
         -2   -1    0    0    0  501 -0.00000000000E+00  0.00000000000E+00  0.15773235296E+04  0.15773235296E+04  0.00000000000E+00 0. -1.
          2   -1    0    0  501    0  0.00000000000E+00 -0.00000000000E+00 -0.29755871413E+04  0.29755871413E+04  0.00000000000E+00 0.  1.
         23    2    1    2    0    0 -0.37237087035E+03 -0.80805122221E+03  0.13751473950E+04  0.16402803383E+04  0.88782810014E+02 0.  0.
         11    1    3    3    0    0 -0.24452427490E+03 -0.58566215909E+03  0.10378551953E+04  0.12165260754E+04  0.00000000000E+00 0.  1.
        -11    1    3    3    0    0 -0.12784659545E+03 -0.22238906312E+03  0.33729219968E+03  0.42375426290E+03  0.00000000000E+00 0. -1.
         22    1    1    2    0    0  0.37237087035E+03  0.80805122221E+03 -0.27734110066E+04  0.29126303326E+04  0.00000000000E+00 0.  1.
<mgrwt>
<rscale>  0 0.43328806E+04</rscale>
<asrwt>0</asrwt>
<pdfrwt beam="1">  1        2 0.45778264E+00 0.43328806E+04</pdfrwt>
<pdfrwt beam="2">  1       -2 0.24266516E+00 0.43328806E+04</pdfrwt>
<totfact> 0.98726867E-02</totfact>
</mgrwt>
</event>
<event>
 6    1  0.5196787E-004  0.3420890E+04  0.7818608E-02  0.8132798E-01
         -2   -1    0    0    0  501 -0.00000000000E+00  0.00000000000E+00  0.13314454515E+04  0.13314454515E+04  0.00000000000E+00 0. -1.
          2   -1    0    0  501    0  0.00000000000E+00 -0.00000000000E+00 -0.21973272075E+04  0.21973272075E+04  0.00000000000E+00 0.  1.
         23    2    1    2    0    0  0.42433135274E+03  0.11978177892E+04  0.74599243532E+03  0.14762223035E+04  0.88898946971E+02 0.  0.
         11    1    3    3    0    0  0.38019392207E+03  0.97327555764E+03  0.60395768366E+03  0.12068875727E+04  0.00000000000E+00 0.  1.
        -11    1    3    3    0    0  0.44137430663E+02  0.22454223160E+03  0.14203475166E+03  0.26933473083E+03  0.00000000000E+00 0. -1.
         22    1    1    2    0    0 -0.42433135274E+03 -0.11978177892E+04 -0.16118741913E+04  0.20525503554E+04  0.00000000000E+00 0.  1.
<mgrwt>
<rscale>  0 0.34208895E+04</rscale>
<asrwt>0</asrwt>
<pdfrwt beam="1">  1        2 0.33805034E+00 0.34208895E+04</pdfrwt>
<pdfrwt beam="2">  1       -2 0.20483776E+00 0.34208895E+04</pdfrwt>
<totfact> 0.52995006E-01</totfact>
</mgrwt>
</event>
<event>
 6    1  0.5666784E-004  0.4591852E+04  0.7818608E-02  0.7894751E-01
          2   -1    0    0  501    0  0.00000000000E+00  0.00000000000E+00  0.28315441898E+04  0.28315441898E+04  0.00000000000E+00 0.  1.
         -2   -1    0    0    0  501 -0.00000000000E+00 -0.00000000000E+00 -0.18616260446E+04  0.18616260446E+04  0.00000000000E+00 0. -1.
         23    2    1    2    0    0  0.75138811518E+03  0.18377087554E+04 -0.69144642092E+03  0.21043693941E+04  0.92275806192E+02 0.  0.
         11    1    3    3    0    0  0.59102120018E+03  0.13942470197E+04 -0.56312101825E+03  0.16156534567E+04  0.00000000000E+00 0. -1.
        -11    1    3    3    0    0  0.16036691500E+03  0.44346173573E+03 -0.12832540267E+03  0.48871593739E+03  0.00000000000E+00 0.  1.
         22    1    1    2    0    0 -0.75138811518E+03 -0.18377087554E+04  0.16613645660E+04  0.25888008403E+04  0.00000000000E+00 0.  1.
<mgrwt>
<rscale>  0 0.45918521E+04</rscale>
<asrwt>0</asrwt>
<pdfrwt beam="1">  1        2 0.43562218E+00 0.45918521E+04</pdfrwt>
<pdfrwt beam="2">  1       -2 0.28640401E+00 0.45918521E+04</pdfrwt>
<totfact> 0.64034337E-02</totfact>
</mgrwt>
</event>
<event>
 6    1  0.5196787E-004  0.3051428E+04  0.7818608E-02  0.8229196E-01
         -2   -1    0    0    0  501 -0.00000000000E+00  0.00000000000E+00  0.98560916599E+03  0.98560916599E+03  0.00000000000E+00 0. -1.
          2   -1    0    0  501    0  0.00000000000E+00 -0.00000000000E+00 -0.23617918398E+04  0.23617918398E+04  0.00000000000E+00 0.  1.
         23    2    1    2    0    0  0.30996482459E+03  0.13140912859E+04  0.86815604624E+02  0.13566026576E+04  0.99597797340E+02 0.  0.
         13    1    3    3    0    0  0.26613311782E+03  0.11854306353E+04  0.10501625081E+03  0.12194675234E+04  0.00000000000E+00 0.  1.
        -13    1    3    3    0    0  0.43831706767E+02  0.12866065061E+03 -0.18200646181E+02  0.13713513428E+03  0.00000000000E+00 0. -1.
         22    1    1    2    0    0 -0.30996482459E+03 -0.13140912859E+04 -0.14629982784E+04  0.19907983481E+04  0.00000000000E+00 0. -1.
<mgrwt>
<rscale>  0 0.30514283E+04</rscale>
<asrwt>0</asrwt>
<pdfrwt beam="1">  1        2 0.36335258E+00 0.30514283E+04</pdfrwt>
<pdfrwt beam="2">  1       -2 0.15163218E+00 0.30514283E+04</pdfrwt>
<totfact> 0.10373679E+00</totfact>
</mgrwt>
</event>
<event>
 6    1  0.5196787E-004  0.4192703E+03  0.7818608E-02  0.1037304E+00
          2   -1    0    0  501    0  0.00000000000E+00  0.00000000000E+00  0.15419581271E+04  0.15419581271E+04  0.00000000000E+00 0.  1.
         -2   -1    0    0    0  501 -0.00000000000E+00 -0.00000000000E+00 -0.28500710042E+02  0.28500710042E+02  0.00000000000E+00 0. -1.
         23    2    1    2    0    0 -0.10794464880E+03  0.78457934272E+02  0.13485112495E+04  0.13582916087E+04  0.93090329304E+02 0.  0.
         11    1    3    3    0    0 -0.90953765909E+02  0.76444099115E+02  0.73493304810E+03  0.74447489750E+03  0.00000000000E+00 0. -1.
        -11    1    3    3    0    0 -0.16990882890E+02  0.20138351565E+01  0.61357820142E+03  0.61381671115E+03  0.00000000000E+00 0.  1.
         22    1    1    2    0    0  0.10794464880E+03 -0.78457934272E+02  0.16494616750E+03  0.21216722845E+03  0.00000000000E+00 0. -1.
<mgrwt>
<rscale>  0 0.41927033E+03</rscale>
<asrwt>0</asrwt>
<pdfrwt beam="1">  1        2 0.23722426E+00 0.41927033E+03</pdfrwt>
<pdfrwt beam="2">  1       -2 0.43847258E-02 0.41927033E+03</pdfrwt>
<totfact> 0.30966692E+03</totfact>
</mgrwt>
</event>
<event>
 6    1  0.5196787E-004  0.1373612E+04  0.7818608E-02  0.8973144E-01
         -2   -1    0    0    0  501 -0.00000000000E+00  0.00000000000E+00  0.44467046188E+03  0.44467046188E+03  0.00000000000E+00 0. -1.
          2   -1    0    0  501    0  0.00000000000E+00 -0.00000000000E+00 -0.10607917064E+04  0.10607917064E+04  0.00000000000E+00 0.  1.
         23    2    1    2    0    0 -0.11391802182E+03 -0.46808306586E+03 -0.84020432994E+03  0.97415029998E+03  0.10462513403E+03 0.  0.
         11    1    3    3    0    0  0.15699987269E+02 -0.12804465861E+03 -0.21286919746E+03  0.24890805416E+03  0.00000000000E+00 0. -1.
        -11    1    3    3    0    0 -0.12961800908E+03 -0.34003840725E+03 -0.62733513248E+03  0.72524224582E+03  0.00000000000E+00 0.  1.
         22    1    1    2    0    0  0.11391802182E+03  0.46808306586E+03  0.22408308541E+03  0.53131186831E+03  0.00000000000E+00 0. -1.
<mgrwt>
<rscale>  0 0.13736124E+04</rscale>
<asrwt>0</asrwt>
<pdfrwt beam="1">  1        2 0.16319872E+00 0.13736124E+04</pdfrwt>
<pdfrwt beam="2">  1       -2 0.68410840E-01 0.13736124E+04</pdfrwt>
<totfact> 0.43928785E+01</totfact>
</mgrwt>
</event>
<event>
 6    1  0.5196787E-004  0.5966207E+04  0.7818608E-02  0.7694606E-01
          2   -1    0    0  501    0  0.00000000000E+00  0.00000000000E+00  0.33198262817E+04  0.33198262817E+04  0.00000000000E+00 0.  1.
         -2   -1    0    0    0  501 -0.00000000000E+00 -0.00000000000E+00 -0.26805340567E+04  0.26805340567E+04  0.00000000000E+00 0. -1.
         23    2    1    2    0    0  0.18317471815E+04  0.13581095650E+04  0.22528859672E+04  0.32068958063E+04  0.94478591421E+02 0.  0.
         11    1    3    3    0    0  0.58056111572E+03  0.37642924744E+03  0.68521474985E+03  0.97379127169E+03  0.00000000000E+00 0. -1.
        -11    1    3    3    0    0  0.12511860657E+04  0.98168031759E+03  0.15676712173E+04  0.22331045347E+04  0.00000000000E+00 0.  1.
         22    1    1    2    0    0 -0.18317471815E+04 -0.13581095650E+04 -0.16135937422E+04  0.27934645321E+04  0.00000000000E+00 0. -1.
<mgrwt>
<rscale>  0 0.59662073E+04</rscale>
<asrwt>0</asrwt>
<pdfrwt beam="1">  1        2 0.51074251E+00 0.59662073E+04</pdfrwt>
<pdfrwt beam="2">  1       -2 0.41238985E+00 0.59662073E+04</pdfrwt>
<totfact> 0.44896562E-03</totfact>
</mgrwt>
</event>
<event>
 6    1  0.5196787E-004  0.6578864E+03  0.7818608E-02  0.9792092E-01
         -2   -1    0    0    0  501 -0.00000000000E+00  0.00000000000E+00  0.11924091016E+03  0.11924091016E+03  0.00000000000E+00 0. -1.
          2   -1    0    0  501    0  0.00000000000E+00 -0.00000000000E+00 -0.90743710940E+03  0.90743710940E+03  0.00000000000E+00 0.  1.
         23    2    1    2    0    0  0.12016794337E+03 -0.16976038252E+03 -0.16750407859E+02  0.22768644819E+03  0.91113228683E+02 0.  0.
         13    1    3    3    0    0  0.10942506587E+03 -0.17360582753E+03 -0.32979856729E+02  0.20784729813E+03  0.00000000000E+00 0. -1.
        -13    1    3    3    0    0  0.10742877506E+02  0.38454450128E+01  0.16229448870E+02  0.19839150059E+02  0.00000000000E+00 0.  1.
         22    1    1    2    0    0 -0.12016794337E+03  0.16976038252E+03 -0.77144579138E+03  0.79899157137E+03  0.00000000000E+00 0.  1.
<mgrwt>
<rscale>  0 0.65788639E+03</rscale>
<asrwt>0</asrwt>
<pdfrwt beam="1">  1        2 0.13960571E+00 0.65788639E+03</pdfrwt>
<pdfrwt beam="2">  1       -2 0.18344755E-01 0.65788639E+03</pdfrwt>
<totfact> 0.72396389E+02</totfact>
</mgrwt>
</event>
<event>
 6    1  0.5196787E-004  0.1594497E+04  0.7818608E-02  0.8823936E-01
          2   -1    0    0  501    0  0.00000000000E+00  0.00000000000E+00  0.16726401137E+04  0.16726401137E+04  0.00000000000E+00 0.  1.
         -2   -1    0    0    0  501 -0.00000000000E+00 -0.00000000000E+00 -0.38000131233E+03  0.38000131233E+03  0.00000000000E+00 0. -1.
         23    2    1    2    0    0  0.67874581167E+03 -0.39734161778E+03  0.79345321731E+03  0.11211037266E+04  0.93430828481E+02 0.  0.
         11    1    3    3    0    0  0.44215188021E+03 -0.26056224242E+03  0.45308688500E+03  0.68460111941E+03  0.00000000000E+00 0. -1.
        -11    1    3    3    0    0  0.23659393146E+03 -0.13677937536E+03  0.34036633231E+03  0.43650260721E+03  0.00000000000E+00 0.  1.
         22    1    1    2    0    0 -0.67874581167E+03  0.39734161778E+03  0.49918558405E+03  0.93153769940E+03  0.00000000000E+00 0. -1.
<mgrwt>
<rscale>  0 0.15944973E+04</rscale>
<asrwt>0</asrwt>
<pdfrwt beam="1">  1        2 0.25732924E+00 0.15944973E+04</pdfrwt>
<pdfrwt beam="2">  1       -2 0.58461741E-01 0.15944973E+04</pdfrwt>
<totfact> 0.26656119E+01</totfact>
</mgrwt>
</event>
<event>
 6    1  0.5196787E-004  0.3800574E+04  0.7818608E-02  0.8046032E-01
          2   -1    0    0  501    0  0.00000000000E+00  0.00000000000E+00  0.37248671370E+04  0.37248671370E+04  0.00000000000E+00 0.  1.
         -2   -1    0    0    0  501 -0.00000000000E+00 -0.00000000000E+00 -0.96945489308E+03  0.96945489308E+03  0.00000000000E+00 0. -1.
         23    2    1    2    0    0 -0.10625625213E+04 -0.75570586425E+02  0.33205835322E+04  0.34884328932E+04  0.90216577015E+02 0.  0.
         13    1    3    3    0    0 -0.76624530163E+03 -0.21685768197E+02  0.24604704878E+04  0.25771141139E+04  0.00000000000E+00 0. -1.
        -13    1    3    3    0    0 -0.29631721969E+03 -0.53884818228E+02  0.86011304437E+03  0.91131877925E+03  0.00000000000E+00 0.  1.
         22    1    1    2    0    0  0.10625625213E+04  0.75570586425E+02 -0.56517128831E+03  0.12058891369E+04  0.00000000000E+00 0. -1.
<mgrwt>
<rscale>  0 0.38005740E+04</rscale>
<asrwt>0</asrwt>
<pdfrwt beam="1">  1        2 0.57305648E+00 0.38005740E+04</pdfrwt>
<pdfrwt beam="2">  1       -2 0.14914691E+00 0.38005740E+04</pdfrwt>
<totfact> 0.13610582E-01</totfact>
</mgrwt>
</event>
<event>
 6    1  0.5196787E-004  0.4518285E+03  0.7818608E-02  0.1027178E+00
          2   -1    0    0  501    0  0.00000000000E+00  0.00000000000E+00  0.32489913035E+03  0.32489913035E+03  0.00000000000E+00 0.  1.
         -2   -1    0    0    0  501 -0.00000000000E+00 -0.00000000000E+00 -0.15708643671E+03  0.15708643671E+03  0.00000000000E+00 0. -1.
         23    2    1    2    0    0 -0.97683116304E+02 -0.13726528136E+02 -0.11818629435E+03  0.17945320530E+03  0.92222795101E+02 0.  0.
         11    1    3    3    0    0 -0.47580103634E+02 -0.21294207597E+02 -0.13984672756E+01  0.52146574669E+02  0.00000000000E+00 0.  1.
        -11    1    3    3    0    0 -0.50103012670E+02  0.75676794607E+01 -0.11678782707E+03  0.12730663063E+03  0.00000000000E+00 0. -1.
         22    1    1    2    0    0  0.97683116304E+02  0.13726528136E+02  0.28599898798E+03  0.30253236176E+03  0.00000000000E+00 0.  1.
<mgrwt>
<rscale>  0 0.45182849E+03</rscale>
<asrwt>0</asrwt>
<pdfrwt beam="1">  1        2 0.49984481E-01 0.45182849E+03</pdfrwt>
<pdfrwt beam="2">  1       -2 0.24167144E-01 0.45182849E+03</pdfrwt>
<totfact> 0.15237331E+03</totfact>
</mgrwt>
</event>
<event>
 6    1  0.1334425E-003  0.3704348E+04  0.7818608E-02  0.8066999E-01
          2   -1    0    0  501    0  0.00000000000E+00  0.00000000000E+00  0.21106541706E+04  0.21106541706E+04  0.00000000000E+00 0.  1.
         -2   -1    0    0    0  501 -0.00000000000E+00 -0.00000000000E+00 -0.16253480902E+04  0.16253480902E+04  0.00000000000E+00 0. -1.
         23    2    1    2    0    0 -0.81104163731E+03 -0.10689839710E+04  0.15287895471E+04  0.20361866787E+04  0.91342451947E+02 0.  0.
         11    1    3    3    0    0 -0.26653522762E+03 -0.36069333199E+03  0.44741962828E+03  0.63350219500E+03  0.00000000000E+00 0. -1.
        -11    1    3    3    0    0 -0.54450640970E+03 -0.70829063902E+03  0.10813699188E+04  0.14026844837E+04  0.00000000000E+00 0.  1.
         22    1    1    2    0    0  0.81104163731E+03  0.10689839710E+04 -0.10434834667E+04  0.16998155821E+04  0.00000000000E+00 0. -1.
<mgrwt>
<rscale>  0 0.37043476E+04</rscale>
<asrwt>0</asrwt>
<pdfrwt beam="1">  1        2 0.32471603E+00 0.37043476E+04</pdfrwt>
<pdfrwt beam="2">  1       -2 0.25005355E+00 0.37043476E+04</pdfrwt>
<totfact> 0.30077119E-01</totfact>
</mgrwt>
</event>
<event>
 6    1  0.5196787E-004  0.4464867E+04  0.7818608E-02  0.7916817E-01
          2   -1    0    0  501    0  0.00000000000E+00  0.00000000000E+00  0.30715588516E+04  0.30715588516E+04  0.00000000000E+00 0.  1.
         -2   -1    0    0    0  501 -0.00000000000E+00 -0.00000000000E+00 -0.16225505965E+04  0.16225505965E+04  0.00000000000E+00 0. -1.
         23    2    1    2    0    0 -0.13477939276E+04 -0.12147415957E+04  0.20905325748E+04  0.27696097551E+04  0.90918282064E+02 0.  0.
         11    1    3    3    0    0 -0.74902507971E+03 -0.66287386225E+03  0.12196494044E+04  0.15773347765E+04  0.00000000000E+00 0. -1.
        -11    1    3    3    0    0 -0.59876884787E+03 -0.55186773344E+03  0.87088317035E+03  0.11922749787E+04  0.00000000000E+00 0.  1.
         22    1    1    2    0    0  0.13477939276E+04  0.12147415957E+04 -0.64152431962E+03  0.19244996930E+04  0.00000000000E+00 0. -1.
<mgrwt>
<rscale>  0 0.44648671E+04</rscale>
<asrwt>0</asrwt>
<pdfrwt beam="1">  1        2 0.47254751E+00 0.44648671E+04</pdfrwt>
<pdfrwt beam="2">  1       -2 0.24962317E+00 0.44648671E+04</pdfrwt>
<totfact> 0.76974158E-02</totfact>
</mgrwt>
</event>
<event>
 6    1  0.5196787E-004  0.2528331E+04  0.7818608E-02  0.8392961E-01
          2   -1    0    0  501    0  0.00000000000E+00  0.00000000000E+00  0.30844052746E+04  0.30844052746E+04  0.00000000000E+00 0.  1.
         -2   -1    0    0    0  501 -0.00000000000E+00 -0.00000000000E+00 -0.51812732885E+03  0.51812732885E+03  0.00000000000E+00 0. -1.
         23    2    1    2    0    0  0.36045852733E+03  0.11604391749E+04  0.79649467067E+03  0.14557484342E+04  0.90831242276E+02 0.  0.
         11    1    3    3    0    0  0.13877730709E+03  0.58620536367E+03  0.41635782949E+03  0.73229072884E+03  0.00000000000E+00 0.  1.
        -11    1    3    3    0    0  0.22168122024E+03  0.57423381127E+03  0.38013684118E+03  0.72345770535E+03  0.00000000000E+00 0. -1.
         22    1    1    2    0    0 -0.36045852733E+03 -0.11604391749E+04  0.17697832751E+04  0.21467841693E+04  0.00000000000E+00 0.  1.
<mgrwt>
<rscale>  0 0.25283312E+04</rscale>
<asrwt>0</asrwt>
<pdfrwt beam="1">  1        2 0.47452388E+00 0.25283312E+04</pdfrwt>
<pdfrwt beam="2">  1       -2 0.79711898E-01 0.25283312E+04</pdfrwt>
<totfact> 0.19097002E+00</totfact>
</mgrwt>
</event>
<event>
 6    1  0.5196787E-004  0.1039453E+04  0.7818608E-02  0.9266302E-01
          2   -1    0    0  501    0  0.00000000000E+00  0.00000000000E+00  0.14184596295E+04  0.14184596295E+04  0.00000000000E+00 0.  1.
         -2   -1    0    0    0  501 -0.00000000000E+00 -0.00000000000E+00 -0.19042880036E+03  0.19042880036E+03  0.00000000000E+00 0. -1.
         23    2    1    2    0    0  0.32848544992E+02 -0.74467019826E+02  0.14069783710E+04  0.14123010785E+04  0.91552366861E+02 0.  0.
         13    1    3    3    0    0 -0.26268572139E+02 -0.22404475744E+02  0.71883219155E+03  0.71966083541E+03  0.00000000000E+00 0. -1.
        -13    1    3    3    0    0  0.59117117131E+02 -0.52062544082E+02  0.68814617948E+03  0.69264024311E+03  0.00000000000E+00 0.  1.
         22    1    1    2    0    0 -0.32848544992E+02  0.74467019826E+02 -0.17894754190E+03  0.19658735133E+03  0.00000000000E+00 0. -1.
<mgrwt>
<rscale>  0 0.10394529E+04</rscale>
<asrwt>0</asrwt>
<pdfrwt beam="1">  1        2 0.21822455E+00 0.10394529E+04</pdfrwt>
<pdfrwt beam="2">  1       -2 0.29296740E-01 0.10394529E+04</pdfrwt>
<totfact> 0.15064861E+02</totfact>
</mgrwt>
</event>
<event>
 6    1  0.5196787E-004  0.2881765E+04  0.7818608E-02  0.8278324E-01
         -2   -1    0    0    0  501 -0.00000000000E+00  0.00000000000E+00  0.77348841098E+03  0.77348841098E+03  0.00000000000E+00 0. -1.
          2   -1    0    0  501    0  0.00000000000E+00 -0.00000000000E+00 -0.26841290298E+04  0.26841290298E+04  0.00000000000E+00 0.  1.
         23    2    1    2    0    0 -0.52500159934E+03  0.98998901014E+03  0.12774035903E+03  0.11315258840E+04  0.91259560452E+02 0.  0.
         13    1    3    3    0    0 -0.25548780156E+03  0.39693195200E+03  0.32362568103E+02  0.47315571124E+03  0.00000000000E+00 0.  1.
        -13    1    3    3    0    0 -0.26951379777E+03  0.59305705814E+03  0.95377790930E+02  0.65837017278E+03  0.00000000000E+00 0. -1.
         22    1    1    2    0    0  0.52500159934E+03 -0.98998901014E+03 -0.20383809778E+04  0.23260915567E+04  0.00000000000E+00 0.  1.
<mgrwt>
<rscale>  0 0.28817652E+04</rscale>
<asrwt>0</asrwt>
<pdfrwt beam="1">  1        2 0.41294292E+00 0.28817652E+04</pdfrwt>
<pdfrwt beam="2">  1       -2 0.11899822E+00 0.28817652E+04</pdfrwt>
<totfact> 0.12714179E+00</totfact>
</mgrwt>
</event>
<event>
 6    1  0.5196787E-004  0.1213199E+04  0.7818608E-02  0.9101381E-01
         -2   -1    0    0    0  501 -0.00000000000E+00  0.00000000000E+00  0.98491385930E+02  0.98491385930E+02  0.00000000000E+00 0. -1.
          2   -1    0    0  501    0  0.00000000000E+00 -0.00000000000E+00 -0.37359903596E+04  0.37359903596E+04  0.00000000000E+00 0.  1.
         23    2    1    2    0    0 -0.30026932590E+03 -0.48267344875E+03 -0.11924976643E+04  0.13242692587E+04  0.92212059816E+02 0.  0.
         11    1    3    3    0    0 -0.17668481123E+03 -0.29581943790E+03 -0.82215173299E+03  0.89143711747E+03  0.00000000000E+00 0.  1.
        -11    1    3    3    0    0 -0.12358451468E+03 -0.18685401085E+03 -0.37034593128E+03  0.43283214120E+03  0.00000000000E+00 0. -1.
         22    1    1    2    0    0  0.30026932590E+03  0.48267344875E+03 -0.24450013095E+04  0.25102124869E+04  0.00000000000E+00 0.  1.
<mgrwt>
<rscale>  0 0.12131989E+04</rscale>
<asrwt>0</asrwt>
<pdfrwt beam="1">  1        2 0.57476775E+00 0.12131989E+04</pdfrwt>
<pdfrwt beam="2">  1       -2 0.15152521E-01 0.12131989E+04</pdfrwt>
<totfact> 0.19271864E+01</totfact>
</mgrwt>
</event>
<event>
 6    1  0.5196787E-004  0.1700793E+04  0.7818608E-02  0.8760912E-01
          2   -1    0    0  501    0  0.00000000000E+00  0.00000000000E+00  0.27236386035E+04  0.27236386035E+04  0.00000000000E+00 0.  1.
         -2   -1    0    0    0  501 -0.00000000000E+00 -0.00000000000E+00 -0.26551760270E+03  0.26551760270E+03  0.00000000000E+00 0. -1.
         23    2    1    2    0    0  0.76230746046E+03 -0.99585641975E+01  0.57992372032E+03  0.96212960014E+03  0.90388100967E+02 0.  0.
         13    1    3    3    0    0  0.61517292816E+02 -0.18608860702E+02  0.28239444273E+02  0.70200663992E+02  0.00000000000E+00 0.  1.
        -13    1    3    3    0    0  0.70079016764E+03  0.86502965047E+01  0.55168427604E+03  0.89192893614E+03  0.00000000000E+00 0. -1.
         22    1    1    2    0    0 -0.76230746046E+03  0.99585641975E+01  0.18781972805E+04  0.20270266061E+04  0.00000000000E+00 0.  1.
<mgrwt>
<rscale>  0 0.17007927E+04</rscale>
<asrwt>0</asrwt>
<pdfrwt beam="1">  1        2 0.41902130E+00 0.17007927E+04</pdfrwt>
<pdfrwt beam="2">  1       -2 0.40848864E-01 0.17007927E+04</pdfrwt>
<totfact> 0.13920636E+01</totfact>
</mgrwt>
</event>
<event>
 6    1  0.5196787E-004  0.1916344E+04  0.7818608E-02  0.8646763E-01
          2   -1    0    0  501    0  0.00000000000E+00  0.00000000000E+00  0.44118006534E+03  0.44118006534E+03  0.00000000000E+00 0.  1.
         -2   -1    0    0    0  501 -0.00000000000E+00 -0.00000000000E+00 -0.20809951927E+04  0.20809951927E+04  0.00000000000E+00 0. -1.
         23    2    1    2    0    0 -0.52522509005E+03 -0.69753902077E+03 -0.30962517845E+03  0.93100355742E+03  0.92074926397E+02 0.  0.
         11    1    3    3    0    0 -0.44630899150E+03 -0.63361563221E+03 -0.29039657761E+03  0.82764162387E+03  0.00000000000E+00 0.  1.
        -11    1    3    3    0    0 -0.78916098552E+02 -0.63923388558E+02 -0.19228600841E+02  0.10336193354E+03  0.00000000000E+00 0. -1.
         22    1    1    2    0    0  0.52522509005E+03  0.69753902077E+03 -0.13301899489E+04  0.15911717007E+04  0.00000000000E+00 0. -1.
<mgrwt>
<rscale>  0 0.19163440E+04</rscale>
<asrwt>0</asrwt>
<pdfrwt beam="1">  1        2 0.67873855E-01 0.19163440E+04</pdfrwt>
<pdfrwt beam="2">  1       -2 0.32015311E+00 0.19163440E+04</pdfrwt>
<totfact> 0.15929216E+00</totfact>
</mgrwt>
</event>
<event>
 6    1  0.5196787E-004  0.2193671E+04  0.7818608E-02  0.8521067E-01
          2   -1    0    0  501    0  0.00000000000E+00  0.00000000000E+00  0.23585196309E+04  0.23585196309E+04  0.00000000000E+00 0.  1.
         -2   -1    0    0    0  501 -0.00000000000E+00 -0.00000000000E+00 -0.51008600741E+03  0.51008600741E+03  0.00000000000E+00 0. -1.
         23    2    1    2    0    0 -0.73602808708E+02 -0.56170326349E+03  0.21511147141E+04  0.22263099337E+04  0.90738513602E+02 0.  0.
         13    1    3    3    0    0 -0.23159692836E+01 -0.33583471065E+03  0.13265426118E+04  0.13683952710E+04  0.00000000000E+00 0. -1.
        -13    1    3    3    0    0 -0.71286839424E+02 -0.22586855285E+03  0.82457210225E+03  0.85791466269E+03  0.00000000000E+00 0.  1.
         22    1    1    2    0    0  0.73602808708E+02  0.56170326349E+03 -0.30268109057E+03  0.64229570469E+03  0.00000000000E+00 0. -1.
<mgrwt>
<rscale>  0 0.21936708E+04</rscale>
<asrwt>0</asrwt>
<pdfrwt beam="1">  1        2 0.36284917E+00 0.21936708E+04</pdfrwt>
<pdfrwt beam="2">  1       -2 0.78474772E-01 0.21936708E+04</pdfrwt>
<totfact> 0.55422169E+00</totfact>
</mgrwt>
</event>
<event>
 6    1  0.5196787E-004  0.2359981E+03  0.7818608E-02  0.1122488E+00
         -4   -1    0    0    0  501 -0.00000000000E+00  0.00000000000E+00  0.33094307870E+03  0.33094307870E+03  0.00000000000E+00 0. -1.
          4   -1    0    0  501    0  0.00000000000E+00 -0.00000000000E+00 -0.42073020514E+02  0.42073020514E+02  0.00000000000E+00 0.  1.
         23    2    1    2    0    0 -0.18901441268E+02  0.31708522958E+02  0.31364109734E+03  0.32856051137E+03  0.90656366474E+02 0.  0.
         11    1    3    3    0    0  0.19210868995E+02 -0.14457731924E+02  0.18634938383E+03  0.18789405620E+03  0.00000000000E+00 0.  1.
        -11    1    3    3    0    0 -0.38112310263E+02  0.46166254882E+02  0.12729171350E+03  0.14066645517E+03  0.00000000000E+00 0. -1.
         22    1    1    2    0    0  0.18901441268E+02 -0.31708522958E+02 -0.24771039150E+02  0.44455587846E+02  0.00000000000E+00 0.  1.
<mgrwt>
<rscale>  0 0.23599809E+03</rscale>
<asrwt>0</asrwt>
<pdfrwt beam="1">  1        4 0.64727726E-02 0.23599809E+03</pdfrwt>
<pdfrwt beam="2">  1       -4 0.50914318E-01 0.23599809E+03</pdfrwt>
<totfact> 0.10749382E+03</totfact>
</mgrwt>
</event>
<event>
 6    1  0.5196787E-004  0.2900910E+04  0.7818608E-02  0.8272607E-01
          2   -1    0    0  501    0  0.00000000000E+00  0.00000000000E+00  0.24726737701E+04  0.24726737701E+04  0.00000000000E+00 0.  1.
         -2   -1    0    0    0  501 -0.00000000000E+00 -0.00000000000E+00 -0.85082788704E+03  0.85082788704E+03  0.00000000000E+00 0. -1.
         23    2    1    2    0    0 -0.49770569177E+03  0.75892630134E+03  0.21060569478E+04  0.22948421207E+04  0.84524583111E+02 0.  0.
         11    1    3    3    0    0 -0.35762555551E+03  0.50955201893E+03  0.13548768234E+04  0.14910501348E+04  0.00000000000E+00 0.  1.
        -11    1    3    3    0    0 -0.14008013625E+03  0.24937428240E+03  0.75118012442E+03  0.80379198591E+03  0.00000000000E+00 0. -1.
         22    1    1    2    0    0  0.49770569177E+03 -0.75892630134E+03 -0.48421106480E+03  0.10286595364E+04  0.00000000000E+00 0.  1.
<mgrwt>
<rscale>  0 0.29009101E+04</rscale>
<asrwt>0</asrwt>
<pdfrwt beam="1">  1        2 0.38041135E+00 0.29009101E+04</pdfrwt>
<pdfrwt beam="2">  1       -2 0.13089660E+00 0.29009101E+04</pdfrwt>
<totfact> 0.13294926E+00</totfact>
</mgrwt>
</event>
<event>
 6    1  0.5196787E-004  0.2254254E+04  0.7818608E-02  0.8496180E-01
         -2   -1    0    0    0  501 -0.00000000000E+00  0.00000000000E+00  0.15091360603E+04  0.15091360603E+04  0.00000000000E+00 0. -1.
          2   -1    0    0  501    0  0.00000000000E+00 -0.00000000000E+00 -0.84181650071E+03  0.84181650071E+03  0.00000000000E+00 0.  1.
         23    2    1    2    0    0 -0.14603284367E+01 -0.88246255687E+03  0.10623718489E+04  0.13840975522E+04  0.91377195483E+02 0.  0.
         11    1    3    3    0    0  0.31292408109E+01 -0.18525788511E+03  0.16832275018E+03  0.25032543693E+03  0.00000000000E+00 0. -1.
        -11    1    3    3    0    0 -0.45895692475E+01 -0.69720467175E+03  0.89404909870E+03  0.11337721153E+04  0.00000000000E+00 0.  1.
         22    1    1    2    0    0  0.14603284367E+01  0.88246255687E+03 -0.39505228928E+03  0.96685500883E+03  0.00000000000E+00 0.  1.
<mgrwt>
<rscale>  0 0.22542543E+04</rscale>
<asrwt>0</asrwt>
<pdfrwt beam="1">  1        2 0.12951023E+00 0.22542543E+04</pdfrwt>
<pdfrwt beam="2">  1       -2 0.23217478E+00 0.22542543E+04</pdfrwt>
<totfact> 0.24243395E+00</totfact>
</mgrwt>
</event>
<event>
 6    1  0.5196787E-004  0.2810941E+04  0.7818608E-02  0.8299880E-01
          2   -1    0    0  501    0  0.00000000000E+00  0.00000000000E+00  0.27247439005E+04  0.27247439005E+04  0.00000000000E+00 0. -1.
         -2   -1    0    0    0  501 -0.00000000000E+00 -0.00000000000E+00 -0.72496609860E+03  0.72496609860E+03  0.00000000000E+00 0.  1.
         23    2    1    2    0    0 -0.53021451891E+03  0.12945200373E+04  0.85454816619E+03  0.16418215950E+04  0.91738860412E+02 0.  0.
         11    1    3    3    0    0 -0.25832801225E+03  0.60831038358E+03  0.35107900718E+03  0.74835242631E+03  0.00000000000E+00 0.  1.
        -11    1    3    3    0    0 -0.27188650666E+03  0.68620965372E+03  0.50346915901E+03  0.89346916871E+03  0.00000000000E+00 0. -1.
         22    1    1    2    0    0  0.53021451891E+03 -0.12945200373E+04  0.11452296357E+04  0.18078884040E+04  0.00000000000E+00 0. -1.
<mgrwt>
<rscale>  0 0.28109407E+04</rscale>
<asrwt>0</asrwt>
<pdfrwt beam="1">  1        2 0.41919136E+00 0.28109407E+04</pdfrwt>
<pdfrwt beam="2">  1       -2 0.11153325E+00 0.28109407E+04</pdfrwt>
<totfact> 0.14171347E+00</totfact>
</mgrwt>
</event>
<event>
 6    1  0.5196787E-004  0.1794861E+04  0.7818608E-02  0.8709037E-01
          2   -1    0    0  501    0  0.00000000000E+00  0.00000000000E+00  0.13325513257E+04  0.13325513257E+04  0.00000000000E+00 0.  1.
         -2   -1    0    0    0  501 -0.00000000000E+00 -0.00000000000E+00 -0.60439093158E+03  0.60439093158E+03  0.00000000000E+00 0. -1.
         23    2    1    2    0    0 -0.43233378586E+02 -0.14651070927E+03  0.13169011900E+04  0.13287069101E+04  0.88875169642E+02 0.  0.
         11    1    3    3    0    0 -0.70754699475E+02 -0.11195082644E+03  0.96634363024E+03  0.97537645386E+03  0.00000000000E+00 0.  1.
        -11    1    3    3    0    0  0.27521320889E+02 -0.34559882825E+02  0.35055755975E+03  0.35333045623E+03  0.00000000000E+00 0. -1.
         22    1    1    2    0    0  0.43233378586E+02  0.14651070927E+03 -0.58874079583E+03  0.60823534723E+03  0.00000000000E+00 0. -1.
<mgrwt>
<rscale>  0 0.17948615E+04</rscale>
<asrwt>0</asrwt>
<pdfrwt beam="1">  1        2 0.20500790E+00 0.17948615E+04</pdfrwt>
<pdfrwt beam="2">  1       -2 0.92983220E-01 0.17948615E+04</pdfrwt>
<totfact> 0.14647554E+01</totfact>
</mgrwt>
</event>
<event>
 6    1  0.5196787E-004  0.1706558E+04  0.7818608E-02  0.8757633E-01
          2   -1    0    0  501    0  0.00000000000E+00  0.00000000000E+00  0.11835858337E+04  0.11835858337E+04  0.00000000000E+00 0.  1.
         -2   -1    0    0    0  501 -0.00000000000E+00 -0.00000000000E+00 -0.61515169777E+03  0.61515169777E+03  0.00000000000E+00 0. -1.
         23    2    1    2    0    0  0.42504344672E+03  0.18600803409E+03  0.10374058295E+04  0.11390441408E+04  0.77134812598E+02 0.  0.
         11    1    3    3    0    0  0.15262292032E+03  0.31447740347E+02  0.38531880922E+03  0.41563601976E+03  0.00000000000E+00 0. -1.
        -11    1    3    3    0    0  0.27242052641E+03  0.15456029375E+03  0.65208702027E+03  0.72340812106E+03  0.00000000000E+00 0.  1.
         22    1    1    2    0    0 -0.42504344672E+03 -0.18600803409E+03 -0.46897169355E+03  0.65969339068E+03  0.00000000000E+00 0. -1.
<mgrwt>
<rscale>  0 0.17065577E+04</rscale>
<asrwt>0</asrwt>
<pdfrwt beam="1">  1        2 0.18209013E+00 0.17065577E+04</pdfrwt>
<pdfrwt beam="2">  1       -2 0.94638723E-01 0.17065577E+04</pdfrwt>
<totfact> 0.17330818E+01</totfact>
</mgrwt>
</event>
<event>
 6    1  0.5196787E-004  0.1833090E+04  0.7818608E-02  0.8688898E-01
          2   -1    0    0  501    0  0.00000000000E+00  0.00000000000E+00  0.82749685478E+03  0.82749685478E+03  0.00000000000E+00 0.  1.
         -2   -1    0    0    0  501 -0.00000000000E+00 -0.00000000000E+00 -0.10151753024E+04  0.10151753024E+04  0.00000000000E+00 0. -1.
         23    2    1    2    0    0 -0.72943551922E+03  0.54008727845E+02 -0.64543162351E+03  0.97981000742E+03  0.91937753999E+02 0.  0.
         13    1    3    3    0    0 -0.24405729682E+03  0.60451711533E+02 -0.23431419824E+03  0.34368811014E+03  0.00000000000E+00 0. -1.
        -13    1    3    3    0    0 -0.48537822240E+03 -0.64429836878E+01 -0.41111742528E+03  0.63612189727E+03  0.00000000000E+00 0.  1.
         22    1    1    2    0    0  0.72943551922E+03 -0.54008727845E+02  0.45775317591E+03  0.86286214974E+03  0.00000000000E+00 0.  1.
<mgrwt>
<rscale>  0 0.18330896E+04</rscale>
<asrwt>0</asrwt>
<pdfrwt beam="1">  1        2 0.12730721E+00 0.18330896E+04</pdfrwt>
<pdfrwt beam="2">  1       -2 0.15618082E+00 0.18330896E+04</pdfrwt>
<totfact> 0.83332667E+00</totfact>
</mgrwt>
</event>
<event>
 6    1  0.5196787E-004  0.5441230E+04  0.7818608E-02  0.7763828E-01
         -2   -1    0    0    0  501 -0.00000000000E+00  0.00000000000E+00  0.26007979395E+04  0.26007979395E+04  0.00000000000E+00 0. -1.
          2   -1    0    0  501    0  0.00000000000E+00 -0.00000000000E+00 -0.28459522562E+04  0.28459522562E+04  0.00000000000E+00 0.  1.
         23    2    1    2    0    0  0.21976794773E+04 -0.10115390300E+04  0.11213124995E+04  0.26682185954E+04  0.95091834320E+02 0.  0.
         11    1    3    3    0    0  0.29906862609E+03 -0.11196220114E+03  0.12383406452E+03  0.34250905554E+03  0.00000000000E+00 0.  1.
        -11    1    3    3    0    0  0.18986108512E+04 -0.89957682886E+03  0.99747843498E+03  0.23257095398E+04  0.00000000000E+00 0. -1.
         22    1    1    2    0    0 -0.21976794773E+04  0.10115390300E+04 -0.13664668162E+04  0.27785316003E+04  0.00000000000E+00 0.  1.
<mgrwt>
<rscale>  0 0.54412303E+04</rscale>
<asrwt>0</asrwt>
<pdfrwt beam="1">  1        2 0.43783881E+00 0.54412303E+04</pdfrwt>
<pdfrwt beam="2">  1       -2 0.40012276E+00 0.54412303E+04</pdfrwt>
<totfact> 0.11303412E-02</totfact>
</mgrwt>
</event>
<event>
 6    1  0.5196787E-004  0.2374535E+04  0.7818608E-02  0.8449099E-01
          2   -1    0    0  501    0  0.00000000000E+00  0.00000000000E+00  0.36966882587E+04  0.36966882587E+04  0.00000000000E+00 0.  1.
         -2   -1    0    0    0  501 -0.00000000000E+00 -0.00000000000E+00 -0.38131551378E+03  0.38131551378E+03  0.00000000000E+00 0. -1.
         23    2    1    2    0    0  0.61462285664E+03  0.71777402813E+03  0.43049201447E+03  0.10422999595E+04  0.90027882683E+02 0.  0.
         13    1    3    3    0    0  0.53231643459E+03  0.56871776691E+03  0.35338341673E+03  0.85538326156E+03  0.00000000000E+00 0. -1.
        -13    1    3    3    0    0  0.82306422054E+02  0.14905626121E+03  0.77108597743E+02  0.18691669793E+03  0.00000000000E+00 0.  1.
         22    1    1    2    0    0 -0.61462285664E+03 -0.71777402813E+03  0.28848807305E+04  0.30357038130E+04  0.00000000000E+00 0.  1.
<mgrwt>
<rscale>  0 0.23745354E+04</rscale>
<asrwt>0</asrwt>
<pdfrwt beam="1">  1        2 0.56872124E+00 0.23745354E+04</pdfrwt>
<pdfrwt beam="2">  1       -2 0.58663928E-01 0.23745354E+04</pdfrwt>
<totfact> 0.14411236E+00</totfact>
</mgrwt>
</event>
<event>
 6    1  0.5196787E-004  0.2494988E+04  0.7818608E-02  0.8404773E-01
         -2   -1    0    0    0  501 -0.00000000000E+00  0.00000000000E+00  0.64063768120E+03  0.64063768120E+03  0.00000000000E+00 0. -1.
          2   -1    0    0  501    0  0.00000000000E+00 -0.00000000000E+00 -0.24292064218E+04  0.24292064218E+04  0.00000000000E+00 0.  1.
         23    2    1    2    0    0  0.10026152027E+04  0.66412420153E+03 -0.12980428164E+04  0.17710316139E+04  0.73072734200E+02 0.  0.
         13    1    3    3    0    0  0.37930900030E+03  0.28336670138E+03 -0.47602996319E+03  0.67139893582E+03  0.00000000000E+00 0. -1.
        -13    1    3    3    0    0  0.62330620235E+03  0.38075750016E+03 -0.82201285320E+03  0.10996326780E+04  0.00000000000E+00 0.  1.
         22    1    1    2    0    0 -0.10026152027E+04 -0.66412420153E+03 -0.49052592424E+03  0.12988124892E+04  0.00000000000E+00 0.  1.
<mgrwt>
<rscale>  0 0.24949879E+04</rscale>
<asrwt>0</asrwt>
<pdfrwt beam="1">  1        2 0.37372406E+00 0.24949879E+04</pdfrwt>
<pdfrwt beam="2">  1       -2 0.98559644E-01 0.24949879E+04</pdfrwt>
<totfact> 0.29168275E+00</totfact>
</mgrwt>
</event>
<event>
 6    1  0.5196787E-004  0.2087470E+04  0.7818608E-02  0.8566783E-01
          2   -1    0    0  501    0  0.00000000000E+00  0.00000000000E+00  0.27400975065E+04  0.27400975065E+04  0.00000000000E+00 0.  1.
         -2   -1    0    0    0  501 -0.00000000000E+00 -0.00000000000E+00 -0.39757063214E+03  0.39757063214E+03  0.00000000000E+00 0. -1.
         23    2    1    2    0    0  0.84922077383E+03 -0.10493091655E+03  0.20666199061E+04  0.22386069199E+04  0.90866305220E+02 0.  0.
         13    1    3    3    0    0  0.49818870133E+03 -0.98517009118E+02  0.12875030354E+04  0.13840381676E+04  0.00000000000E+00 0.  1.
        -13    1    3    3    0    0  0.35103207250E+03 -0.64139074330E+01  0.77911687070E+03  0.85456875226E+03  0.00000000000E+00 0. -1.
         22    1    1    2    0    0 -0.84922077383E+03  0.10493091655E+03  0.27590696825E+03  0.89906121876E+03  0.00000000000E+00 0. -1.
<mgrwt>
<rscale>  0 0.20874696E+04</rscale>
<asrwt>0</asrwt>
<pdfrwt beam="1">  1        2 0.42155345E+00 0.20874696E+04</pdfrwt>
<pdfrwt beam="2">  1       -2 0.61164714E-01 0.20874696E+04</pdfrwt>
<totfact> 0.57691174E+00</totfact>
</mgrwt>
</event>
<event>
 6    1  0.5196787E-004  0.2745020E+04  0.7818608E-02  0.8320544E-01
         -2   -1    0    0    0  501 -0.00000000000E+00  0.00000000000E+00  0.63533603059E+03  0.63533603059E+03  0.00000000000E+00 0. -1.
          2   -1    0    0  501    0  0.00000000000E+00 -0.00000000000E+00 -0.29650201652E+04  0.29650201652E+04  0.00000000000E+00 0.  1.
         23    2    1    2    0    0 -0.13406070806E+03  0.60708075307E+03 -0.27688300176E+04  0.28391936502E+04  0.89897735818E+02 0.  0.
         13    1    3    3    0    0 -0.16315567230E+01  0.33048613940E+02 -0.26155254687E+03  0.26363726526E+03  0.00000000000E+00 0.  1.
        -13    1    3    3    0    0 -0.13242915134E+03  0.57403213913E+03 -0.25072774707E+04  0.25755563850E+04  0.00000000000E+00 0. -1.
         22    1    1    2    0    0  0.13406070806E+03 -0.60708075307E+03  0.43914588301E+03  0.76116254555E+03  0.00000000000E+00 0. -1.
<mgrwt>
<rscale>  0 0.27450203E+04</rscale>
<asrwt>0</asrwt>
<pdfrwt beam="1">  1        2 0.45615694E+00 0.27450203E+04</pdfrwt>
<pdfrwt beam="2">  1       -2 0.97744006E-01 0.27450203E+04</pdfrwt>
<totfact> 0.13947638E+00</totfact>
</mgrwt>
</event>
<event>
 6    1  0.5196787E-004  0.3038655E+04  0.7818608E-02  0.8232778E-01
          2   -1    0    0  501    0  0.00000000000E+00  0.00000000000E+00  0.42129815303E+04  0.42129815303E+04  0.00000000000E+00 0.  1.
         -2   -1    0    0    0  501 -0.00000000000E+00 -0.00000000000E+00 -0.54791498242E+03  0.54791498242E+03  0.00000000000E+00 0. -1.
         23    2    1    2    0    0  0.77672125081E+03  0.23195630702E+03  0.38449869300E+04  0.39305526238E+04  0.90663150216E+02 0.  0.
         13    1    3    3    0    0  0.16546640832E+03  0.87252225450E+02  0.93896980672E+03  0.95742173626E+03  0.00000000000E+00 0. -1.
        -13    1    3    3    0    0  0.61125484249E+03  0.14470408157E+03  0.29060171233E+04  0.29731308876E+04  0.00000000000E+00 0.  1.
         22    1    1    2    0    0 -0.77672125081E+03 -0.23195630702E+03 -0.17992038219E+03  0.83034388885E+03  0.00000000000E+00 0. -1.
<mgrwt>
<rscale>  0 0.30386548E+04</rscale>
<asrwt>0</asrwt>
<pdfrwt beam="1">  1        2 0.64815098E+00 0.30386548E+04</pdfrwt>
<pdfrwt beam="2">  1       -2 0.84294615E-01 0.30386548E+04</pdfrwt>
<totfact> 0.23719027E-01</totfact>
</mgrwt>
</event>
<event>
 6    1  0.5196787E-004  0.3842152E+04  0.7818608E-02  0.8037169E-01
          1   -1    0    0  501    0  0.00000000000E+00  0.00000000000E+00  0.14926785216E+04  0.14926785216E+04  0.00000000000E+00 0.  1.
         -1   -1    0    0    0  501 -0.00000000000E+00 -0.00000000000E+00 -0.24724233849E+04  0.24724233849E+04  0.00000000000E+00 0. -1.
         23    2    1    2    0    0  0.53335174314E+02 -0.14986915774E+04  0.74701916305E+03  0.16780437333E+04  0.94191590458E+02 0.  0.
         13    1    3    3    0    0  0.78058134293E+02 -0.10268350567E+04  0.49659937712E+03  0.11432822256E+04  0.00000000000E+00 0. -1.
        -13    1    3    3    0    0 -0.24722959979E+02 -0.47185652070E+03  0.25041978593E+03  0.53476150765E+03  0.00000000000E+00 0.  1.
         22    1    1    2    0    0 -0.53335174314E+02  0.14986915774E+04 -0.17267640264E+04  0.22870581733E+04  0.00000000000E+00 0. -1.
<mgrwt>
<rscale>  0 0.38421521E+04</rscale>
<asrwt>0</asrwt>
<pdfrwt beam="1">  1        1 0.22964285E+00 0.38421521E+04</pdfrwt>
<pdfrwt beam="2">  1       -1 0.38037283E+00 0.38421521E+04</pdfrwt>
<totfact> 0.51014003E-02</totfact>
</mgrwt>
</event>
<event>
 6    1  0.5196787E-004  0.3053033E+04  0.7818608E-02  0.8228747E-01
          1   -1    0    0  501    0  0.00000000000E+00  0.00000000000E+00  0.22190750627E+04  0.22190750627E+04  0.00000000000E+00 0.  1.
         -1   -1    0    0    0  501 -0.00000000000E+00 -0.00000000000E+00 -0.10501006833E+04  0.10501006833E+04  0.00000000000E+00 0. -1.
         23    2    1    2    0    0 -0.17909472933E+03 -0.15063027511E+04  0.41536324040E+03  0.15753774554E+04  0.90909876367E+02 0.  0.
         13    1    3    3    0    0 -0.15404451761E+03 -0.92889359862E+03  0.26621954223E+03  0.97849163289E+03  0.00000000000E+00 0.  1.
        -13    1    3    3    0    0 -0.25050211721E+02 -0.57740915247E+03  0.14914369817E+03  0.59688582255E+03  0.00000000000E+00 0. -1.
         22    1    1    2    0    0  0.17909472933E+03  0.15063027511E+04  0.75361113899E+03  0.16937982905E+04  0.00000000000E+00 0.  1.
<mgrwt>
<rscale>  0 0.30530327E+04</rscale>
<asrwt>0</asrwt>
<pdfrwt beam="1">  1        1 0.34139616E+00 0.30530327E+04</pdfrwt>
<pdfrwt beam="2">  1       -1 0.16155395E+00 0.30530327E+04</pdfrwt>
<totfact> 0.50939939E-01</totfact>
</mgrwt>
</event>
<event>
 6    1  0.5196787E-004  0.1057108E+04  0.7818608E-02  0.9248036E-01
          2   -1    0    0  501    0  0.00000000000E+00  0.00000000000E+00  0.17280047490E+04  0.17280047490E+04  0.00000000000E+00 0.  1.
         -2   -1    0    0    0  501 -0.00000000000E+00 -0.00000000000E+00 -0.16167161716E+03  0.16167161716E+03  0.00000000000E+00 0. -1.
         23    2    1    2    0    0  0.29090305540E+03  0.22573013745E+03  0.12059520318E+03  0.39778600794E+03  0.90065656567E+02 0.  0.
         13    1    3    3    0    0  0.16793531164E+03  0.78045217939E+02  0.78024614855E+02  0.20095065430E+03  0.00000000000E+00 0. -1.
        -13    1    3    3    0    0  0.12296774376E+03  0.14768491951E+03  0.42570588328E+02  0.19683535365E+03  0.00000000000E+00 0.  1.
         22    1    1    2    0    0 -0.29090305540E+03 -0.22573013745E+03  0.14457379287E+04  0.14918903583E+04  0.00000000000E+00 0.  1.
<mgrwt>
<rscale>  0 0.10571080E+04</rscale>
<asrwt>0</asrwt>
<pdfrwt beam="1">  1        2 0.26584687E+00 0.10571080E+04</pdfrwt>
<pdfrwt beam="2">  1       -2 0.24872558E-01 0.10571080E+04</pdfrwt>
<totfact> 0.13639396E+02</totfact>
</mgrwt>
</event>
<event>
 6    1  0.5490486E-004  0.3126959E+04  0.7818608E-02  0.8208378E-01
         -2   -1    0    0    0  501 -0.00000000000E+00  0.00000000000E+00  0.14654632676E+04  0.14654632676E+04  0.00000000000E+00 0. -1.
          2   -1    0    0  501    0  0.00000000000E+00 -0.00000000000E+00 -0.16680517269E+04  0.16680517269E+04  0.00000000000E+00 0.  1.
         23    2    1    2    0    0  0.41503665268E+03 -0.67014351016E+02 -0.16090869281E+04  0.16655285201E+04  0.89878599708E+02 0.  0.
         13    1    3    3    0    0  0.12161400935E+03 -0.58648097848E+02 -0.57018562054E+03  0.58595324773E+03  0.00000000000E+00 0.  1.
        -13    1    3    3    0    0  0.29342264333E+03 -0.83662531681E+01 -0.10389013075E+04  0.10795752723E+04  0.00000000000E+00 0. -1.
         22    1    1    2    0    0 -0.41503665268E+03  0.67014351016E+02  0.14064984688E+04  0.14679864744E+04  0.00000000000E+00 0. -1.
<mgrwt>
<rscale>  0 0.31269592E+04</rscale>
<asrwt>0</asrwt>
<pdfrwt beam="1">  1        2 0.25662334E+00 0.31269592E+04</pdfrwt>
<pdfrwt beam="2">  1       -2 0.22545589E+00 0.31269592E+04</pdfrwt>
<totfact> 0.79028621E-01</totfact>
</mgrwt>
</event>
<event>
 6    1  0.5196787E-004  0.3994621E+04  0.7818608E-02  0.8005633E-01
         -2   -1    0    0    0  501 -0.00000000000E+00  0.00000000000E+00  0.12417550071E+04  0.12417550071E+04  0.00000000000E+00 0. -1.
          2   -1    0    0  501    0  0.00000000000E+00 -0.00000000000E+00 -0.32125896034E+04  0.32125896034E+04  0.00000000000E+00 0.  1.
         23    2    1    2    0    0 -0.70069835864E+03  0.13133563990E+04  0.49717611448E+03  0.15721648643E+04  0.92924975399E+02 0.  0.
         13    1    3    3    0    0 -0.51572855252E+03  0.89499457644E+03  0.37230273735E+03  0.10979984335E+04  0.00000000000E+00 0. -1.
        -13    1    3    3    0    0 -0.18496980613E+03  0.41836182257E+03  0.12487337713E+03  0.47416643078E+03  0.00000000000E+00 0.  1.
         22    1    1    2    0    0  0.70069835864E+03 -0.13133563990E+04 -0.24680107109E+04  0.28821797462E+04  0.00000000000E+00 0.  1.
<mgrwt>
<rscale>  0 0.39946210E+04</rscale>
<asrwt>0</asrwt>
<pdfrwt beam="1">  1        2 0.49424455E+00 0.39946210E+04</pdfrwt>
<pdfrwt beam="2">  1       -2 0.19103923E+00 0.39946210E+04</pdfrwt>
<totfact> 0.15301656E-01</totfact>
</mgrwt>
</event>
<event>
 6    1  0.5196787E-004  0.2078583E+04  0.7818608E-02  0.8570737E-01
         -2   -1    0    0    0  501 -0.00000000000E+00  0.00000000000E+00  0.52719279614E+03  0.52719279614E+03  0.00000000000E+00 0. -1.
          2   -1    0    0  501    0  0.00000000000E+00 -0.00000000000E+00 -0.20488261614E+04  0.20488261614E+04  0.00000000000E+00 0.  1.
         23    2    1    2    0    0  0.79898357225E+01 -0.86106944920E+03 -0.14790923486E+04  0.17138622595E+04  0.90029078157E+02 0.  0.
         13    1    3    3    0    0  0.93556841828E+00 -0.26322870744E+03 -0.37311462209E+03  0.45662320235E+03  0.00000000000E+00 0.  1.
        -13    1    3    3    0    0  0.70542673042E+01 -0.59784074176E+03 -0.11059777266E+04  0.12572390572E+04  0.00000000000E+00 0. -1.
         22    1    1    2    0    0 -0.79898357225E+01  0.86106944920E+03 -0.42541016577E+02  0.86215669800E+03  0.00000000000E+00 0. -1.
<mgrwt>
<rscale>  0 0.20785826E+04</rscale>
<asrwt>0</asrwt>
<pdfrwt beam="1">  1        2 0.31520403E+00 0.20785826E+04</pdfrwt>
<pdfrwt beam="2">  1       -2 0.81106583E-01 0.20785826E+04</pdfrwt>
<totfact> 0.77631597E+00</totfact>
</mgrwt>
</event>
<event>
 6    1  0.5196787E-004  0.2665010E+04  0.7818608E-02  0.8346448E-01
         -2   -1    0    0    0  501 -0.00000000000E+00  0.00000000000E+00  0.16285640992E+04  0.16285640992E+04  0.00000000000E+00 0. -1.
          2   -1    0    0  501    0  0.00000000000E+00 -0.00000000000E+00 -0.10902667422E+04  0.10902667422E+04  0.00000000000E+00 0.  1.
         23    2    1    2    0    0 -0.81387331291E+03  0.24397769997E+03  0.13145510885E+04  0.15679682331E+04  0.92546897319E+02 0.  0.
         13    1    3    3    0    0 -0.56882159314E+03  0.20481517737E+03  0.88266148282E+03  0.10698591286E+04  0.00000000000E+00 0. -1.
        -13    1    3    3    0    0 -0.24505171977E+03  0.39162522591E+02  0.43188960569E+03  0.49810910456E+03  0.00000000000E+00 0.  1.
         22    1    1    2    0    0  0.81387331291E+03 -0.24397769997E+03 -0.77625373150E+03  0.11508626083E+04  0.00000000000E+00 0.  1.
<mgrwt>
<rscale>  0 0.26650098E+04</rscale>
<asrwt>0</asrwt>
<pdfrwt beam="1">  1        2 0.16773334E+00 0.26650098E+04</pdfrwt>
<pdfrwt beam="2">  1       -2 0.25054832E+00 0.26650098E+04</pdfrwt>
<totfact> 0.12392337E+00</totfact>
</mgrwt>
</event>
<event>
 6    1  0.5196787E-004  0.2533072E+04  0.7818608E-02  0.8391297E-01
          2   -1    0    0  501    0  0.00000000000E+00  0.00000000000E+00  0.17460728213E+04  0.17460728213E+04  0.00000000000E+00 0.  1.
         -2   -1    0    0    0  501 -0.00000000000E+00 -0.00000000000E+00 -0.91869779891E+03  0.91869779891E+03  0.00000000000E+00 0. -1.
         23    2    1    2    0    0 -0.31165870317E+03  0.11147827573E+04  0.95085007971E+03  0.15006753350E+04  0.89659599186E+02 0.  0.
         11    1    3    3    0    0 -0.23609559333E+03  0.87788957404E+03  0.79132466289E+03  0.12052493333E+04  0.00000000000E+00 0. -1.
        -11    1    3    3    0    0 -0.75563109839E+02  0.23689318328E+03  0.15952541682E+03  0.29542600167E+03  0.00000000000E+00 0.  1.
         22    1    1    2    0    0  0.31165870317E+03 -0.11147827573E+04 -0.12347505731E+03  0.11640952852E+04  0.00000000000E+00 0. -1.
<mgrwt>
<rscale>  0 0.25330719E+04</rscale>
<asrwt>0</asrwt>
<pdfrwt beam="1">  1        2 0.26862659E+00 0.25330719E+04</pdfrwt>
<pdfrwt beam="2">  1       -2 0.14133812E+00 0.25330719E+04</pdfrwt>
<totfact> 0.28815009E+00</totfact>
</mgrwt>
</event>
<event>
 6    1  0.5196787E-004  0.3671185E+04  0.7818608E-02  0.8074378E-01
          2   -1    0    0  501    0  0.00000000000E+00  0.00000000000E+00  0.67184103633E+03  0.67184103633E+03  0.00000000000E+00 0.  1.
         -2   -1    0    0    0  501 -0.00000000000E+00 -0.00000000000E+00 -0.50151733293E+04  0.50151733293E+04  0.00000000000E+00 0. -1.
         23    2    1    2    0    0 -0.78582252604E+02  0.17927394958E+04 -0.15823766534E+04  0.23941484234E+04  0.89110772124E+02 0.  0.
         13    1    3    3    0    0 -0.49194126666E+02  0.11324907667E+04 -0.94179495056E+03  0.14737479865E+04  0.00000000000E+00 0.  1.
        -13    1    3    3    0    0 -0.29388125937E+02  0.66024872910E+03 -0.64058170285E+03  0.92040043690E+03  0.00000000000E+00 0. -1.
         22    1    1    2    0    0  0.78582252604E+02 -0.17927394958E+04 -0.27609556396E+04  0.32928659423E+04  0.00000000000E+00 0.  1.
<mgrwt>
<rscale>  0 0.36711847E+04</rscale>
<asrwt>0</asrwt>
<pdfrwt beam="1">  1        2 0.10336016E+00 0.36711847E+04</pdfrwt>
<pdfrwt beam="2">  1       -2 0.77156515E+00 0.36711847E+04</pdfrwt>
<totfact> 0.39455963E-03</totfact>
</mgrwt>
</event>
<event>
 6    1  0.5196787E-004  0.1755680E+04  0.7818608E-02  0.8730230E-01
          2   -1    0    0  501    0  0.00000000000E+00  0.00000000000E+00  0.34842458784E+03  0.34842458784E+03  0.00000000000E+00 0.  1.
         -2   -1    0    0    0  501 -0.00000000000E+00 -0.00000000000E+00 -0.22116772160E+04  0.22116772160E+04  0.00000000000E+00 0. -1.
         23    2    1    2    0    0  0.31996909822E+03  0.79378289631E+03 -0.66426296625E+03  0.10869936206E+04  0.88534357796E+02 0.  0.
         13    1    3    3    0    0  0.43297686297E+02  0.69050893262E+02 -0.92630753250E+02  0.12338221892E+03  0.00000000000E+00 0. -1.
        -13    1    3    3    0    0  0.27667141192E+03  0.72473200305E+03 -0.57163221300E+03  0.96361140163E+03  0.00000000000E+00 0.  1.
         22    1    1    2    0    0 -0.31996909822E+03 -0.79378289631E+03 -0.11989896619E+04  0.14731081833E+04  0.00000000000E+00 0. -1.
<mgrwt>
<rscale>  0 0.17556796E+04</rscale>
<asrwt>0</asrwt>
<pdfrwt beam="1">  1        2 0.53603782E-01 0.17556796E+04</pdfrwt>
<pdfrwt beam="2">  1       -2 0.34025804E+00 0.17556796E+04</pdfrwt>
<totfact> 0.15821790E+00</totfact>
</mgrwt>
</event>
<event>
 6    1  0.5196787E-004  0.1353893E+04  0.7818608E-02  0.8987887E-01
         -2   -1    0    0    0  501 -0.00000000000E+00  0.00000000000E+00  0.10502209372E+04  0.10502209372E+04  0.00000000000E+00 0. -1.
          2   -1    0    0  501    0  0.00000000000E+00 -0.00000000000E+00 -0.43634270642E+03  0.43634270642E+03  0.00000000000E+00 0.  1.
         23    2    1    2    0    0  0.73377261864E+02 -0.49865008608E+03  0.79959040974E+03  0.94941827753E+03  0.89521569824E+02 0.  0.
         11    1    3    3    0    0  0.73867206672E+01 -0.88347132287E+02  0.21133031646E+03  0.22917303961E+03  0.00000000000E+00 0. -1.
        -11    1    3    3    0    0  0.65990541196E+02 -0.41030295379E+03  0.58826009327E+03  0.72024523792E+03  0.00000000000E+00 0.  1.
         22    1    1    2    0    0 -0.73377261864E+02  0.49865008608E+03 -0.18571217895E+03  0.53714536609E+03  0.00000000000E+00 0.  1.
<mgrwt>
<rscale>  0 0.13538925E+04</rscale>
<asrwt>0</asrwt>
<pdfrwt beam="1">  1        2 0.67129648E-01 0.13538925E+04</pdfrwt>
<pdfrwt beam="2">  1       -2 0.16157245E+00 0.13538925E+04</pdfrwt>
<totfact> 0.17234516E+01</totfact>
</mgrwt>
</event>
<event>
 6    1  0.5196787E-004  0.2390978E+04  0.7818608E-02  0.8442889E-01
          2   -1    0    0  501    0  0.00000000000E+00  0.00000000000E+00  0.18348442993E+04  0.18348442993E+04  0.00000000000E+00 0.  1.
         -2   -1    0    0    0  501 -0.00000000000E+00 -0.00000000000E+00 -0.77891830936E+03  0.77891830936E+03  0.00000000000E+00 0. -1.
         23    2    1    2    0    0  0.11155694928E+04  0.36743966517E+03  0.29509225332E+03  0.12143430234E+04  0.89679094064E+02 0.  0.
         11    1    3    3    0    0  0.50889903561E+03  0.18452150104E+03  0.93002604504E+02  0.54925030472E+03  0.00000000000E+00 0.  1.
        -11    1    3    3    0    0  0.60667045715E+03  0.18291816413E+03  0.20208964882E+03  0.66509271873E+03  0.00000000000E+00 0. -1.
         22    1    1    2    0    0 -0.11155694928E+04 -0.36743966517E+03  0.76083373663E+03  0.13994195852E+04  0.00000000000E+00 0. -1.
<mgrwt>
<rscale>  0 0.23909779E+04</rscale>
<asrwt>0</asrwt>
<pdfrwt beam="1">  1        2 0.28228374E+00 0.23909779E+04</pdfrwt>
<pdfrwt beam="2">  1       -2 0.11983359E+00 0.23909779E+04</pdfrwt>
<totfact> 0.39575293E+00</totfact>
</mgrwt>
</event>
<event>
 6    1  0.5196787E-004  0.1531883E+04  0.7818608E-02  0.8863523E-01
          2   -1    0    0  501    0  0.00000000000E+00  0.00000000000E+00  0.15922598295E+04  0.15922598295E+04  0.00000000000E+00 0.  1.
         -2   -1    0    0    0  501 -0.00000000000E+00 -0.00000000000E+00 -0.36844898733E+03  0.36844898733E+03  0.00000000000E+00 0. -1.
         23    2    1    2    0    0  0.35927609815E+03  0.54500709670E+03  0.10829708429E+03  0.66823715595E+03  0.93276942331E+02 0.  0.
         11    1    3    3    0    0  0.16343769705E+03  0.30562541840E+03  0.91705548963E+02  0.35850897464E+03  0.00000000000E+00 0. -1.
        -11    1    3    3    0    0  0.19583840110E+03  0.23938167830E+03  0.16591535327E+02  0.30972818131E+03  0.00000000000E+00 0.  1.
         22    1    1    2    0    0 -0.35927609815E+03 -0.54500709670E+03  0.11155137579E+04  0.12924716609E+04  0.00000000000E+00 0. -1.
<mgrwt>
<rscale>  0 0.15318832E+04</rscale>
<asrwt>0</asrwt>
<pdfrwt beam="1">  1        2 0.24496305E+00 0.15318832E+04</pdfrwt>
<pdfrwt beam="2">  1       -2 0.56684460E-01 0.15318832E+04</pdfrwt>
<totfact> 0.31688789E+01</totfact>
</mgrwt>
</event>
<event>
 6    1  0.5196787E-004  0.3675129E+04  0.7818608E-02  0.8073496E-01
         -2   -1    0    0    0  501 -0.00000000000E+00  0.00000000000E+00  0.28369788958E+04  0.28369788958E+04  0.00000000000E+00 0. -1.
          2   -1    0    0  501    0  0.00000000000E+00 -0.00000000000E+00 -0.11902251144E+04  0.11902251144E+04  0.00000000000E+00 0.  1.
         23    2    1    2    0    0 -0.99739586410E+03 -0.63100509162E+03 -0.71785101070E+03  0.13844172693E+04  0.91297133475E+02 0.  0.
         11    1    3    3    0    0 -0.56231327635E+03 -0.38775888099E+03 -0.37259833486E+03  0.77806342267E+03  0.00000000000E+00 0. -1.
        -11    1    3    3    0    0 -0.43508258774E+03 -0.24324621064E+03 -0.34525267584E+03  0.60635384662E+03  0.00000000000E+00 0.  1.
         22    1    1    2    0    0  0.99739586410E+03  0.63100509162E+03  0.23646047921E+04  0.26427867409E+04  0.00000000000E+00 0. -1.
<mgrwt>
<rscale>  0 0.36751291E+04</rscale>
<asrwt>0</asrwt>
<pdfrwt beam="1">  1        2 0.18311156E+00 0.36751291E+04</pdfrwt>
<pdfrwt beam="2">  1       -2 0.43645829E+00 0.36751291E+04</pdfrwt>
<totfact> 0.66298911E-02</totfact>
</mgrwt>
</event>
<event>
 6    1  0.5923169E-004  0.2626679E+04  0.7818608E-02  0.8359195E-01
          2   -1    0    0  501    0  0.00000000000E+00  0.00000000000E+00  0.15476085851E+04  0.15476085851E+04  0.00000000000E+00 0.  1.
         -2   -1    0    0    0  501 -0.00000000000E+00 -0.00000000000E+00 -0.11145329181E+04  0.11145329181E+04  0.00000000000E+00 0. -1.
         23    2    1    2    0    0 -0.10368199641E+04  0.32570411146E+03  0.96228462453E+03  0.14533648792E+04  0.72103866124E+02 0.  0.
         13    1    3    3    0    0 -0.40568146865E+03  0.15637694038E+03  0.35523297516E+03  0.56144605095E+03  0.00000000000E+00 0. -1.
        -13    1    3    3    0    0 -0.63113849540E+03  0.16932717108E+03  0.60705164936E+03  0.89191882828E+03  0.00000000000E+00 0.  1.
         22    1    1    2    0    0  0.10368199641E+04 -0.32570411146E+03 -0.52920895753E+03  0.12087766240E+04  0.00000000000E+00 0. -1.
<mgrwt>
<rscale>  0 0.26266791E+04</rscale>
<asrwt>0</asrwt>
<pdfrwt beam="1">  1        2 0.23809363E+00 0.26266791E+04</pdfrwt>
<pdfrwt beam="2">  1       -2 0.17146660E+00 0.26266791E+04</pdfrwt>
<totfact> 0.21919217E+00</totfact>
</mgrwt>
</event>
<event>
 6    1  0.5196787E-004  0.2724441E+04  0.7818608E-02  0.8327118E-01
          2   -1    0    0  501    0  0.00000000000E+00  0.00000000000E+00  0.28496567487E+04  0.28496567487E+04  0.00000000000E+00 0.  1.
         -2   -1    0    0    0  501 -0.00000000000E+00 -0.00000000000E+00 -0.65118192485E+03  0.65118192485E+03  0.00000000000E+00 0. -1.
         23    2    1    2    0    0 -0.68779242363E+03  0.10458571582E+03  0.26031290092E+04  0.26960147178E+04  0.90653902596E+02 0.  0.
         11    1    3    3    0    0 -0.30004066333E+03  0.13418619275E+01  0.11512099766E+04  0.11896682774E+04  0.00000000000E+00 0. -1.
        -11    1    3    3    0    0 -0.38775176029E+03  0.10324385389E+03  0.14519190326E+04  0.15063464403E+04  0.00000000000E+00 0.  1.
         22    1    1    2    0    0  0.68779242363E+03 -0.10458571582E+03 -0.40465418539E+03  0.80482395572E+03  0.00000000000E+00 0. -1.
<mgrwt>
<rscale>  0 0.27244412E+04</rscale>
<asrwt>0</asrwt>
<pdfrwt beam="1">  1        2 0.43840872E+00 0.27244412E+04</pdfrwt>
<pdfrwt beam="2">  1       -2 0.10018184E+00 0.27244412E+04</pdfrwt>
<totfact> 0.15528091E+00</totfact>
</mgrwt>
</event>
<event>
 6    1  0.5196787E-004  0.3133081E+04  0.7818608E-02  0.8206717E-01
          2   -1    0    0  501    0  0.00000000000E+00  0.00000000000E+00  0.21974498653E+04  0.21974498653E+04  0.00000000000E+00 0.  1.
         -2   -1    0    0    0  501 -0.00000000000E+00 -0.00000000000E+00 -0.11167715143E+04  0.11167715143E+04  0.00000000000E+00 0. -1.
         23    2    1    2    0    0  0.12949715577E+04  0.86459897267E+03  0.70944795040E+03  0.17135044373E+04  0.91095244156E+02 0.  0.
         11    1    3    3    0    0  0.76984658597E+02  0.74963280874E+02  0.35905066336E+02  0.11329300476E+03  0.00000000000E+00 0.  1.
        -11    1    3    3    0    0  0.12179868991E+04  0.78963569180E+03  0.67354288407E+03  0.16002114326E+04  0.00000000000E+00 0. -1.
         22    1    1    2    0    0 -0.12949715577E+04 -0.86459897267E+03  0.37123040056E+03  0.16007169422E+04  0.00000000000E+00 0.  1.
<mgrwt>
<rscale>  0 0.31330812E+04</rscale>
<asrwt>0</asrwt>
<pdfrwt beam="1">  1        2 0.33806921E+00 0.31330812E+04</pdfrwt>
<pdfrwt beam="2">  1       -2 0.17181100E+00 0.31330812E+04</pdfrwt>
<totfact> 0.90769030E-01</totfact>
</mgrwt>
</event>
<event>
 6    1  0.5196787E-004  0.4847964E+04  0.7818608E-02  0.7852398E-01
         -2   -1    0    0    0  501 -0.00000000000E+00  0.00000000000E+00  0.25710667506E+04  0.25710667506E+04  0.00000000000E+00 0. -1.
          2   -1    0    0  501    0  0.00000000000E+00 -0.00000000000E+00 -0.22853119549E+04  0.22853119549E+04  0.00000000000E+00 0.  1.
         23    2    1    2    0    0  0.95009155601E+03  0.15046658817E+04  0.17904308473E+04  0.25259831595E+04  0.90856606029E+02 0.  0.
         11    1    3    3    0    0  0.54468218437E+03  0.80404826988E+03  0.10227548007E+04  0.14103899052E+04  0.00000000000E+00 0.  1.
        -11    1    3    3    0    0  0.40540937164E+03  0.70061761187E+03  0.76767604654E+03  0.11155932543E+04  0.00000000000E+00 0. -1.
         22    1    1    2    0    0 -0.95009155601E+03 -0.15046658817E+04 -0.15046760516E+04  0.23303955460E+04  0.00000000000E+00 0.  1.
<mgrwt>
<rscale>  0 0.48479643E+04</rscale>
<asrwt>0</asrwt>
<pdfrwt beam="1">  1        2 0.35158646E+00 0.48479643E+04</pdfrwt>
<pdfrwt beam="2">  1       -2 0.39554873E+00 0.48479643E+04</pdfrwt>
<totfact> 0.27039257E-02</totfact>
</mgrwt>
</event>
<event>
 6    1  0.5196787E-004  0.7517396E+03  0.7818608E-02  0.9632625E-01
          2   -1    0    0  501    0  0.00000000000E+00  0.00000000000E+00  0.89454292661E+03  0.89454292661E+03  0.00000000000E+00 0.  1.
         -2   -1    0    0    0  501 -0.00000000000E+00 -0.00000000000E+00 -0.15793329085E+03  0.15793329085E+03  0.00000000000E+00 0. -1.
         23    2    1    2    0    0 -0.49149807268E+02  0.36568952170E+03  0.42145981926E+03  0.56722995351E+03  0.89313554773E+02 0.  0.
         13    1    3    3    0    0 -0.30198145623E+02  0.18277060594E+03  0.27765893472E+03  0.33378362216E+03  0.00000000000E+00 0.  1.
        -13    1    3    3    0    0 -0.18951661645E+02  0.18291891576E+03  0.14380088454E+03  0.23344633135E+03  0.00000000000E+00 0. -1.
         22    1    1    2    0    0  0.49149807268E+02 -0.36568952170E+03  0.31514981650E+03  0.48524626395E+03  0.00000000000E+00 0.  1.
<mgrwt>
<rscale>  0 0.75173960E+03</rscale>
<asrwt>0</asrwt>
<pdfrwt beam="1">  1        2 0.13762199E+00 0.75173960E+03</pdfrwt>
<pdfrwt beam="2">  1       -2 0.24297430E-01 0.75173960E+03</pdfrwt>
<totfact> 0.44876405E+02</totfact>
</mgrwt>
</event>
<event>
 6    1  0.5196787E-004  0.9245599E+03  0.7818608E-02  0.9395391E-01
         -2   -1    0    0    0  501 -0.00000000000E+00  0.00000000000E+00  0.10241677236E+03  0.10241677236E+03  0.00000000000E+00 0. -1.
          2   -1    0    0  501    0  0.00000000000E+00 -0.00000000000E+00 -0.20865991898E+04  0.20865991898E+04  0.00000000000E+00 0.  1.
         23    2    1    2    0    0 -0.41735362648E+03  0.49046529099E+02 -0.57389587074E+03  0.71745293076E+03  0.93769002633E+02 0.  0.
         13    1    3    3    0    0 -0.16333557451E+03  0.53039669930E+02 -0.18037759247E+03  0.24905379409E+03  0.00000000000E+00 0. -1.
        -13    1    3    3    0    0 -0.25401805197E+03 -0.39931408308E+01 -0.39351827827E+03  0.46839913667E+03  0.00000000000E+00 0.  1.
         22    1    1    2    0    0  0.41735362648E+03 -0.49046529099E+02 -0.14102865467E+04  0.14715630314E+04  0.00000000000E+00 0. -1.
<mgrwt>
<rscale>  0 0.92455990E+03</rscale>
<asrwt>0</asrwt>
<pdfrwt beam="1">  1        2 0.32101524E+00 0.92455990E+03</pdfrwt>
<pdfrwt beam="2">  1       -2 0.15756427E-01 0.92455990E+03</pdfrwt>
<totfact> 0.19485644E+02</totfact>
</mgrwt>
</event>
<event>
 6    1  0.5196787E-004  0.2475758E+04  0.7818608E-02  0.8411673E-01
          2   -1    0    0  501    0  0.00000000000E+00  0.00000000000E+00  0.14023403792E+04  0.14023403792E+04  0.00000000000E+00 0.  1.
         -2   -1    0    0    0  501 -0.00000000000E+00 -0.00000000000E+00 -0.10927049716E+04  0.10927049716E+04  0.00000000000E+00 0. -1.
         23    2    1    2    0    0 -0.11571360432E+03  0.11654094887E+04  0.55388517098E+03  0.12987064100E+04  0.90998033477E+02 0.  0.
         13    1    3    3    0    0 -0.18009406550E+02  0.36256761874E+03  0.12999209139E+03  0.38558729324E+03  0.00000000000E+00 0.  1.
        -13    1    3    3    0    0 -0.97704197770E+02  0.80284186997E+03  0.42389307959E+03  0.91311911674E+03  0.00000000000E+00 0. -1.
         22    1    1    2    0    0  0.11571360432E+03 -0.11654094887E+04 -0.24424976337E+03  0.11963389409E+04  0.00000000000E+00 0. -1.
<mgrwt>
<rscale>  0 0.24757579E+04</rscale>
<asrwt>0</asrwt>
<pdfrwt beam="1">  1        2 0.21574467E+00 0.24757579E+04</pdfrwt>
<pdfrwt beam="2">  1       -2 0.16810846E+00 0.24757579E+04</pdfrwt>
<totfact> 0.28349245E+00</totfact>
</mgrwt>
</event>
<event>
 6    1  0.5196787E-004  0.1605937E+04  0.7818608E-02  0.8816909E-01
          2   -1    0    0  501    0  0.00000000000E+00  0.00000000000E+00  0.17017744627E+04  0.17017744627E+04  0.00000000000E+00 0. -1.
         -2   -1    0    0    0  501 -0.00000000000E+00 -0.00000000000E+00 -0.37887410260E+03  0.37887410260E+03  0.00000000000E+00 0.  1.
         23    2    1    2    0    0  0.70306065090E+02 -0.80746413095E+02  0.16912804888E+04  0.16970252537E+04  0.89454425156E+02 0.  0.
         11    1    3    3    0    0  0.70525382370E+01 -0.75280140124E+02  0.85349662326E+03  0.85683914692E+03  0.00000000000E+00 0.  1.
        -11    1    3    3    0    0  0.63253526853E+02 -0.54662729706E+01  0.83778386550E+03  0.84018610682E+03  0.00000000000E+00 0. -1.
         22    1    1    2    0    0 -0.70306065090E+02  0.80746413095E+02 -0.36838012864E+03  0.38362331158E+03  0.00000000000E+00 0.  1.
<mgrwt>
<rscale>  0 0.16059368E+04</rscale>
<asrwt>0</asrwt>
<pdfrwt beam="1">  1        2 0.26181145E+00 0.16059368E+04</pdfrwt>
<pdfrwt beam="2">  1       -2 0.58288325E-01 0.16059368E+04</pdfrwt>
<totfact> 0.25817195E+01</totfact>
</mgrwt>
</event>
<event>
 6    1  0.5196787E-004  0.1659480E+04  0.7818608E-02  0.8784818E-01
         -2   -1    0    0    0  501 -0.00000000000E+00  0.00000000000E+00  0.38629476861E+03  0.38629476861E+03  0.00000000000E+00 0. -1.
          2   -1    0    0  501    0  0.00000000000E+00 -0.00000000000E+00 -0.17822364398E+04  0.17822364398E+04  0.00000000000E+00 0.  1.
         23    2    1    2    0    0  0.26719356659E+03 -0.38250809633E+03 -0.15927274038E+04  0.16621425529E+04  0.90732780722E+02 0.  0.
         13    1    3    3    0    0  0.40151081153E+02 -0.11924050395E+03 -0.49118609644E+03  0.50704456257E+03  0.00000000000E+00 0. -1.
        -13    1    3    3    0    0  0.22704248544E+03 -0.26326759238E+03 -0.11015413074E+04  0.11550979903E+04  0.00000000000E+00 0.  1.
         22    1    1    2    0    0 -0.26719356659E+03  0.38250809633E+03  0.19678573268E+03  0.50638865545E+03  0.00000000000E+00 0. -1.
<mgrwt>
<rscale>  0 0.16594802E+04</rscale>
<asrwt>0</asrwt>
<pdfrwt beam="1">  1        2 0.27419021E+00 0.16594802E+04</pdfrwt>
<pdfrwt beam="2">  1       -2 0.59429966E-01 0.16594802E+04</pdfrwt>
<totfact> 0.22265718E+01</totfact>
</mgrwt>
</event>
<event>
 6    1  0.5196787E-004  0.2343513E+04  0.7818608E-02  0.8460960E-01
          1   -1    0    0  501    0  0.00000000000E+00  0.00000000000E+00  0.12327664311E+04  0.12327664311E+04  0.00000000000E+00 0.  1.
         -1   -1    0    0    0  501 -0.00000000000E+00 -0.00000000000E+00 -0.11137655781E+04  0.11137655781E+04  0.00000000000E+00 0. -1.
         23    2    1    2    0    0  0.11446176754E+03 -0.34520857507E+03  0.11729770543E+04  0.12315717905E+04  0.92862526481E+02 0.  0.
         11    1    3    3    0    0  0.50029637750E+02 -0.17579686434E+03  0.43864678211E+03  0.47520364227E+03  0.00000000000E+00 0. -1.
        -11    1    3    3    0    0  0.64432129793E+02 -0.16941171073E+03  0.73433027217E+03  0.75636814827E+03  0.00000000000E+00 0.  1.
         22    1    1    2    0    0 -0.11446176754E+03  0.34520857507E+03 -0.10539762012E+04  0.11149602187E+04  0.00000000000E+00 0. -1.
<mgrwt>
<rscale>  0 0.23435126E+04</rscale>
<asrwt>0</asrwt>
<pdfrwt beam="1">  1        1 0.18965638E+00 0.23435126E+04</pdfrwt>
<pdfrwt beam="2">  1       -1 0.17134855E+00 0.23435126E+04</pdfrwt>
<totfact> 0.21905770E+00</totfact>
</mgrwt>
</event>
<event>
 6    1  0.5196787E-004  0.1320030E+04  0.7818608E-02  0.9013830E-01
         -2   -1    0    0    0  501 -0.00000000000E+00  0.00000000000E+00  0.13451535629E+03  0.13451535629E+03  0.00000000000E+00 0. -1.
          2   -1    0    0  501    0  0.00000000000E+00 -0.00000000000E+00 -0.32384411454E+04  0.32384411454E+04  0.00000000000E+00 0.  1.
         23    2    1    2    0    0 -0.24976098387E+03  0.60621701486E+03 -0.14556321638E+04  0.15990479659E+04  0.90607851514E+02 0.  0.
         11    1    3    3    0    0 -0.63648263235E+02  0.72828193069E+02 -0.19807902035E+03  0.22043217874E+03  0.00000000000E+00 0. -1.
        -11    1    3    3    0    0 -0.18611272064E+03  0.53338882179E+03 -0.12575531434E+04  0.13786157871E+04  0.00000000000E+00 0.  1.
         22    1    1    2    0    0  0.24976098387E+03 -0.60621701486E+03 -0.16482936253E+04  0.17739085358E+04  0.00000000000E+00 0. -1.
<mgrwt>
<rscale>  0 0.13200304E+04</rscale>
<asrwt>0</asrwt>
<pdfrwt beam="1">  1        2 0.49822173E+00 0.13200304E+04</pdfrwt>
<pdfrwt beam="2">  1       -2 0.20694670E-01 0.13200304E+04</pdfrwt>
<totfact> 0.24468221E+01</totfact>
</mgrwt>
</event>
<event>
 6    1  0.5196787E-004  0.3562617E+04  0.7818608E-02  0.8099109E-01
          2   -1    0    0  501    0  0.00000000000E+00  0.00000000000E+00  0.24634165334E+04  0.24634165334E+04  0.00000000000E+00 0.  1.
         -2   -1    0    0    0  501 -0.00000000000E+00 -0.00000000000E+00 -0.12880729028E+04  0.12880729028E+04  0.00000000000E+00 0. -1.
         23    2    1    2    0    0  0.13849456712E+04  0.10074007503E+04  0.11002251530E+04  0.20372626223E+04  0.83742589040E+02 0.  0.
         13    1    3    3    0    0  0.68239135534E+03  0.46100368463E+03  0.49250355729E+03  0.95955307984E+03  0.00000000000E+00 0. -1.
        -13    1    3    3    0    0  0.70255431581E+03  0.54639706571E+03  0.60772159572E+03  0.10777095425E+04  0.00000000000E+00 0.  1.
         22    1    1    2    0    0 -0.13849456712E+04 -0.10074007503E+04  0.75118477628E+02  0.17142268139E+04  0.00000000000E+00 0. -1.
<mgrwt>
<rscale>  0 0.35626171E+04</rscale>
<asrwt>0</asrwt>
<pdfrwt beam="1">  1        2 0.37898716E+00 0.35626171E+04</pdfrwt>
<pdfrwt beam="2">  1       -2 0.19816506E+00 0.35626171E+04</pdfrwt>
<totfact> 0.40860139E-01</totfact>
</mgrwt>
</event>
<event>
 6    1  0.5313761E-004  0.3348700E+04  0.7818608E-02  0.8150613E-01
         -2   -1    0    0    0  501 -0.00000000000E+00  0.00000000000E+00  0.13754600187E+04  0.13754600187E+04  0.00000000000E+00 0. -1.
          2   -1    0    0  501    0  0.00000000000E+00 -0.00000000000E+00 -0.20381887760E+04  0.20381887760E+04  0.00000000000E+00 0.  1.
         23    2    1    2    0    0  0.20165606536E+03  0.16608406666E+04 -0.36338316920E+03  0.17140415843E+04  0.82670046159E+02 0.  0.
         11    1    3    3    0    0  0.68486702569E+02  0.34805795416E+03 -0.55073905000E+02  0.35898175845E+03  0.00000000000E+00 0. -1.
        -11    1    3    3    0    0  0.13316936279E+03  0.13127827124E+04 -0.30830926420E+03  0.13550598259E+04  0.00000000000E+00 0.  1.
         22    1    1    2    0    0 -0.20165606536E+03 -0.16608406666E+04 -0.29934558812E+03  0.16996072104E+04  0.00000000000E+00 0. -1.
<mgrwt>
<rscale>  0 0.33486996E+04</rscale>
<asrwt>0</asrwt>
<pdfrwt beam="1">  1        2 0.31356750E+00 0.33486996E+04</pdfrwt>
<pdfrwt beam="2">  1       -2 0.21160923E+00 0.33486996E+04</pdfrwt>
<totfact> 0.59178765E-01</totfact>
</mgrwt>
</event>
<event>
 6    1  0.5196787E-004  0.2184896E+04  0.7818608E-02  0.8524741E-01
         -2   -1    0    0    0  501 -0.00000000000E+00  0.00000000000E+00  0.21551996250E+04  0.21551996250E+04  0.00000000000E+00 0. -1.
          2   -1    0    0  501    0  0.00000000000E+00 -0.00000000000E+00 -0.55375063186E+03  0.55375063186E+03  0.00000000000E+00 0.  1.
         23    2    1    2    0    0  0.15415570078E+03  0.48557127617E+03 -0.39456616899E+03  0.64894540934E+03  0.76839041289E+02 0.  0.
         13    1    3    3    0    0  0.14690429770E+03  0.40607035982E+03 -0.35893691900E+03  0.56152446218E+03  0.00000000000E+00 0. -1.
        -13    1    3    3    0    0  0.72514030803E+01  0.79500916349E+02 -0.35629249991E+02  0.87420947157E+02  0.00000000000E+00 0.  1.
         22    1    1    2    0    0 -0.15415570078E+03 -0.48557127617E+03  0.19960151621E+04  0.20600048475E+04  0.00000000000E+00 0. -1.
<mgrwt>
<rscale>  0 0.21848965E+04</rscale>
<asrwt>0</asrwt>
<pdfrwt beam="1">  1        2 0.85192406E-01 0.21848965E+04</pdfrwt>
<pdfrwt beam="2">  1       -2 0.33156917E+00 0.21848965E+04</pdfrwt>
<totfact> 0.10155910E+00</totfact>
</mgrwt>
</event>
<event>
 6    1  0.5196787E-004  0.3097561E+04  0.7818608E-02  0.8216408E-01
         -2   -1    0    0    0  501 -0.00000000000E+00  0.00000000000E+00  0.16794503576E+04  0.16794503576E+04  0.00000000000E+00 0. -1.
          2   -1    0    0  501    0  0.00000000000E+00 -0.00000000000E+00 -0.14282776867E+04  0.14282776867E+04  0.00000000000E+00 0.  1.
         23    2    1    2    0    0 -0.38185847902E+03  0.14341130458E+04 -0.31406689901E+03  0.15196499928E+04  0.90564660318E+02 0.  0.
         13    1    3    3    0    0 -0.28774560375E+03  0.93952948904E+03 -0.23088071226E+03  0.10093656902E+04  0.00000000000E+00 0. -1.
        -13    1    3    3    0    0 -0.94112875272E+02  0.49458355671E+03 -0.83186186750E+02  0.51028430264E+03  0.00000000000E+00 0.  1.
         22    1    1    2    0    0  0.38185847902E+03 -0.14341130458E+04  0.56523956993E+03  0.15880780514E+04  0.00000000000E+00 0. -1.
<mgrwt>
<rscale>  0 0.30975613E+04</rscale>
<asrwt>0</asrwt>
<pdfrwt beam="1">  1        2 0.21973503E+00 0.30975613E+04</pdfrwt>
<pdfrwt beam="2">  1       -2 0.25837698E+00 0.30975613E+04</pdfrwt>
<totfact> 0.67583512E-01</totfact>
</mgrwt>
</event>
<event>
 6    1  0.5196787E-004  0.4115356E+04  0.7818608E-02  0.7981672E-01
         -2   -1    0    0    0  501 -0.00000000000E+00  0.00000000000E+00  0.24963473805E+04  0.24963473805E+04  0.00000000000E+00 0.  1.
          2   -1    0    0  501    0  0.00000000000E+00 -0.00000000000E+00 -0.16960931662E+04  0.16960931662E+04  0.00000000000E+00 0. -1.
         23    2    1    2    0    0 -0.20194918719E+04  0.32345172793E+03  0.61410245458E+03  0.21387558292E+04  0.11910596712E+03 0.  0.
         13    1    3    3    0    0 -0.11639868615E+04  0.16850174105E+03  0.29432074787E+03  0.12123872950E+04  0.00000000000E+00 0.  1.
        -13    1    3    3    0    0 -0.85550501038E+03  0.15494998687E+03  0.31978170671E+03  0.92636853421E+03  0.00000000000E+00 0. -1.
         22    1    1    2    0    0  0.20194918719E+04 -0.32345172793E+03  0.18615175979E+03  0.20536847174E+04  0.00000000000E+00 0.  1.
<mgrwt>
<rscale>  0 0.41153555E+04</rscale>
<asrwt>0</asrwt>
<pdfrwt beam="1">  1        2 0.26093741E+00 0.41153555E+04</pdfrwt>
<pdfrwt beam="2">  1       -2 0.38405344E+00 0.41153555E+04</pdfrwt>
<totfact> 0.72587063E-02</totfact>
</mgrwt>
</event>
<event>
 6    1  0.5196787E-004  0.5461522E+04  0.7818608E-02  0.7761006E-01
         -2   -1    0    0    0  501 -0.00000000000E+00  0.00000000000E+00  0.36631584813E+04  0.36631584813E+04  0.00000000000E+00 0. -1.
          2   -1    0    0  501    0  0.00000000000E+00 -0.00000000000E+00 -0.20356905071E+04  0.20356905071E+04  0.00000000000E+00 0.  1.
         23    2    1    2    0    0  0.22005423990E+04  0.15908423706E+04  0.11088567038E+04  0.29344098143E+04  0.89618473835E+02 0.  0.
         13    1    3    3    0    0  0.19935080900E+04  0.14305104131E+04  0.10285240739E+04  0.26605067783E+04  0.00000000000E+00 0. -1.
        -13    1    3    3    0    0  0.20703430900E+03  0.16033195748E+03  0.80332629910E+02  0.27390303598E+03  0.00000000000E+00 0.  1.
         22    1    1    2    0    0 -0.22005423990E+04 -0.15908423706E+04  0.51861127036E+03  0.27644391741E+04  0.00000000000E+00 0.  1.
<mgrwt>
<rscale>  0 0.54615225E+04</rscale>
<asrwt>0</asrwt>
<pdfrwt beam="1">  1        2 0.31318315E+00 0.54615225E+04</pdfrwt>
<pdfrwt beam="2">  1       -2 0.56356284E+00 0.54615225E+04</pdfrwt>
<totfact> 0.33234661E-03</totfact>
</mgrwt>
</event>
<event>
 6    1  0.5196787E-004  0.5757756E+04  0.7818608E-02  0.7721185E-01
         -2   -1    0    0    0  501 -0.00000000000E+00  0.00000000000E+00  0.43200599288E+04  0.43200599288E+04  0.00000000000E+00 0. -1.
          2   -1    0    0  501    0  0.00000000000E+00 -0.00000000000E+00 -0.19184774479E+04  0.19184774479E+04  0.00000000000E+00 0.  1.
         23    2    1    2    0    0  0.17563753332E+04  0.21905239761E+04  0.18840929020E+04  0.33835338627E+04  0.12347362327E+03 0.  0.
         13    1    3    3    0    0  0.93876894911E+03  0.10945666808E+04  0.10142101688E+04  0.17629479927E+04  0.00000000000E+00 0. -1.
        -13    1    3    3    0    0  0.81760638412E+03  0.10959572953E+04  0.86988273318E+03  0.16205858700E+04  0.00000000000E+00 0.  1.
         22    1    1    2    0    0 -0.17563753332E+04 -0.21905239761E+04  0.51748957889E+03  0.28550035140E+04  0.00000000000E+00 0. -1.
<mgrwt>
<rscale>  0 0.57577557E+04</rscale>
<asrwt>0</asrwt>
<pdfrwt beam="1">  1        2 0.29515038E+00 0.57577557E+04</pdfrwt>
<pdfrwt beam="2">  1       -2 0.66462460E+00 0.57577557E+04</pdfrwt>
<totfact> 0.15553098E-03</totfact>
</mgrwt>
</event>
<event>
 6    1  0.5196787E-004  0.2677012E+04  0.7818608E-02  0.8342503E-01
          2   -1    0    0  501    0  0.00000000000E+00  0.00000000000E+00  0.12537226068E+04  0.12537226068E+04  0.00000000000E+00 0.  1.
         -2   -1    0    0    0  501 -0.00000000000E+00 -0.00000000000E+00 -0.14290227135E+04  0.14290227135E+04  0.00000000000E+00 0. -1.
         23    2    1    2    0    0 -0.55228803280E+03 -0.52764920854E+03 -0.11875243542E+04  0.14146626394E+04  0.87295664128E+02 0.  0.
         11    1    3    3    0    0 -0.27056780761E+03 -0.23415055302E+03 -0.48280134695E+03  0.60094139532E+03  0.00000000000E+00 0.  1.
        -11    1    3    3    0    0 -0.28172022519E+03 -0.29349865552E+03 -0.70472300730E+03  0.81372124409E+03  0.00000000000E+00 0. -1.
         22    1    1    2    0    0  0.55228803280E+03  0.52764920854E+03  0.10122242475E+04  0.12680826809E+04  0.00000000000E+00 0.  1.
<mgrwt>
<rscale>  0 0.26770118E+04</rscale>
<asrwt>0</asrwt>
<pdfrwt beam="1">  1        2 0.19288040E+00 0.26770118E+04</pdfrwt>
<pdfrwt beam="2">  1       -2 0.21984965E+00 0.26770118E+04</pdfrwt>
<totfact> 0.15321603E+00</totfact>
</mgrwt>
</event>
<event>
 6    1  0.5196787E-004  0.2951700E+04  0.7818608E-02  0.8257659E-01
          2   -1    0    0  501    0  0.00000000000E+00  0.00000000000E+00  0.21736171667E+04  0.21736171667E+04  0.00000000000E+00 0.  1.
         -2   -1    0    0    0  501 -0.00000000000E+00 -0.00000000000E+00 -0.10020776809E+04  0.10020776809E+04  0.00000000000E+00 0. -1.
         23    2    1    2    0    0  0.70481429469E+03 -0.74021286930E+03 -0.55695999439E+03  0.11676139889E+04  0.91867893773E+02 0.  0.
         13    1    3    3    0    0  0.18424634921E+03 -0.16778658964E+03 -0.96474156533E+02  0.26721960957E+03  0.00000000000E+00 0.  1.
        -13    1    3    3    0    0  0.52056794548E+03 -0.57242627965E+03 -0.46048583786E+03  0.90039437935E+03  0.00000000000E+00 0. -1.
         22    1    1    2    0    0 -0.70481429469E+03  0.74021286930E+03  0.17284994802E+04  0.20080808587E+04  0.00000000000E+00 0.  1.
<mgrwt>
<rscale>  0 0.29517000E+04</rscale>
<asrwt>0</asrwt>
<pdfrwt beam="1">  1        2 0.33440264E+00 0.29517000E+04</pdfrwt>
<pdfrwt beam="2">  1       -2 0.15416580E+00 0.29517000E+04</pdfrwt>
<totfact> 0.12789966E+00</totfact>
</mgrwt>
</event>
<event>
 6    1  0.5196787E-004  0.2086573E+04  0.7818608E-02  0.8567181E-01
         -2   -1    0    0    0  501 -0.00000000000E+00  0.00000000000E+00  0.43956350182E+03  0.43956350182E+03  0.00000000000E+00 0. -1.
          2   -1    0    0  501    0  0.00000000000E+00 -0.00000000000E+00 -0.24761998446E+04  0.24761998446E+04  0.00000000000E+00 0.  1.
         23    2    1    2    0    0 -0.33832289975E+03 -0.51072138970E+03 -0.21969873852E+04  0.22825089117E+04  0.88287250853E+02 0.  0.
         11    1    3    3    0    0 -0.13855528895E+03 -0.24922256451E+03 -0.88074395044E+03  0.92575340183E+03  0.00000000000E+00 0. -1.
        -11    1    3    3    0    0 -0.19976761079E+03 -0.26149882519E+03 -0.13162434348E+04  0.13567555098E+04  0.00000000000E+00 0.  1.
         22    1    1    2    0    0  0.33832289975E+03  0.51072138970E+03  0.16035104239E+03  0.63325443479E+03  0.00000000000E+00 0. -1.
<mgrwt>
<rscale>  0 0.20865733E+04</rscale>
<asrwt>0</asrwt>
<pdfrwt beam="1">  1        2 0.38095383E+00 0.20865733E+04</pdfrwt>
<pdfrwt beam="2">  1       -2 0.67625153E-01 0.20865733E+04</pdfrwt>
<totfact> 0.66457358E+00</totfact>
</mgrwt>
</event>
<event>
 6    1  0.5196787E-004  0.4239698E+04  0.7818608E-02  0.7957864E-01
          2   -1    0    0  501    0  0.00000000000E+00  0.00000000000E+00  0.27868686794E+04  0.27868686794E+04  0.00000000000E+00 0.  1.
         -2   -1    0    0    0  501 -0.00000000000E+00 -0.00000000000E+00 -0.16124764466E+04  0.16124764466E+04  0.00000000000E+00 0. -1.
         23    2    1    2    0    0 -0.23936400399E+03 -0.48722349532E+03 -0.15378452106E+04  0.16333165993E+04  0.89851884294E+02 0.  0.
         13    1    3    3    0    0 -0.14678375383E+02 -0.89438592435E+02 -0.32046995017E+03  0.33304009590E+03  0.00000000000E+00 0. -1.
        -13    1    3    3    0    0 -0.22468562861E+03 -0.39778490289E+03 -0.12173752604E+04  0.13002765034E+04  0.00000000000E+00 0.  1.
         22    1    1    2    0    0  0.23936400399E+03  0.48722349532E+03  0.27122374434E+04  0.27660285267E+04  0.00000000000E+00 0.  1.
<mgrwt>
<rscale>  0 0.42396982E+04</rscale>
<asrwt>0</asrwt>
<pdfrwt beam="1">  1        2 0.42874903E+00 0.42396982E+04</pdfrwt>
<pdfrwt beam="2">  1       -2 0.24807330E+00 0.42396982E+04</pdfrwt>
<totfact> 0.12032354E-01</totfact>
</mgrwt>
</event>
<event>
 6    1  0.5196787E-004  0.1601281E+04  0.7818608E-02  0.8819761E-01
          2   -1    0    0  501    0  0.00000000000E+00  0.00000000000E+00  0.11171779655E+04  0.11171779655E+04  0.00000000000E+00 0.  1.
         -2   -1    0    0    0  501 -0.00000000000E+00 -0.00000000000E+00 -0.57379004740E+03  0.57379004740E+03  0.00000000000E+00 0. -1.
         23    2    1    2    0    0  0.23414155166E+03 -0.35196458057E+03 -0.44261503721E+03  0.61816646551E+03  0.86720099874E+02 0.  0.
         11    1    3    3    0    0  0.23382194862E+03 -0.33517664126E+03 -0.39783090858E+03  0.57033807196E+03  0.00000000000E+00 0.  1.
        -11    1    3    3    0    0  0.31960304201E+00 -0.16787939312E+02 -0.44784128630E+02  0.47828393550E+02  0.00000000000E+00 0. -1.
         22    1    1    2    0    0 -0.23414155166E+03  0.35196458057E+03  0.98600295527E+03  0.10728015473E+04  0.00000000000E+00 0.  1.
<mgrwt>
<rscale>  0 0.16012815E+04</rscale>
<asrwt>0</asrwt>
<pdfrwt beam="1">  1        2 0.17187353E+00 0.16012815E+04</pdfrwt>
<pdfrwt beam="2">  1       -2 0.88275392E-01 0.16012815E+04</pdfrwt>
<totfact> 0.22531251E+01</totfact>
</mgrwt>
</event>
<event>
 6    1  0.5196787E-004  0.4354025E+04  0.7818608E-02  0.7936703E-01
          2   -1    0    0  501    0  0.00000000000E+00  0.00000000000E+00  0.18479921190E+04  0.18479921190E+04  0.00000000000E+00 0.  1.
         -2   -1    0    0    0  501 -0.00000000000E+00 -0.00000000000E+00 -0.25646127363E+04  0.25646127363E+04  0.00000000000E+00 0. -1.
         23    2    1    2    0    0 -0.66446788084E+03 -0.21909907409E+03  0.17299364848E+04  0.18679705745E+04  0.84331824822E+02 0.  0.
         13    1    3    3    0    0 -0.25640626539E+03 -0.42510126004E+02  0.65888400840E+03  0.70829331513E+03  0.00000000000E+00 0. -1.
        -13    1    3    3    0    0 -0.40806161545E+03 -0.17658894809E+03  0.10710524764E+04  0.11596772593E+04  0.00000000000E+00 0.  1.
         22    1    1    2    0    0  0.66446788084E+03  0.21909907409E+03 -0.24465571021E+04  0.25446342808E+04  0.00000000000E+00 0. -1.
<mgrwt>
<rscale>  0 0.43540253E+04</rscale>
<asrwt>0</asrwt>
<pdfrwt beam="1">  1        2 0.28430648E+00 0.43540253E+04</pdfrwt>
<pdfrwt beam="2">  1       -2 0.39455580E+00 0.43540253E+04</pdfrwt>
<totfact> 0.50117689E-02</totfact>
</mgrwt>
</event>
<event>
 6    1  0.5196787E-004  0.2068910E+04  0.7818608E-02  0.8575064E-01
         -2   -1    0    0    0  501 -0.00000000000E+00  0.00000000000E+00  0.69373721742E+03  0.69373721742E+03  0.00000000000E+00 0. -1.
          2   -1    0    0  501    0  0.00000000000E+00 -0.00000000000E+00 -0.15425109403E+04  0.15425109403E+04  0.00000000000E+00 0.  1.
         23    2    1    2    0    0 -0.55011514646E+03 -0.21049520229E+03  0.49141238418E+03  0.77233774170E+03  0.89914133347E+02 0.  0.
         13    1    3    3    0    0 -0.10820987401E+03 -0.81111460564E+02  0.10452338785E+03  0.17091981885E+03  0.00000000000E+00 0. -1.
        -13    1    3    3    0    0 -0.44190527245E+03 -0.12938374172E+03  0.38688899634E+03  0.60141792285E+03  0.00000000000E+00 0.  1.
         22    1    1    2    0    0  0.55011514646E+03  0.21049520229E+03 -0.13401861071E+04  0.14639104160E+04  0.00000000000E+00 0.  1.
<mgrwt>
<rscale>  0 0.20689101E+04</rscale>
<asrwt>0</asrwt>
<pdfrwt beam="1">  1        2 0.23730937E+00 0.20689101E+04</pdfrwt>
<pdfrwt beam="2">  1       -2 0.10672880E+00 0.20689101E+04</pdfrwt>
<totfact> 0.78443486E+00</totfact>
</mgrwt>
</event>
<event>
 6    1  0.5196787E-004  0.4750873E+04  0.7818608E-02  0.7868130E-01
         -2   -1    0    0    0  501 -0.00000000000E+00  0.00000000000E+00  0.13603889601E+04  0.13603889601E+04  0.00000000000E+00 0. -1.
          2   -1    0    0  501    0  0.00000000000E+00 -0.00000000000E+00 -0.41478572781E+04  0.41478572781E+04  0.00000000000E+00 0.  1.
         23    2    1    2    0    0  0.61616086759E+03  0.22638531227E+04 -0.97014494296E+03  0.25405283565E+04  0.91749355372E+02 0.  0.
         13    1    3    3    0    0  0.18803408515E+03  0.77631307271E+03 -0.37067939181E+03  0.88058049919E+03  0.00000000000E+00 0. -1.
        -13    1    3    3    0    0  0.42812678244E+03  0.14875400500E+04 -0.59946555115E+03  0.16599478574E+04  0.00000000000E+00 0.  1.
         22    1    1    2    0    0 -0.61616086759E+03 -0.22638531227E+04 -0.18173233750E+04  0.29677178817E+04  0.00000000000E+00 0.  1.
<mgrwt>
<rscale>  0 0.47508733E+04</rscale>
<asrwt>0</asrwt>
<pdfrwt beam="1">  1        2 0.63813188E+00 0.47508733E+04</pdfrwt>
<pdfrwt beam="2">  1       -2 0.20929061E+00 0.47508733E+04</pdfrwt>
<totfact> 0.22031742E-02</totfact>
</mgrwt>
</event>
<event>
 6    1  0.5196787E-004  0.4763273E+04  0.7818608E-02  0.7866100E-01
          2   -1    0    0  501    0  0.00000000000E+00  0.00000000000E+00  0.49132862642E+04  0.49132862642E+04  0.00000000000E+00 0.  1.
         -2   -1    0    0    0  501 -0.00000000000E+00 -0.00000000000E+00 -0.11544601867E+04  0.11544601867E+04  0.00000000000E+00 0. -1.
         23    2    1    2    0    0  0.18149655488E+04  0.16873793162E+03 -0.70749271103E+02  0.18264943029E+04  0.92214675136E+02 0.  0.
         11    1    3    3    0    0  0.11595517575E+04  0.10832807076E+03 -0.89504496091E+02  0.11680352323E+04  0.00000000000E+00 0.  1.
        -11    1    3    3    0    0  0.65541379132E+03  0.60409860861E+02  0.18755224988E+02  0.65845907056E+03  0.00000000000E+00 0. -1.
         22    1    1    2    0    0 -0.18149655488E+04 -0.16873793162E+03  0.38295753486E+04  0.42412521480E+04  0.00000000000E+00 0.  1.
<mgrwt>
<rscale>  0 0.47632734E+04</rscale>
<asrwt>0</asrwt>
<pdfrwt beam="1">  1        2 0.75589018E+00 0.47632734E+04</pdfrwt>
<pdfrwt beam="2">  1       -2 0.17760926E+00 0.47632734E+04</pdfrwt>
<totfact> 0.60463645E-03</totfact>
</mgrwt>
</event>
<event>
 6    1  0.5196787E-004  0.4616256E+04  0.7818608E-02  0.7890594E-01
         -2   -1    0    0    0  501 -0.00000000000E+00  0.00000000000E+00  0.25791563436E+04  0.25791563436E+04  0.00000000000E+00 0. -1.
          2   -1    0    0  501    0  0.00000000000E+00 -0.00000000000E+00 -0.20655807851E+04  0.20655807851E+04  0.00000000000E+00 0.  1.
         23    2    1    2    0    0  0.18009262383E+04  0.73969508691E+03 -0.98881377615E+03  0.21855385091E+04  0.91333201772E+02 0.  0.
         13    1    3    3    0    0  0.10357076956E+04  0.38973085361E+03 -0.52692036513E+03  0.12256531484E+04  0.00000000000E+00 0. -1.
        -13    1    3    3    0    0  0.76521854270E+03  0.34996423329E+03 -0.46189341102E+03  0.95988536077E+03  0.00000000000E+00 0.  1.
         22    1    1    2    0    0 -0.18009262383E+04 -0.73969508691E+03  0.15023893347E+04  0.24591986196E+04  0.00000000000E+00 0. -1.
<mgrwt>
<rscale>  0 0.46162564E+04</rscale>
<asrwt>0</asrwt>
<pdfrwt beam="1">  1        2 0.31778166E+00 0.46162564E+04</pdfrwt>
<pdfrwt beam="2">  1       -2 0.39679328E+00 0.46162564E+04</pdfrwt>
<totfact> 0.35919903E-02</totfact>
</mgrwt>
</event>
<event>
 6    1  0.5196787E-004  0.5605428E+04  0.7818608E-02  0.7741347E-01
          2   -1    0    0  501    0  0.00000000000E+00  0.00000000000E+00  0.35398649845E+04  0.35398649845E+04  0.00000000000E+00 0. -1.
         -2   -1    0    0    0  501 -0.00000000000E+00 -0.00000000000E+00 -0.22190691576E+04  0.22190691576E+04  0.00000000000E+00 0.  1.
         23    2    1    2    0    0  0.98455516954E+03 -0.12754349758E+04 -0.16945677704E+04  0.23400891788E+04  0.91510528830E+02 0.  0.
         11    1    3    3    0    0  0.41827052792E+03 -0.57183269246E+03 -0.80546485051E+03  0.10727145418E+04  0.00000000000E+00 0. -1.
        -11    1    3    3    0    0  0.56628464162E+03 -0.70360228335E+03 -0.88910291991E+03  0.12673746371E+04  0.00000000000E+00 0.  1.
         22    1    1    2    0    0 -0.98455516954E+03  0.12754349758E+04  0.30153635973E+04  0.34188449633E+04  0.00000000000E+00 0. -1.
<mgrwt>
<rscale>  0 0.56054278E+04</rscale>
<asrwt>0</asrwt>
<pdfrwt beam="1">  1        2 0.54459461E+00 0.56054278E+04</pdfrwt>
<pdfrwt beam="2">  1       -2 0.34139525E+00 0.56054278E+04</pdfrwt>
<totfact> 0.93000358E-03</totfact>
</mgrwt>
</event>
<event>
 6    1  0.5196787E-004  0.7976627E+03  0.7818608E-02  0.9563406E-01
          2   -1    0    0  501    0  0.00000000000E+00  0.00000000000E+00  0.12908076686E+04  0.12908076686E+04  0.00000000000E+00 0.  1.
         -2   -1    0    0    0  501 -0.00000000000E+00 -0.00000000000E+00 -0.12323017664E+03  0.12323017664E+03  0.00000000000E+00 0. -1.
         23    2    1    2    0    0  0.74213635391E+02 -0.11069007793E+03  0.12479275234E+04  0.12584226641E+04  0.92436685389E+02 0.  0.
         11    1    3    3    0    0  0.41617849321E+02 -0.10844546485E+03  0.70431698935E+03  0.71383113249E+03  0.00000000000E+00 0.  1.
        -11    1    3    3    0    0  0.32595786071E+02 -0.22446130799E+01  0.54361053407E+03  0.54459153162E+03  0.00000000000E+00 0. -1.
         22    1    1    2    0    0 -0.74213635391E+02  0.11069007793E+03 -0.80350031483E+02  0.15561518110E+03  0.00000000000E+00 0. -1.
<mgrwt>
<rscale>  0 0.79766273E+03</rscale>
<asrwt>0</asrwt>
<pdfrwt beam="1">  1        2 0.19858579E+00 0.79766273E+03</pdfrwt>
<pdfrwt beam="2">  1       -2 0.18958490E-01 0.79766273E+03</pdfrwt>
<totfact> 0.39495277E+02</totfact>
</mgrwt>
</event>
<event>
 6    1  0.5196787E-004  0.1788379E+04  0.7818608E-02  0.8712504E-01
         -1   -1    0    0    0  501 -0.00000000000E+00  0.00000000000E+00  0.69956134008E+03  0.69956134008E+03  0.00000000000E+00 0. -1.
          1   -1    0    0  501    0  0.00000000000E+00 -0.00000000000E+00 -0.11429657633E+04  0.11429657633E+04  0.00000000000E+00 0.  1.
         23    2    1    2    0    0  0.85241074710E+03  0.25963222099E+03 -0.19224113111E+03  0.91673232522E+03  0.97100626458E+02 0.  0.
         11    1    3    3    0    0  0.54390552954E+03  0.20041687091E+03 -0.91467722875E+02  0.58682748022E+03  0.00000000000E+00 0. -1.
        -11    1    3    3    0    0  0.30850521756E+03  0.59215350081E+02 -0.10077340824E+03  0.32990484500E+03  0.00000000000E+00 0.  1.
         22    1    1    2    0    0 -0.85241074710E+03 -0.25963222099E+03 -0.25116329209E+03  0.92579477815E+03  0.00000000000E+00 0. -1.
<mgrwt>
<rscale>  0 0.17883788E+04</rscale>
<asrwt>0</asrwt>
<pdfrwt beam="1">  1        1 0.17584089E+00 0.17883788E+04</pdfrwt>
<pdfrwt beam="2">  1       -1 0.10762482E+00 0.17883788E+04</pdfrwt>
<totfact> 0.89366217E+00</totfact>
</mgrwt>
</event>
<event>
 6    1  0.5196787E-004  0.1884549E+04  0.7818608E-02  0.8662586E-01
          2   -1    0    0  501    0  0.00000000000E+00  0.00000000000E+00  0.22084758516E+04  0.22084758516E+04  0.00000000000E+00 0.  1.
         -2   -1    0    0    0  501 -0.00000000000E+00 -0.00000000000E+00 -0.40203331914E+03  0.40203331914E+03  0.00000000000E+00 0. -1.
         23    2    1    2    0    0  0.75044873800E+03 -0.17058712957E+03  0.16540460255E+04  0.18259723823E+04  0.77676310638E+02 0.  0.
         11    1    3    3    0    0  0.57765444375E+03 -0.10407432139E+03  0.12090263647E+04  0.13439720500E+04  0.00000000000E+00 0.  1.
        -11    1    3    3    0    0  0.17279429425E+03 -0.66512808176E+02  0.44501966082E+03  0.48200033226E+03  0.00000000000E+00 0. -1.
         22    1    1    2    0    0 -0.75044873800E+03  0.17058712957E+03  0.15239650698E+03  0.78453678848E+03  0.00000000000E+00 0. -1.
<mgrwt>
<rscale>  0 0.18845486E+04</rscale>
<asrwt>0</asrwt>
<pdfrwt beam="1">  1        2 0.33976551E+00 0.18845486E+04</pdfrwt>
<pdfrwt beam="2">  1       -2 0.61851281E-01 0.18845486E+04</pdfrwt>
<totfact> 0.11630711E+01</totfact>
</mgrwt>
</event>
<event>
 6    1  0.5196787E-004  0.1199263E+04  0.7818608E-02  0.9113502E-01
         -2   -1    0    0    0  501 -0.00000000000E+00  0.00000000000E+00  0.36401434558E+03  0.36401434558E+03  0.00000000000E+00 0. -1.
          2   -1    0    0  501    0  0.00000000000E+00 -0.00000000000E+00 -0.98775762353E+03  0.98775762353E+03  0.00000000000E+00 0.  1.
         23    2    1    2    0    0  0.42177178075E+03  0.17621270297E+03 -0.74515627080E+03  0.87882010416E+03  0.90136318084E+02 0.  0.
         13    1    3    3    0    0  0.15394995918E+02  0.25181779287E+02 -0.75655144864E+02  0.81208551592E+02  0.00000000000E+00 0.  1.
        -13    1    3    3    0    0  0.40637678484E+03  0.15103092369E+03 -0.66950112594E+03  0.79761155257E+03  0.00000000000E+00 0. -1.
         22    1    1    2    0    0 -0.42177178075E+03 -0.17621270297E+03  0.12141299285E+03  0.47295186495E+03  0.00000000000E+00 0. -1.
<mgrwt>
<rscale>  0 0.11992630E+04</rscale>
<asrwt>0</asrwt>
<pdfrwt beam="1">  1        2 0.15196271E+00 0.11992630E+04</pdfrwt>
<pdfrwt beam="2">  1       -2 0.56002207E-01 0.11992630E+04</pdfrwt>
<totfact> 0.75788902E+01</totfact>
</mgrwt>
</event>
<event>
 6    1  0.5196787E-004  0.1328435E+04  0.7818608E-02  0.9007315E-01
         -2   -1    0    0    0  501 -0.00000000000E+00  0.00000000000E+00  0.59846139686E+03  0.59846139686E+03  0.00000000000E+00 0. -1.
          2   -1    0    0  501    0  0.00000000000E+00 -0.00000000000E+00 -0.73719818696E+03  0.73719818696E+03  0.00000000000E+00 0.  1.
         23    2    1    2    0    0 -0.39848200646E+02 -0.47511743178E+03 -0.53010246652E+03  0.71881961612E+03  0.91479847202E+02 0.  0.
         11    1    3    3    0    0 -0.55349803077E+02 -0.19321884838E+03 -0.18740044967E+03  0.27480184244E+03  0.00000000000E+00 0.  1.
        -11    1    3    3    0    0  0.15501602432E+02 -0.28189858340E+03 -0.34270201685E+03  0.44401777369E+03  0.00000000000E+00 0. -1.
         22    1    1    2    0    0  0.39848200646E+02  0.47511743178E+03  0.39136567642E+03  0.61683996770E+03  0.00000000000E+00 0. -1.
<mgrwt>
<rscale>  0 0.13284347E+04</rscale>
<asrwt>0</asrwt>
<pdfrwt beam="1">  1        2 0.11341511E+00 0.13284347E+04</pdfrwt>
<pdfrwt beam="2">  1       -2 0.92070984E-01 0.13284347E+04</pdfrwt>
<totfact> 0.37621435E+01</totfact>
</mgrwt>
</event>
<event>
 6    1  0.5196787E-004  0.2253019E+04  0.7818608E-02  0.8496679E-01
          2   -1    0    0  501    0  0.00000000000E+00  0.00000000000E+00  0.68190146325E+03  0.68190146325E+03  0.00000000000E+00 0.  1.
         -2   -1    0    0    0  501 -0.00000000000E+00 -0.00000000000E+00 -0.18610066307E+04  0.18610066307E+04  0.00000000000E+00 0. -1.
         23    2    1    2    0    0 -0.55810130560E+03  0.96558607069E+03 -0.42744159472E+03  0.11979799718E+04  0.92823319679E+02 0.  0.
         11    1    3    3    0    0 -0.44485752351E+03  0.82302856318E+03 -0.38038735945E+03  0.10099350352E+04  0.00000000000E+00 0. -1.
        -11    1    3    3    0    0 -0.11324378209E+03  0.14255750751E+03 -0.47054235273E+02  0.18804493662E+03  0.00000000000E+00 0.  1.
         22    1    1    2    0    0  0.55810130560E+03 -0.96558607069E+03 -0.75166357271E+03  0.13449281222E+04  0.00000000000E+00 0. -1.
<mgrwt>
<rscale>  0 0.22530185E+04</rscale>
<asrwt>0</asrwt>
<pdfrwt beam="1">  1        2 0.10490792E+00 0.22530185E+04</pdfrwt>
<pdfrwt beam="2">  1       -2 0.28630871E+00 0.22530185E+04</pdfrwt>
<totfact> 0.14858351E+00</totfact>
</mgrwt>
</event>
<event>
 6    1  0.5196787E-004  0.1403489E+04  0.7818608E-02  0.8951297E-01
         -2   -1    0    0    0  501 -0.00000000000E+00  0.00000000000E+00  0.99808348594E+03  0.99808348594E+03  0.00000000000E+00 0. -1.
          2   -1    0    0  501    0  0.00000000000E+00 -0.00000000000E+00 -0.49339075957E+03  0.49339075957E+03  0.00000000000E+00 0.  1.
         23    2    1    2    0    0 -0.22656972219E+03  0.62684333749E+03  0.30350704614E+02  0.67338698709E+03  0.90898076639E+02 0.  0.
         11    1    3    3    0    0 -0.83367348138E+02  0.30914064794E+03  0.51321426245E+02  0.32427140444E+03  0.00000000000E+00 0.  1.
        -11    1    3    3    0    0 -0.14320237406E+03  0.31770268955E+03 -0.20970721631E+02  0.34911558265E+03  0.00000000000E+00 0. -1.
         22    1    1    2    0    0  0.22656972219E+03 -0.62684333749E+03  0.47434202175E+03  0.81808725841E+03  0.00000000000E+00 0.  1.
<mgrwt>
<rscale>  0 0.14034888E+04</rscale>
<asrwt>0</asrwt>
<pdfrwt beam="1">  1        2 0.75906271E-01 0.14034888E+04</pdfrwt>
<pdfrwt beam="2">  1       -2 0.15355131E+00 0.14034888E+04</pdfrwt>
<totfact> 0.17115568E+01</totfact>
</mgrwt>
</event>
<event>
 6    1  0.5196787E-004  0.4609722E+04  0.7818608E-02  0.7891704E-01
         -2   -1    0    0    0  501 -0.00000000000E+00  0.00000000000E+00  0.17050430926E+04  0.17050430926E+04  0.00000000000E+00 0. -1.
          2   -1    0    0  501    0  0.00000000000E+00 -0.00000000000E+00 -0.31156890306E+04  0.31156890306E+04  0.00000000000E+00 0.  1.
         23    2    1    2    0    0  0.12285426863E+03 -0.13962304974E+04  0.12066778255E+04  0.18517362567E+04  0.91120890508E+02 0.  0.
         13    1    3    3    0    0 -0.71658242212E+01 -0.34617677668E+03  0.28227218478E+03  0.44672955583E+03  0.00000000000E+00 0.  1.
        -13    1    3    3    0    0  0.13002009285E+03 -0.10500537207E+04  0.92440564067E+03  0.14050067009E+04  0.00000000000E+00 0. -1.
         22    1    1    2    0    0 -0.12285426863E+03  0.13962304974E+04 -0.26173237635E+04  0.29689958666E+04  0.00000000000E+00 0.  1.
<mgrwt>
<rscale>  0 0.46097219E+04</rscale>
<asrwt>0</asrwt>
<pdfrwt beam="1">  1        2 0.47933677E+00 0.46097219E+04</pdfrwt>
<pdfrwt beam="2">  1       -2 0.26231433E+00 0.46097219E+04</pdfrwt>
<totfact> 0.59591405E-02</totfact>
</mgrwt>
</event>
<event>
 6    1  0.5196787E-004  0.1424693E+04  0.7818608E-02  0.8936136E-01
         -2   -1    0    0    0  501 -0.00000000000E+00  0.00000000000E+00  0.52932632510E+03  0.52932632510E+03  0.00000000000E+00 0.  1.
          2   -1    0    0  501    0  0.00000000000E+00 -0.00000000000E+00 -0.95864758716E+03  0.95864758716E+03  0.00000000000E+00 0. -1.
         23    2    1    2    0    0 -0.21525387674E+03 -0.17387084258E+03  0.46684963527E+03  0.55005729626E+03  0.89717032199E+02 0.  0.
         13    1    3    3    0    0 -0.74600043544E+02 -0.10550895525E+03  0.16007943945E+03  0.20572489657E+03  0.00000000000E+00 0. -1.
        -13    1    3    3    0    0 -0.14065383319E+03 -0.68361887329E+02  0.30677019582E+03  0.34433239969E+03  0.00000000000E+00 0.  1.
         22    1    1    2    0    0  0.21525387674E+03  0.17387084258E+03 -0.89617089732E+03  0.93791661600E+03  0.00000000000E+00 0. -1.
<mgrwt>
<rscale>  0 0.14246928E+04</rscale>
<asrwt>0</asrwt>
<pdfrwt beam="1">  1        2 0.14748424E+00 0.14246928E+04</pdfrwt>
<pdfrwt beam="2">  1       -2 0.81434820E-01 0.14246928E+04</pdfrwt>
<totfact> 0.34583163E+01</totfact>
</mgrwt>
</event>
<event>
 6    1  0.5196787E-004  0.3600470E+04  0.7818608E-02  0.8090384E-01
         -2   -1    0    0    0  501 -0.00000000000E+00  0.00000000000E+00  0.13063690765E+04  0.13063690765E+04  0.00000000000E+00 0. -1.
          2   -1    0    0  501    0  0.00000000000E+00 -0.00000000000E+00 -0.24808049307E+04  0.24808049307E+04  0.00000000000E+00 0.  1.
         23    2    1    2    0    0  0.39216049881E+03  0.65489676084E+03  0.11259282191E+04  0.13634672398E+04  0.92999651511E+02 0.  0.
         13    1    3    3    0    0  0.20235035184E+03  0.33207056806E+03  0.65567123481E+03  0.76231312150E+03  0.00000000000E+00 0. -1.
        -13    1    3    3    0    0  0.18981014697E+03  0.32282619278E+03  0.47025698431E+03  0.60115411829E+03  0.00000000000E+00 0.  1.
         22    1    1    2    0    0 -0.39216049881E+03 -0.65489676084E+03 -0.23003640734E+04  0.24237067674E+04  0.00000000000E+00 0.  1.
<mgrwt>
<rscale>  0 0.36004704E+04</rscale>
<asrwt>0</asrwt>
<pdfrwt beam="1">  1        2 0.38166230E+00 0.36004704E+04</pdfrwt>
<pdfrwt beam="2">  1       -2 0.20097986E+00 0.36004704E+04</pdfrwt>
<totfact> 0.38140389E-01</totfact>
</mgrwt>
</event>
<event>
 6    1  0.5196787E-004  0.2464950E+04  0.7818608E-02  0.8415580E-01
          2   -1    0    0  501    0  0.00000000000E+00  0.00000000000E+00  0.10875994921E+04  0.10875994921E+04  0.00000000000E+00 0. -1.
         -2   -1    0    0    0  501 -0.00000000000E+00 -0.00000000000E+00 -0.13966494004E+04  0.13966494004E+04  0.00000000000E+00 0.  1.
         23    2    1    2    0    0  0.43702816898E+03  0.81449795647E+03 -0.97381781144E+03  0.13456897563E+04  0.90328560318E+02 0.  0.
         11    1    3    3    0    0  0.36198387872E+03  0.73566894329E+03 -0.85950798835E+03  0.11878531494E+04  0.00000000000E+00 0. -1.
        -11    1    3    3    0    0  0.75044290260E+02  0.78829013187E+02 -0.11430982309E+03  0.15783660689E+03  0.00000000000E+00 0.  1.
         22    1    1    2    0    0 -0.43702816898E+03 -0.81449795647E+03  0.66476790313E+03  0.11385591362E+04  0.00000000000E+00 0. -1.
<mgrwt>
<rscale>  0 0.24649504E+04</rscale>
<asrwt>0</asrwt>
<pdfrwt beam="1">  1        2 0.16732300E+00 0.24649504E+04</pdfrwt>
<pdfrwt beam="2">  1       -2 0.21486914E+00 0.24649504E+04</pdfrwt>
<totfact> 0.21132032E+00</totfact>
</mgrwt>
</event>
<event>
 6    1  0.5196787E-004  0.2270621E+04  0.7818608E-02  0.8489596E-01
         -2   -1    0    0    0  501 -0.00000000000E+00  0.00000000000E+00  0.58909142208E+03  0.58909142208E+03  0.00000000000E+00 0. -1.
          2   -1    0    0  501    0  0.00000000000E+00 -0.00000000000E+00 -0.21879970546E+04  0.21879970546E+04  0.00000000000E+00 0.  1.
         23    2    1    2    0    0 -0.31876430295E+03  0.74323810064E+03  0.17063362422E+03  0.83150816833E+03  0.90974970162E+02 0.  0.
         13    1    3    3    0    0 -0.15675399485E+03  0.45527380481E+03  0.12900514793E+03  0.49848608851E+03  0.00000000000E+00 0.  1.
        -13    1    3    3    0    0 -0.16201030810E+03  0.28796429583E+03  0.41628476288E+02  0.33302207982E+03  0.00000000000E+00 0. -1.
         22    1    1    2    0    0  0.31876430295E+03 -0.74323810064E+03 -0.17695392567E+04  0.19455803083E+04  0.00000000000E+00 0.  1.
<mgrwt>
<rscale>  0 0.22706213E+04</rscale>
<asrwt>0</asrwt>
<pdfrwt beam="1">  1        2 0.33661493E+00 0.22706213E+04</pdfrwt>
<pdfrwt beam="2">  1       -2 0.90629449E-01 0.22706213E+04</pdfrwt>
<totfact> 0.49560041E+00</totfact>
</mgrwt>
</event>
<event>
 6    1  0.5196787E-004  0.3750057E+04  0.7818608E-02  0.8056958E-01
          2   -1    0    0  501    0  0.00000000000E+00  0.00000000000E+00  0.22365041093E+04  0.22365041093E+04  0.00000000000E+00 0.  1.
         -2   -1    0    0    0  501 -0.00000000000E+00 -0.00000000000E+00 -0.15719764969E+04  0.15719764969E+04  0.00000000000E+00 0. -1.
         23    2    1    2    0    0 -0.28963763660E+03  0.91610301402E+03 -0.13016513525E+04  0.16201034872E+04  0.85465623759E+02 0.  0.
         11    1    3    3    0    0 -0.23506180913E+03  0.69229995148E+03 -0.10431863680E+04  0.12738803222E+04  0.00000000000E+00 0.  1.
        -11    1    3    3    0    0 -0.54575827478E+02  0.22380306254E+03 -0.25846498457E+03  0.34622316502E+03  0.00000000000E+00 0. -1.
         22    1    1    2    0    0  0.28963763660E+03 -0.91610301402E+03  0.19661789649E+04  0.21883771190E+04  0.00000000000E+00 0.  1.
<mgrwt>
<rscale>  0 0.37500570E+04</rscale>
<asrwt>0</asrwt>
<pdfrwt beam="1">  1        2 0.34407756E+00 0.37500570E+04</pdfrwt>
<pdfrwt beam="2">  1       -2 0.24184254E+00 0.37500570E+04</pdfrwt>
<totfact> 0.28610947E-01</totfact>
</mgrwt>
</event>
<event>
 6    1  0.5196787E-004  0.4749537E+04  0.7818608E-02  0.7868349E-01
         -2   -1    0    0    0  501 -0.00000000000E+00  0.00000000000E+00  0.15352943976E+04  0.15352943976E+04  0.00000000000E+00 0. -1.
          2   -1    0    0  501    0  0.00000000000E+00 -0.00000000000E+00 -0.36732531201E+04  0.36732531201E+04  0.00000000000E+00 0.  1.
         23    2    1    2    0    0 -0.19158478503E+04 -0.13744590113E+04 -0.76830335652E+03  0.24817240212E+04  0.95149937821E+02 0.  0.
         13    1    3    3    0    0 -0.10689412477E+04 -0.73817414680E+03 -0.37984500434E+03  0.13534469659E+04  0.00000000000E+00 0. -1.
        -13    1    3    3    0    0 -0.84690660253E+03 -0.63628486454E+03 -0.38845835218E+03  0.11282770554E+04  0.00000000000E+00 0.  1.
         22    1    1    2    0    0  0.19158478503E+04  0.13744590113E+04 -0.13696553660E+04  0.27268234965E+04  0.00000000000E+00 0.  1.
<mgrwt>
<rscale>  0 0.47495368E+04</rscale>
<asrwt>0</asrwt>
<pdfrwt beam="1">  1        2 0.56511587E+00 0.47495368E+04</pdfrwt>
<pdfrwt beam="2">  1       -2 0.23619914E+00 0.47495368E+04</pdfrwt>
<totfact> 0.35380674E-02</totfact>
</mgrwt>
</event>
<event>
 6    1  0.5196787E-004  0.5301648E+04  0.7818608E-02  0.7783588E-01
          2   -1    0    0  501    0  0.00000000000E+00  0.00000000000E+00  0.24502587475E+04  0.24502587475E+04  0.00000000000E+00 0.  1.
         -2   -1    0    0    0  501 -0.00000000000E+00 -0.00000000000E+00 -0.28678061200E+04  0.28678061200E+04  0.00000000000E+00 0. -1.
         23    2    1    2    0    0  0.17890264749E+04 -0.16117300647E+04 -0.13188070657E+04  0.27469642153E+04  0.90943907590E+02 0.  0.
         11    1    3    3    0    0  0.12995952242E+04 -0.11153776528E+04 -0.93965272103E+03  0.19534488198E+04  0.00000000000E+00 0. -1.
        -11    1    3    3    0    0  0.48943125062E+03 -0.49635241186E+03 -0.37915434467E+03  0.79351539552E+03  0.00000000000E+00 0.  1.
         22    1    1    2    0    0 -0.17890264749E+04  0.16117300647E+04  0.90125969323E+03  0.25711006522E+04  0.00000000000E+00 0.  1.
<mgrwt>
<rscale>  0 0.53016477E+04</rscale>
<asrwt>0</asrwt>
<pdfrwt beam="1">  1        2 0.37696288E+00 0.53016477E+04</pdfrwt>
<pdfrwt beam="2">  1       -2 0.44120094E+00 0.53016477E+04</pdfrwt>
<totfact> 0.10524251E-02</totfact>
</mgrwt>
</event>
<event>
 6    1  0.5196787E-004  0.2394611E+04  0.7818608E-02  0.8441524E-01
         -2   -1    0    0    0  501 -0.00000000000E+00  0.00000000000E+00  0.10067218126E+04  0.10067218126E+04  0.00000000000E+00 0. -1.
          2   -1    0    0  501    0  0.00000000000E+00 -0.00000000000E+00 -0.14239689983E+04  0.14239689983E+04  0.00000000000E+00 0.  1.
         23    2    1    2    0    0  0.89872405202E+03 -0.26035525390E+03  0.54718358795E+03  0.10869585099E+04  0.81111918484E+02 0.  0.
         13    1    3    3    0    0  0.48006546702E+03 -0.17738863096E+03  0.27908085123E+03  0.58293713259E+03  0.00000000000E+00 0. -1.
        -13    1    3    3    0    0  0.41865858500E+03 -0.82966622942E+02  0.26810273672E+03  0.50402137727E+03  0.00000000000E+00 0.  1.
         22    1    1    2    0    0 -0.89872405202E+03  0.26035525390E+03 -0.96443077365E+03  0.13437323011E+04  0.00000000000E+00 0.  1.
<mgrwt>
<rscale>  0 0.23946112E+04</rscale>
<asrwt>0</asrwt>
<pdfrwt beam="1">  1        2 0.21907215E+00 0.23946112E+04</pdfrwt>
<pdfrwt beam="2">  1       -2 0.15488028E+00 0.23946112E+04</pdfrwt>
<totfact> 0.34704727E+00</totfact>
</mgrwt>
</event>
<event>
 6    1  0.5196787E-004  0.2771139E+04  0.7818608E-02  0.8312285E-01
          2   -1    0    0  501    0  0.00000000000E+00  0.00000000000E+00  0.98549702317E+03  0.98549702317E+03  0.00000000000E+00 0.  1.
         -2   -1    0    0    0  501 -0.00000000000E+00 -0.00000000000E+00 -0.19480556711E+04  0.19480556711E+04  0.00000000000E+00 0. -1.
         23    2    1    2    0    0 -0.13571786027E+04 -0.25888181814E+03 -0.56815695828E+03  0.14967137164E+04  0.91630039418E+02 0.  0.
         13    1    3    3    0    0 -0.67317501931E+03 -0.87217052096E+02 -0.30187280415E+03  0.74289878899E+03  0.00000000000E+00 0. -1.
        -13    1    3    3    0    0 -0.68400358343E+03 -0.17166476604E+03 -0.26628415413E+03  0.75381492741E+03  0.00000000000E+00 0.  1.
         22    1    1    2    0    0  0.13571786027E+04  0.25888181814E+03 -0.39440168962E+03  0.14368389778E+04  0.00000000000E+00 0. -1.
<mgrwt>
<rscale>  0 0.27711392E+04</rscale>
<asrwt>0</asrwt>
<pdfrwt beam="1">  1        2 0.15161493E+00 0.27711392E+04</pdfrwt>
<pdfrwt beam="2">  1       -2 0.29970087E+00 0.27711392E+04</pdfrwt>
<totfact> 0.71651233E-01</totfact>
</mgrwt>
</event>
<event>
 6    1  0.5196787E-004  0.3056089E+04  0.7818608E-02  0.8227893E-01
         -2   -1    0    0    0  501 -0.00000000000E+00  0.00000000000E+00  0.19519175975E+04  0.19519175975E+04  0.00000000000E+00 0. -1.
          2   -1    0    0  501    0  0.00000000000E+00 -0.00000000000E+00 -0.11962184235E+04  0.11962184235E+04  0.00000000000E+00 0.  1.
         23    2    1    2    0    0 -0.69109618823E+02 -0.14363296294E+04  0.90646383147E+03  0.17022629541E+04  0.90573414442E+02 0.  0.
         11    1    3    3    0    0 -0.25760224618E+02 -0.62591269988E+03  0.44792078886E+03  0.77010605122E+03  0.00000000000E+00 0.  1.
        -11    1    3    3    0    0 -0.43349394205E+02 -0.81041692955E+03  0.45854304261E+03  0.93215690289E+03  0.00000000000E+00 0. -1.
         22    1    1    2    0    0  0.69109618823E+02  0.14363296294E+04 -0.15076465749E+03  0.14458730670E+04  0.00000000000E+00 0.  1.
<mgrwt>
<rscale>  0 0.30560889E+04</rscale>
<asrwt>0</asrwt>
<pdfrwt beam="1">  1        2 0.18403360E+00 0.30560889E+04</pdfrwt>
<pdfrwt beam="2">  1       -2 0.30029502E+00 0.30560889E+04</pdfrwt>
<totfact> 0.51346124E-01</totfact>
</mgrwt>
</event>
<event>
 6    1  0.5196787E-004  0.1917294E+04  0.7818608E-02  0.8646296E-01
         -2   -1    0    0    0  501 -0.00000000000E+00  0.00000000000E+00  0.88396972361E+03  0.88396972361E+03  0.00000000000E+00 0. -1.
          2   -1    0    0  501    0  0.00000000000E+00 -0.00000000000E+00 -0.10396332367E+04  0.10396332367E+04  0.00000000000E+00 0.  1.
         23    2    1    2    0    0  0.23274417854E+03  0.53121280946E+03 -0.84114904328E+03  0.10256902063E+04  0.90287234807E+02 0.  0.
         13    1    3    3    0    0  0.16887819394E+03  0.44304520111E+03 -0.63411681686E+03  0.79177839832E+03  0.00000000000E+00 0. -1.
        -13    1    3    3    0    0  0.63865984601E+02  0.88167608345E+02 -0.20703222642E+03  0.23391180801E+03  0.00000000000E+00 0.  1.
         22    1    1    2    0    0 -0.23274417854E+03 -0.53121280946E+03  0.68548553022E+03  0.89791275396E+03  0.00000000000E+00 0. -1.
<mgrwt>
<rscale>  0 0.19172942E+04</rscale>
<asrwt>0</asrwt>
<pdfrwt beam="1">  1        2 0.15994357E+00 0.19172942E+04</pdfrwt>
<pdfrwt beam="2">  1       -2 0.13599534E+00 0.19172942E+04</pdfrwt>
<totfact> 0.86049454E+00</totfact>
</mgrwt>
</event>
<event>
 6    1  0.5196787E-004  0.1705411E+04  0.7818608E-02  0.8758284E-01
         -2   -1    0    0    0  501 -0.00000000000E+00  0.00000000000E+00  0.50643404136E+03  0.50643404136E+03  0.00000000000E+00 0. -1.
          2   -1    0    0  501    0  0.00000000000E+00 -0.00000000000E+00 -0.14357387078E+04  0.14357387078E+04  0.00000000000E+00 0.  1.
         23    2    1    2    0    0 -0.54844014436E+03 -0.53120964610E+02  0.27097646312E+03  0.62145960134E+03  0.95788118831E+02 0.  0.
         11    1    3    3    0    0 -0.39064731415E+03 -0.13869540468E+02  0.14956070366E+03  0.41852848444E+03  0.00000000000E+00 0. -1.
        -11    1    3    3    0    0 -0.15779283021E+03 -0.39251424142E+02  0.12141575947E+03  0.20293111691E+03  0.00000000000E+00 0.  1.
         22    1    1    2    0    0  0.54844014436E+03  0.53120964610E+02 -0.12002811295E+04  0.13207131478E+04  0.00000000000E+00 0.  1.
<mgrwt>
<rscale>  0 0.17054113E+04</rscale>
<asrwt>0</asrwt>
<pdfrwt beam="1">  1        2 0.22088288E+00 0.17054113E+04</pdfrwt>
<pdfrwt beam="2">  1       -2 0.77912930E-01 0.17054113E+04</pdfrwt>
<totfact> 0.19261187E+01</totfact>
</mgrwt>
</event>
<event>
 6    1  0.5196787E-004  0.2233285E+04  0.7818608E-02  0.8504701E-01
         -2   -1    0    0    0  501 -0.00000000000E+00  0.00000000000E+00  0.68359804510E+03  0.68359804510E+03  0.00000000000E+00 0. -1.
          2   -1    0    0  501    0  0.00000000000E+00 -0.00000000000E+00 -0.18240110623E+04  0.18240110623E+04  0.00000000000E+00 0.  1.
         23    2    1    2    0    0  0.16902518503E+03 -0.78900439338E+03 -0.14347807623E+04  0.16486854697E+04  0.92035299451E+02 0.  0.
         13    1    3    3    0    0  0.56106877980E+02 -0.38237204917E+03 -0.60811398496E+03  0.72052687976E+03  0.00000000000E+00 0. -1.
        -13    1    3    3    0    0  0.11291830705E+03 -0.40663234421E+03 -0.82666677732E+03  0.92815858998E+03  0.00000000000E+00 0.  1.
         22    1    1    2    0    0 -0.16902518503E+03  0.78900439338E+03  0.29436774510E+03  0.85892363765E+03  0.00000000000E+00 0. -1.
<mgrwt>
<rscale>  0 0.22332849E+04</rscale>
<asrwt>0</asrwt>
<pdfrwt beam="1">  1        2 0.28061708E+00 0.22332849E+04</pdfrwt>
<pdfrwt beam="2">  1       -2 0.10516893E+00 0.22332849E+04</pdfrwt>
<totfact> 0.55855671E+00</totfact>
</mgrwt>
</event>
<event>
 6    1  0.5196787E-004  0.1925439E+04  0.7818608E-02  0.8642297E-01
         -2   -1    0    0    0  501 -0.00000000000E+00  0.00000000000E+00  0.50394513267E+03  0.50394513267E+03  0.00000000000E+00 0. -1.
          2   -1    0    0  501    0  0.00000000000E+00 -0.00000000000E+00 -0.18391454226E+04  0.18391454226E+04  0.00000000000E+00 0.  1.
         23    2    1    2    0    0  0.21671220222E+03 -0.93032533376E+03 -0.54626291614E+03  0.11041831394E+04  0.91366441496E+02 0.  0.
         13    1    3    3    0    0  0.17553528592E+03 -0.69146440109E+03 -0.36383963131E+03  0.80082141073E+03  0.00000000000E+00 0. -1.
        -13    1    3    3    0    0  0.41176916308E+02 -0.23886093267E+03 -0.18242328483E+03  0.30336172870E+03  0.00000000000E+00 0.  1.
         22    1    1    2    0    0 -0.21671220222E+03  0.93032533376E+03 -0.78893737376E+03  0.12389074158E+04  0.00000000000E+00 0.  1.
<mgrwt>
<rscale>  0 0.19254385E+04</rscale>
<asrwt>0</asrwt>
<pdfrwt beam="1">  1        2 0.28294545E+00 0.19254385E+04</pdfrwt>
<pdfrwt beam="2">  1       -2 0.77530020E-01 0.19254385E+04</pdfrwt>
<totfact> 0.11375990E+01</totfact>
</mgrwt>
</event>
<event>
 6    1  0.5196787E-004  0.3131925E+04  0.7818608E-02  0.8207031E-01
         -2   -1    0    0    0  501 -0.00000000000E+00  0.00000000000E+00  0.18349016506E+04  0.18349016506E+04  0.00000000000E+00 0. -1.
          2   -1    0    0  501    0  0.00000000000E+00 -0.00000000000E+00 -0.13364413436E+04  0.13364413436E+04  0.00000000000E+00 0.  1.
         23    2    1    2    0    0 -0.40344684714E+03  0.97237240145E+03  0.14214595697E+04  0.17712697517E+04  0.92583904703E+02 0.  0.
         13    1    3    3    0    0 -0.31807222997E+03  0.84934549640E+03  0.12108660793E+04  0.15128629739E+04  0.00000000000E+00 0. -1.
        -13    1    3    3    0    0 -0.85374617168E+02  0.12302690505E+03  0.21059349038E+03  0.25840677780E+03  0.00000000000E+00 0.  1.
         22    1    1    2    0    0  0.40344684714E+03 -0.97237240145E+03 -0.92299926273E+03  0.14000732426E+04  0.00000000000E+00 0.  1.
<mgrwt>
<rscale>  0 0.31319249E+04</rscale>
<asrwt>0</asrwt>
<pdfrwt beam="1">  1        2 0.20560636E+00 0.31319249E+04</pdfrwt>
<pdfrwt beam="2">  1       -2 0.28229256E+00 0.31319249E+04</pdfrwt>
<totfact> 0.54361734E-01</totfact>
</mgrwt>
</event>
<event>
 6    1  0.5196787E-004  0.1830192E+04  0.7818608E-02  0.8690406E-01
          1   -1    0    0  501    0  0.00000000000E+00  0.00000000000E+00  0.17420081912E+04  0.17420081912E+04  0.00000000000E+00 0.  1.
         -1   -1    0    0    0  501 -0.00000000000E+00 -0.00000000000E+00 -0.48071017942E+03  0.48071017942E+03  0.00000000000E+00 0. -1.
         23    2    1    2    0    0 -0.38624736962E+03  0.42685287362E+03 -0.22828106828E+03  0.62577245982E+03  0.89936194455E+02 0.  0.
         11    1    3    3    0    0 -0.25797700102E+03  0.27636366507E+03 -0.10355934693E+03  0.39198666656E+03  0.00000000000E+00 0. -1.
        -11    1    3    3    0    0 -0.12827036861E+03  0.15048920855E+03 -0.12472172135E+03  0.23378579326E+03  0.00000000000E+00 0.  1.
         22    1    1    2    0    0  0.38624736962E+03 -0.42685287362E+03  0.14895790801E+04  0.15969459108E+04  0.00000000000E+00 0.  1.
<mgrwt>
<rscale>  0 0.18301924E+04</rscale>
<asrwt>0</asrwt>
<pdfrwt beam="1">  1        1 0.26800126E+00 0.18301924E+04</pdfrwt>
<pdfrwt beam="2">  1       -1 0.73955413E-01 0.18301924E+04</pdfrwt>
<totfact> 0.77307529E+00</totfact>
</mgrwt>
</event>
<event>
 6    1  0.5196787E-004  0.1482953E+04  0.7818608E-02  0.8895869E-01
         -2   -1    0    0    0  501 -0.00000000000E+00  0.00000000000E+00  0.63500906666E+03  0.63500906666E+03  0.00000000000E+00 0. -1.
          2   -1    0    0  501    0  0.00000000000E+00 -0.00000000000E+00 -0.86579440551E+03  0.86579440551E+03  0.00000000000E+00 0.  1.
         23    2    1    2    0    0 -0.92285593363E+02  0.16687505581E+03 -0.83753877908E+03  0.86478959480E+03  0.10012952519E+03 0.  0.
         13    1    3    3    0    0 -0.66479868841E+02  0.11926372450E+03 -0.37487231016E+03  0.39896448196E+03  0.00000000000E+00 0. -1.
        -13    1    3    3    0    0 -0.25805724522E+02  0.47611331314E+02 -0.46266646892E+03  0.46582511284E+03  0.00000000000E+00 0.  1.
         22    1    1    2    0    0  0.92285593363E+02 -0.16687505581E+03  0.60675344023E+03  0.63601387738E+03  0.00000000000E+00 0. -1.
<mgrwt>
<rscale>  0 0.14829529E+04</rscale>
<asrwt>0</asrwt>
<pdfrwt beam="1">  1        2 0.13319914E+00 0.14829529E+04</pdfrwt>
<pdfrwt beam="2">  1       -2 0.97693703E-01 0.14829529E+04</pdfrwt>
<totfact> 0.26136294E+01</totfact>
</mgrwt>
</event>
<event>
 6    1  0.5196787E-004  0.9259908E+03  0.7818608E-02  0.9393662E-01
         -2   -1    0    0    0  501 -0.00000000000E+00  0.00000000000E+00  0.14360054341E+03  0.14360054341E+03  0.00000000000E+00 0. -1.
          2   -1    0    0  501    0  0.00000000000E+00 -0.00000000000E+00 -0.14927851741E+04  0.14927851741E+04  0.00000000000E+00 0.  1.
         23    2    1    2    0    0  0.40869068587E+03 -0.11756337688E+03 -0.98424295252E+03  0.10760004458E+04  0.90518205278E+02 0.  0.
         13    1    3    3    0    0  0.16715364523E+03 -0.59148043353E+01 -0.33803299415E+03  0.37714934861E+03  0.00000000000E+00 0.  1.
        -13    1    3    3    0    0  0.24153704064E+03 -0.11164857254E+03 -0.64620995837E+03  0.69885109719E+03  0.00000000000E+00 0. -1.
         22    1    1    2    0    0 -0.40869068587E+03  0.11756337688E+03 -0.36494167821E+03  0.56038527175E+03  0.00000000000E+00 0.  1.
<mgrwt>
<rscale>  0 0.92599085E+03</rscale>
<asrwt>0</asrwt>
<pdfrwt beam="1">  1        2 0.22965926E+00 0.92599085E+03</pdfrwt>
<pdfrwt beam="2">  1       -2 0.22092391E-01 0.92599085E+03</pdfrwt>
<totfact> 0.22992679E+02</totfact>
</mgrwt>
</event>
<event>
 6    1  0.5196787E-004  0.1907762E+04  0.7818608E-02  0.8651002E-01
          2   -1    0    0  501    0  0.00000000000E+00  0.00000000000E+00  0.15371778343E+04  0.15371778343E+04  0.00000000000E+00 0.  1.
         -2   -1    0    0    0  501 -0.00000000000E+00 -0.00000000000E+00 -0.59192187008E+03  0.59192187008E+03  0.00000000000E+00 0. -1.
         23    2    1    2    0    0 -0.69043850015E+03  0.24153468379E+03  0.11531715539E+04  0.13686569265E+04  0.91503135527E+02 0.  0.
         11    1    3    3    0    0 -0.19035308064E+03  0.25857200983E+02  0.32215088078E+03  0.37507876525E+03  0.00000000000E+00 0. -1.
        -11    1    3    3    0    0 -0.50008541951E+03  0.21567748281E+03  0.83102067314E+03  0.99357816128E+03  0.00000000000E+00 0.  1.
         22    1    1    2    0    0  0.69043850015E+03 -0.24153468379E+03 -0.20791558969E+03  0.76044277786E+03  0.00000000000E+00 0. -1.
<mgrwt>
<rscale>  0 0.19077622E+04</rscale>
<asrwt>0</asrwt>
<pdfrwt beam="1">  1        2 0.23648890E+00 0.19077622E+04</pdfrwt>
<pdfrwt beam="2">  1       -2 0.91064904E-01 0.19077622E+04</pdfrwt>
<totfact> 0.11643654E+01</totfact>
</mgrwt>
</event>
<event>
 6    1  0.5196787E-004  0.1746956E+04  0.7818608E-02  0.8735028E-01
         -2   -1    0    0    0  501 -0.00000000000E+00  0.00000000000E+00  0.71672542150E+03  0.71672542150E+03  0.00000000000E+00 0. -1.
          2   -1    0    0  501    0  0.00000000000E+00 -0.00000000000E+00 -0.10645131510E+04  0.10645131510E+04  0.00000000000E+00 0.  1.
         23    2    1    2    0    0 -0.28633525913E+03  0.53570990414E+03  0.46265191078E+03  0.76842793247E+03  0.86381218125E+02 0.  0.
         13    1    3    3    0    0 -0.30162072917E+02  0.45834985583E+02  0.14425700206E+02  0.56733564779E+02  0.00000000000E+00 0. -1.
        -13    1    3    3    0    0 -0.25617318621E+03  0.48987491856E+03  0.44822621057E+03  0.71169436769E+03  0.00000000000E+00 0.  1.
         22    1    1    2    0    0  0.28633525913E+03 -0.53570990414E+03 -0.81043964028E+03  0.10128106400E+04  0.00000000000E+00 0.  1.
<mgrwt>
<rscale>  0 0.17469558E+04</rscale>
<asrwt>0</asrwt>
<pdfrwt beam="1">  1        2 0.16377125E+00 0.17469558E+04</pdfrwt>
<pdfrwt beam="2">  1       -2 0.11026545E+00 0.17469558E+04</pdfrwt>
<totfact> 0.14196804E+01</totfact>
</mgrwt>
</event>
<event>
 6    1  0.5196787E-004  0.3658561E+04  0.7818608E-02  0.8077208E-01
         -2   -1    0    0    0  501 -0.00000000000E+00  0.00000000000E+00  0.21365657211E+04  0.21365657211E+04  0.00000000000E+00 0. -1.
          2   -1    0    0  501    0  0.00000000000E+00 -0.00000000000E+00 -0.15661900548E+04  0.15661900548E+04  0.00000000000E+00 0.  1.
         23    2    1    2    0    0  0.56550250481E+03  0.24197714396E+03  0.20276906923E+04  0.21209488642E+04  0.92458203630E+02 0.  0.
         11    1    3    3    0    0  0.31933682712E+03  0.92630269175E+02  0.10109406334E+04  0.10642167731E+04  0.00000000000E+00 0.  1.
        -11    1    3    3    0    0  0.24616567769E+03  0.14934687478E+03  0.10167500589E+04  0.10567320910E+04  0.00000000000E+00 0. -1.
         22    1    1    2    0    0 -0.56550250481E+03 -0.24197714396E+03 -0.14573150260E+04  0.15818069118E+04  0.00000000000E+00 0.  1.
<mgrwt>
<rscale>  0 0.36585615E+04</rscale>
<asrwt>0</asrwt>
<pdfrwt beam="1">  1        2 0.24095231E+00 0.36585615E+04</pdfrwt>
<pdfrwt beam="2">  1       -2 0.32870242E+00 0.36585615E+04</pdfrwt>
<totfact> 0.19978672E-01</totfact>
</mgrwt>
</event>
<event>
 6    1  0.5196787E-004  0.1630315E+04  0.7818608E-02  0.8802138E-01
          2   -1    0    0  501    0  0.00000000000E+00  0.00000000000E+00  0.54359708428E+03  0.54359708428E+03  0.00000000000E+00 0.  1.
         -2   -1    0    0    0  501 -0.00000000000E+00 -0.00000000000E+00 -0.12223792920E+04  0.12223792920E+04  0.00000000000E+00 0. -1.
         23    2    1    2    0    0 -0.30680419828E+03  0.32630608152E+02  0.47361827193E+03  0.57298834694E+03  0.93849909717E+02 0.  0.
         11    1    3    3    0    0 -0.21079373529E+03 -0.17752101945E+02  0.27802720078E+03  0.34935406157E+03  0.00000000000E+00 0. -1.
        -11    1    3    3    0    0 -0.96010462987E+02  0.50382710098E+02  0.19559107115E+03  0.22363428537E+03  0.00000000000E+00 0.  1.
         22    1    1    2    0    0  0.30680419828E+03 -0.32630608152E+02 -0.11524004797E+04  0.11929880294E+04  0.00000000000E+00 0. -1.
<mgrwt>
<rscale>  0 0.16303151E+04</rscale>
<asrwt>0</asrwt>
<pdfrwt beam="1">  1        2 0.83630322E-01 0.16303151E+04</pdfrwt>
<pdfrwt beam="2">  1       -2 0.18805835E+00 0.16303151E+04</pdfrwt>
<totfact> 0.85222308E+00</totfact>
</mgrwt>
</event>
<event>
 6    1  0.5196787E-004  0.1761803E+04  0.7818608E-02  0.8726880E-01
         -2   -1    0    0    0  501 -0.00000000000E+00  0.00000000000E+00  0.65630616266E+03  0.65630616266E+03  0.00000000000E+00 0. -1.
          2   -1    0    0  501    0  0.00000000000E+00 -0.00000000000E+00 -0.11823561311E+04  0.11823561311E+04  0.00000000000E+00 0.  1.
         23    2    1    2    0    0  0.75663915786E+03 -0.22270915902E+02 -0.72907252345E+03  0.10549423394E+04  0.91420928428E+02 0.  0.
         11    1    3    3    0    0  0.44913095227E+03 -0.55927379278E+02 -0.45216870913E+03  0.63976794665E+03  0.00000000000E+00 0. -1.
        -11    1    3    3    0    0  0.30750820559E+03  0.33656463376E+02 -0.27690381432E+03  0.41517439278E+03  0.00000000000E+00 0.  1.
         22    1    1    2    0    0 -0.75663915786E+03  0.22270915902E+02  0.20302255506E+03  0.78371995430E+03  0.00000000000E+00 0. -1.
<mgrwt>
<rscale>  0 0.17618032E+04</rscale>
<asrwt>0</asrwt>
<pdfrwt beam="1">  1        2 0.18190094E+00 0.17618032E+04</pdfrwt>
<pdfrwt beam="2">  1       -2 0.10097018E+00 0.17618032E+04</pdfrwt>
<totfact> 0.14838586E+01</totfact>
</mgrwt>
</event>
<event>
 6    1  0.5196787E-004  0.2002571E+04  0.7818608E-02  0.8605420E-01
          2   -1    0    0  501    0  0.00000000000E+00  0.00000000000E+00  0.17019299811E+04  0.17019299811E+04  0.00000000000E+00 0.  1.
         -2   -1    0    0    0  501 -0.00000000000E+00 -0.00000000000E+00 -0.58907956312E+03  0.58907956312E+03  0.00000000000E+00 0. -1.
         23    2    1    2    0    0 -0.24407939916E+03  0.95620525376E+03  0.73234603927E+03  0.12333296197E+04  0.10424964876E+03 0.  0.
         13    1    3    3    0    0 -0.15642473337E+03  0.40566339529E+03  0.31209831006E+03  0.53519794715E+03  0.00000000000E+00 0. -1.
        -13    1    3    3    0    0 -0.87654665791E+02  0.55054185846E+03  0.42024772921E+03  0.69813167259E+03  0.00000000000E+00 0.  1.
         22    1    1    2    0    0  0.24407939916E+03 -0.95620525376E+03  0.38050437870E+03  0.10576799245E+04  0.00000000000E+00 0.  1.
<mgrwt>
<rscale>  0 0.20025705E+04</rscale>
<asrwt>0</asrwt>
<pdfrwt beam="1">  1        2 0.26183538E+00 0.20025705E+04</pdfrwt>
<pdfrwt beam="2">  1       -2 0.90627626E-01 0.20025705E+04</pdfrwt>
<totfact> 0.94499655E+00</totfact>
</mgrwt>
</event>
<event>
 6    1  0.5196787E-004  0.3675120E+04  0.7818608E-02  0.8073498E-01
          1   -1    0    0  501    0  0.00000000000E+00  0.00000000000E+00  0.35441140346E+04  0.35441140346E+04  0.00000000000E+00 0. -1.
         -1   -1    0    0    0  501 -0.00000000000E+00 -0.00000000000E+00 -0.95274192025E+03  0.95274192025E+03  0.00000000000E+00 0.  1.
         23    2    1    2    0    0 -0.50599253179E+03  0.49513830306E+03  0.33698827865E+04  0.34445873351E+04  0.88777997291E+02 0.  0.
         11    1    3    3    0    0 -0.22853349803E+03  0.18694675115E+03  0.12351665914E+04  0.12699658089E+04  0.00000000000E+00 0. -1.
        -11    1    3    3    0    0 -0.27745903377E+03  0.30819155190E+03  0.21347161952E+04  0.21746215262E+04  0.00000000000E+00 0.  1.
         22    1    1    2    0    0  0.50599253179E+03 -0.49513830306E+03 -0.77851067219E+03  0.10522686197E+04  0.00000000000E+00 0.  1.
<mgrwt>
<rscale>  0 0.36751196E+04</rscale>
<asrwt>0</asrwt>
<pdfrwt beam="1">  1        1 0.54524830E+00 0.36751196E+04</pdfrwt>
<pdfrwt beam="2">  1       -1 0.14657568E+00 0.36751196E+04</pdfrwt>
<totfact> 0.68701911E-02</totfact>
</mgrwt>
</event>
<event>
 6    1  0.5196787E-004  0.2575567E+04  0.7818608E-02  0.8376548E-01
         -2   -1    0    0    0  501 -0.00000000000E+00  0.00000000000E+00  0.12467602925E+04  0.12467602925E+04  0.00000000000E+00 0. -1.
          2   -1    0    0  501    0  0.00000000000E+00 -0.00000000000E+00 -0.13301566167E+04  0.13301566167E+04  0.00000000000E+00 0.  1.
         23    2    1    2    0    0 -0.77601669048E+03 -0.13671329707E+03 -0.10578301736E+04  0.13237554046E+04  0.11149558476E+03 0.  0.
         13    1    3    3    0    0 -0.46521162795E+02 -0.28349873330E+02 -0.11047300579E+03  0.12317556135E+03  0.00000000000E+00 0. -1.
        -13    1    3    3    0    0 -0.72949552769E+03 -0.10836342374E+03 -0.94735716784E+03  0.12005798432E+04  0.00000000000E+00 0.  1.
         22    1    1    2    0    0  0.77601669048E+03  0.13671329707E+03  0.97443384949E+03  0.12531615046E+04  0.00000000000E+00 0. -1.
<mgrwt>
<rscale>  0 0.25755671E+04</rscale>
<asrwt>0</asrwt>
<pdfrwt beam="1">  1        2 0.20463948E+00 0.25755671E+04</pdfrwt>
<pdfrwt beam="2">  1       -2 0.19180928E+00 0.25755671E+04</pdfrwt>
<totfact> 0.21212814E+00</totfact>
</mgrwt>
</event>
<event>
 6    1  0.5196787E-004  0.1165533E+04  0.7818608E-02  0.9143572E-01
          4   -1    0    0  501    0  0.00000000000E+00  0.00000000000E+00  0.95454035436E+03  0.95454035436E+03  0.00000000000E+00 0.  1.
         -4   -1    0    0    0  501 -0.00000000000E+00 -0.00000000000E+00 -0.35579106770E+03  0.35579106770E+03  0.00000000000E+00 0. -1.
         23    2    1    2    0    0  0.12912539192E+03 -0.36847003258E+02  0.93460911231E+03  0.94862312663E+03  0.91436180338E+02 0.  0.
         13    1    3    3    0    0  0.70294616980E+02  0.80360207001E+01  0.24370400932E+03  0.25376673336E+03  0.00000000000E+00 0.  1.
        -13    1    3    3    0    0  0.58830774944E+02 -0.44883023958E+02  0.69090510299E+03  0.69485639327E+03  0.00000000000E+00 0. -1.
         22    1    1    2    0    0 -0.12912539192E+03  0.36847003258E+02 -0.33585982565E+03  0.36170829542E+03  0.00000000000E+00 0. -1.
<mgrwt>
<rscale>  0 0.11655332E+04</rscale>
<asrwt>0</asrwt>
<pdfrwt beam="1">  1        4 0.14685236E+00 0.11655332E+04</pdfrwt>
<pdfrwt beam="2">  1       -4 0.54737088E-01 0.11655332E+04</pdfrwt>
<totfact> 0.19818173E+00</totfact>
</mgrwt>
</event>
<event>
 6    1  0.5196787E-004  0.3115056E+04  0.7818608E-02  0.8211618E-01
          2   -1    0    0  501    0  0.00000000000E+00  0.00000000000E+00  0.20591410678E+04  0.20591410678E+04  0.00000000000E+00 0.  1.
         -2   -1    0    0    0  501 -0.00000000000E+00 -0.00000000000E+00 -0.11781097127E+04  0.11781097127E+04  0.00000000000E+00 0. -1.
         23    2    1    2    0    0 -0.10428238148E+04  0.78096044995E+03 -0.44361923289E+03  0.13792734089E+04  0.90644247970E+02 0.  0.
         13    1    3    3    0    0 -0.76280407795E+03  0.58636443561E+03 -0.36719119003E+03  0.10298168200E+04  0.00000000000E+00 0.  1.
        -13    1    3    3    0    0 -0.28001973684E+03  0.19459601434E+03 -0.76428042858E+02  0.34945658894E+03  0.00000000000E+00 0. -1.
         22    1    1    2    0    0  0.10428238148E+04 -0.78096044995E+03  0.13246505880E+04  0.18579773716E+04  0.00000000000E+00 0.  1.
<mgrwt>
<rscale>  0 0.31150564E+04</rscale>
<asrwt>0</asrwt>
<pdfrwt beam="1">  1        2 0.31679093E+00 0.31150564E+04</pdfrwt>
<pdfrwt beam="2">  1       -2 0.18124765E+00 0.31150564E+04</pdfrwt>
<totfact> 0.93358634E-01</totfact>
</mgrwt>
</event>
<event>
 6    1  0.5196787E-004  0.1178854E+04  0.7818608E-02  0.9131569E-01
         -2   -1    0    0    0  501 -0.00000000000E+00  0.00000000000E+00  0.36045621205E+03  0.36045621205E+03  0.00000000000E+00 0. -1.
          2   -1    0    0  501    0  0.00000000000E+00 -0.00000000000E+00 -0.96384627399E+03  0.96384627399E+03  0.00000000000E+00 0.  1.
         23    2    1    2    0    0 -0.26807496993E+03  0.51460358644E+03 -0.21107743377E+03  0.62388101370E+03  0.89402435793E+02 0.  0.
         11    1    3    3    0    0 -0.28484525305E+02  0.91025882405E+02 -0.53190561590E+01  0.95526811984E+02  0.00000000000E+00 0. -1.
        -11    1    3    3    0    0 -0.23959044463E+03  0.42357770404E+03 -0.20575837761E+03  0.52835420172E+03  0.00000000000E+00 0.  1.
         22    1    1    2    0    0  0.26807496993E+03 -0.51460358644E+03 -0.39231262818E+03  0.70042147234E+03  0.00000000000E+00 0.  1.
<mgrwt>
<rscale>  0 0.11788543E+04</rscale>
<asrwt>0</asrwt>
<pdfrwt beam="1">  1        2 0.14828404E+00 0.11788543E+04</pdfrwt>
<pdfrwt beam="2">  1       -2 0.55454802E-01 0.11788543E+04</pdfrwt>
<totfact> 0.80287007E+01</totfact>
</mgrwt>
</event>
<event>
 6    1  0.5196787E-004  0.1539676E+04  0.7818608E-02  0.8858489E-01
         -2   -1    0    0    0  501 -0.00000000000E+00  0.00000000000E+00  0.68256071849E+03  0.68256071849E+03  0.00000000000E+00 0. -1.
          2   -1    0    0  501    0  0.00000000000E+00 -0.00000000000E+00 -0.86827533330E+03  0.86827533330E+03  0.00000000000E+00 0.  1.
         23    2    1    2    0    0  0.19019927375E+03  0.50884999150E+03 -0.63870743540E+03  0.84351252391E+03  0.91989740580E+02 0.  0.
         13    1    3    3    0    0  0.39305741187E+02  0.23031659490E+03 -0.25273118068E+03  0.34418559654E+03  0.00000000000E+00 0.  1.
        -13    1    3    3    0    0  0.15089353256E+03  0.27853339661E+03 -0.38597625472E+03  0.49932692737E+03  0.00000000000E+00 0. -1.
         22    1    1    2    0    0 -0.19019927375E+03 -0.50884999150E+03  0.45299282059E+03  0.70732352788E+03  0.00000000000E+00 0.  1.
<mgrwt>
<rscale>  0 0.15396761E+04</rscale>
<asrwt>0</asrwt>
<pdfrwt beam="1">  1        2 0.13358082E+00 0.15396761E+04</pdfrwt>
<pdfrwt beam="2">  1       -2 0.10500934E+00 0.15396761E+04</pdfrwt>
<totfact> 0.21826182E+01</totfact>
</mgrwt>
</event>
<event>
 6    1  0.5196787E-004  0.1248224E+04  0.7818608E-02  0.9071663E-01
         -2   -1    0    0    0  501 -0.00000000000E+00  0.00000000000E+00  0.34041249856E+03  0.34041249856E+03  0.00000000000E+00 0. -1.
          2   -1    0    0  501    0  0.00000000000E+00 -0.00000000000E+00 -0.11442468544E+04  0.11442468544E+04  0.00000000000E+00 0.  1.
         23    2    1    2    0    0 -0.17253764189E+03 -0.48239913238E+03  0.12136318879E+02  0.52118319717E+03  0.94902444560E+02 0.  0.
         11    1    3    3    0    0 -0.14511745456E+03 -0.33269495316E+03  0.44198330586E+02  0.36564805470E+03  0.00000000000E+00 0. -1.
        -11    1    3    3    0    0 -0.27420187331E+02 -0.14970417922E+03 -0.32062011706E+02  0.15553514247E+03  0.00000000000E+00 0.  1.
         22    1    1    2    0    0  0.17253764189E+03  0.48239913238E+03 -0.81597067474E+03  0.96347615582E+03  0.00000000000E+00 0.  1.
<mgrwt>
<rscale>  0 0.12482242E+04</rscale>
<asrwt>0</asrwt>
<pdfrwt beam="1">  1        2 0.17603798E+00 0.12482242E+04</pdfrwt>
<pdfrwt beam="2">  1       -2 0.52371153E-01 0.12482242E+04</pdfrwt>
<totfact> 0.69259840E+01</totfact>
</mgrwt>
</event>
<event>
 6    1  0.5196787E-004  0.3533376E+04  0.7818608E-02  0.8105925E-01
         -2   -1    0    0    0  501 -0.00000000000E+00  0.00000000000E+00  0.24170350511E+04  0.24170350511E+04  0.00000000000E+00 0. -1.
          2   -1    0    0  501    0  0.00000000000E+00 -0.00000000000E+00 -0.12913286319E+04  0.12913286319E+04  0.00000000000E+00 0.  1.
         23    2    1    2    0    0  0.13220866844E+04 -0.88019094578E+03  0.13720507149E+04  0.21010880955E+04  0.96946987920E+02 0.  0.
         11    1    3    3    0    0  0.90231022668E+03 -0.55571595920E+03  0.94859362631E+03  0.14222566014E+04  0.00000000000E+00 0.  1.
        -11    1    3    3    0    0  0.41977645775E+03 -0.32447498657E+03  0.42345708864E+03  0.67883149405E+03  0.00000000000E+00 0. -1.
         22    1    1    2    0    0 -0.13220866844E+04  0.88019094578E+03 -0.24634429570E+03  0.16072755875E+04  0.00000000000E+00 0.  1.
<mgrwt>
<rscale>  0 0.35333760E+04</rscale>
<asrwt>0</asrwt>
<pdfrwt beam="1">  1        2 0.19866594E+00 0.35333760E+04</pdfrwt>
<pdfrwt beam="2">  1       -2 0.37185155E+00 0.35333760E+04</pdfrwt>
<totfact> 0.15474318E-01</totfact>
</mgrwt>
</event>
<event>
 6    1  0.5196787E-004  0.1249357E+04  0.7818608E-02  0.9070719E-01
          2   -1    0    0  501    0  0.00000000000E+00  0.00000000000E+00  0.13808000203E+04  0.13808000203E+04  0.00000000000E+00 0.  1.
         -2   -1    0    0    0  501 -0.00000000000E+00 -0.00000000000E+00 -0.28260645448E+03  0.28260645448E+03  0.00000000000E+00 0. -1.
         23    2    1    2    0    0 -0.56589608837E+02 -0.27416242271E+03  0.12903094993E+04  0.13238833536E+04  0.96959332233E+02 0.  0.
         11    1    3    3    0    0 -0.16767878748E+02 -0.96026615951E+01  0.31477441040E+02  0.36935107443E+02  0.00000000000E+00 0. -1.
        -11    1    3    3    0    0 -0.39821730089E+02 -0.26455976112E+03  0.12588320583E+04  0.12869482462E+04  0.00000000000E+00 0.  1.
         22    1    1    2    0    0  0.56589608837E+02  0.27416242271E+03 -0.19211593354E+03  0.33952312112E+03  0.00000000000E+00 0. -1.
<mgrwt>
<rscale>  0 0.12493566E+04</rscale>
<asrwt>0</asrwt>
<pdfrwt beam="1">  1        2 0.21243077E+00 0.12493566E+04</pdfrwt>
<pdfrwt beam="2">  1       -2 0.43477917E-01 0.12493566E+04</pdfrwt>
<totfact> 0.73193788E+01</totfact>
</mgrwt>
</event>
<event>
 6    1  0.5196787E-004  0.1784776E+04  0.7818608E-02  0.8714437E-01
         -2   -1    0    0    0  501 -0.00000000000E+00  0.00000000000E+00  0.19192933298E+03  0.19192933298E+03  0.00000000000E+00 0.  1.
          2   -1    0    0  501    0  0.00000000000E+00 -0.00000000000E+00 -0.41492176794E+04  0.41492176794E+04  0.00000000000E+00 0. -1.
         23    2    1    2    0    0  0.23030118513E+03 -0.63755097631E+03 -0.58170068513E+03  0.89816836848E+03  0.93919368558E+02 0.  0.
         11    1    3    3    0    0  0.91282144571E+02 -0.29243992449E+03 -0.32189999931E+03  0.44437951001E+03  0.00000000000E+00 0. -1.
        -11    1    3    3    0    0  0.13901904056E+03 -0.34511105181E+03 -0.25980068581E+03  0.45378885847E+03  0.00000000000E+00 0.  1.
         22    1    1    2    0    0 -0.23030118513E+03  0.63755097631E+03 -0.33755876613E+04  0.34429786439E+04  0.00000000000E+00 0. -1.
<mgrwt>
<rscale>  0 0.17847763E+04</rscale>
<asrwt>0</asrwt>
<pdfrwt beam="1">  1        2 0.63834120E+00 0.17847763E+04</pdfrwt>
<pdfrwt beam="2">  1       -2 0.29527589E-01 0.17847763E+04</pdfrwt>
<totfact> 0.26121321E+00</totfact>
</mgrwt>
</event>
<event>
 6    1  0.5196787E-004  0.2607772E+04  0.7818608E-02  0.8365566E-01
          4   -1    0    0  501    0  0.00000000000E+00  0.00000000000E+00  0.16574185947E+04  0.16574185947E+04  0.00000000000E+00 0.  1.
         -4   -1    0    0    0  501 -0.00000000000E+00 -0.00000000000E+00 -0.10257627150E+04  0.10257627150E+04  0.00000000000E+00 0. -1.
         23    2    1    2    0    0  0.12987309055E+04 -0.93203320128E+02  0.28985827378E+03  0.13369961712E+04  0.90289086784E+02 0.  0.
         13    1    3    3    0    0  0.55745185778E+03 -0.55401937673E+02  0.81752418024E+02  0.56613196897E+03  0.00000000000E+00 0. -1.
        -13    1    3    3    0    0  0.74127904769E+03 -0.37801382455E+02  0.20810585576E+03  0.77086420222E+03  0.00000000000E+00 0.  1.
         22    1    1    2    0    0 -0.12987309055E+04  0.93203320128E+02  0.34179760586E+03  0.13461851385E+04  0.00000000000E+00 0.  1.
<mgrwt>
<rscale>  0 0.26077716E+04</rscale>
<asrwt>0</asrwt>
<pdfrwt beam="1">  1        4 0.25498748E+00 0.26077716E+04</pdfrwt>
<pdfrwt beam="2">  1       -4 0.15780965E+00 0.26077716E+04</pdfrwt>
<totfact> 0.26911101E-02</totfact>
</mgrwt>
</event>
<event>
 6    1  0.5196787E-004  0.2741311E+04  0.7818608E-02  0.8321724E-01
          2   -1    0    0  501    0  0.00000000000E+00  0.00000000000E+00  0.27765971610E+04  0.27765971610E+04  0.00000000000E+00 0.  1.
         -2   -1    0    0    0  501 -0.00000000000E+00 -0.00000000000E+00 -0.67661853771E+03  0.67661853771E+03  0.00000000000E+00 0. -1.
         23    2    1    2    0    0 -0.24900281953E+03 -0.13374000308E+04  0.85605284342E+03  0.16098512225E+04  0.90295300249E+02 0.  0.
         13    1    3    3    0    0 -0.56548497078E+02 -0.35360745073E+03  0.27188413044E+03  0.44961866300E+03  0.00000000000E+00 0. -1.
        -13    1    3    3    0    0 -0.19245432245E+03 -0.98379258006E+03  0.58416871298E+03  0.11602325595E+04  0.00000000000E+00 0.  1.
         22    1    1    2    0    0  0.24900281953E+03  0.13374000308E+04  0.12439257799E+04  0.18433644763E+04  0.00000000000E+00 0.  1.
<mgrwt>
<rscale>  0 0.27413114E+04</rscale>
<asrwt>0</asrwt>
<pdfrwt beam="1">  1        2 0.42716879E+00 0.27413114E+04</pdfrwt>
<pdfrwt beam="2">  1       -2 0.10409516E+00 0.27413114E+04</pdfrwt>
<totfact> 0.15671297E+00</totfact>
</mgrwt>
</event>
<event>
 6    1  0.5196787E-004  0.2059089E+04  0.7818608E-02  0.8579482E-01
         -2   -1    0    0    0  501 -0.00000000000E+00  0.00000000000E+00  0.76402593461E+03  0.76402593461E+03  0.00000000000E+00 0. -1.
          2   -1    0    0  501    0  0.00000000000E+00 -0.00000000000E+00 -0.13873370969E+04  0.13873370969E+04  0.00000000000E+00 0.  1.
         23    2    1    2    0    0 -0.29620806740E+03 -0.39182553632E+03  0.63055189219E+03  0.80472312807E+03  0.93365700371E+02 0.  0.
         11    1    3    3    0    0 -0.78011988521E+02 -0.60106272783E+02  0.85702232162E+02  0.13055078314E+03  0.00000000000E+00 0.  1.
        -11    1    3    3    0    0 -0.21819607888E+03 -0.33171926354E+03  0.54484966003E+03  0.67417234493E+03  0.00000000000E+00 0. -1.
         22    1    1    2    0    0  0.29620806740E+03  0.39182553632E+03 -0.12538630544E+04  0.13466399034E+04  0.00000000000E+00 0.  1.
<mgrwt>
<rscale>  0 0.20590887E+04</rscale>
<asrwt>0</asrwt>
<pdfrwt beam="1">  1        2 0.21343648E+00 0.20590887E+04</pdfrwt>
<pdfrwt beam="2">  1       -2 0.11754245E+00 0.20590887E+04</pdfrwt>
<totfact> 0.76054839E+00</totfact>
</mgrwt>
</event>
<event>
 6    1  0.5196787E-004  0.1069499E+04  0.7818608E-02  0.9235440E-01
         -2   -1    0    0    0  501 -0.00000000000E+00  0.00000000000E+00  0.27437423662E+03  0.27437423662E+03  0.00000000000E+00 0. -1.
          2   -1    0    0  501    0  0.00000000000E+00 -0.00000000000E+00 -0.10422160666E+04  0.10422160666E+04  0.00000000000E+00 0.  1.
         23    2    1    2    0    0 -0.38798002769E+03 -0.15220384382E+03 -0.79151144888E+03  0.89915196907E+03  0.91046020291E+02 0.  0.
         11    1    3    3    0    0 -0.32534072423E+03 -0.10988236557E+03 -0.70554537682E+03  0.78467509191E+03  0.00000000000E+00 0. -1.
        -11    1    3    3    0    0 -0.62639303458E+02 -0.42321478250E+02 -0.85966072055E+02  0.11447687716E+03  0.00000000000E+00 0.  1.
         22    1    1    2    0    0  0.38798002769E+03  0.15220384382E+03  0.23669618894E+02  0.41743833415E+03  0.00000000000E+00 0. -1.
<mgrwt>
<rscale>  0 0.10694994E+04</rscale>
<asrwt>0</asrwt>
<pdfrwt beam="1">  1        2 0.16034094E+00 0.10694994E+04</pdfrwt>
<pdfrwt beam="2">  1       -2 0.42211420E-01 0.10694994E+04</pdfrwt>
<totfact> 0.12517263E+02</totfact>
</mgrwt>
</event>
<event>
 6    1  0.5196787E-004  0.2847526E+04  0.7818608E-02  0.8288664E-01
          2   -1    0    0  501    0  0.00000000000E+00  0.00000000000E+00  0.28262846166E+04  0.28262846166E+04  0.00000000000E+00 0.  1.
         -2   -1    0    0    0  501 -0.00000000000E+00 -0.00000000000E+00 -0.71723163794E+03  0.71723163794E+03  0.00000000000E+00 0. -1.
         23    2    1    2    0    0  0.24259200889E+03  0.13355812154E+03  0.27917618657E+04  0.28067801559E+04  0.85976006497E+02 0.  0.
         13    1    3    3    0    0  0.70122562692E+02  0.54430298275E+01  0.93182859875E+03  0.93447917998E+03  0.00000000000E+00 0. -1.
        -13    1    3    3    0    0  0.17246944620E+03  0.12811509171E+03  0.18599332670E+04  0.18723009759E+04  0.00000000000E+00 0.  1.
         22    1    1    2    0    0 -0.24259200889E+03 -0.13355812154E+03 -0.68270888708E+03  0.73673609868E+03  0.00000000000E+00 0. -1.
<mgrwt>
<rscale>  0 0.28475258E+04</rscale>
<asrwt>0</asrwt>
<pdfrwt beam="1">  1        2 0.43481301E+00 0.28475258E+04</pdfrwt>
<pdfrwt beam="2">  1       -2 0.11034333E+00 0.28475258E+04</pdfrwt>
<totfact> 0.12593242E+00</totfact>
</mgrwt>
</event>
<event>
 6    1  0.5196787E-004  0.1333047E+04  0.7818608E-02  0.9003761E-01
         -2   -1    0    0    0  501 -0.00000000000E+00  0.00000000000E+00  0.18950480221E+03  0.18950480221E+03  0.00000000000E+00 0. -1.
          2   -1    0    0  501    0  0.00000000000E+00 -0.00000000000E+00 -0.23442874258E+04  0.23442874258E+04  0.00000000000E+00 0.  1.
         23    2    1    2    0    0  0.62690276966E+02 -0.16835057875E+03 -0.22962991377E+04  0.23051026742E+04  0.90755829472E+02 0.  0.
         13    1    3    3    0    0 -0.16155887146E+02 -0.17649972713E+02 -0.55537527627E+03  0.55589048537E+03  0.00000000000E+00 0. -1.
        -13    1    3    3    0    0  0.78846164112E+02 -0.15070060604E+03 -0.17409238615E+04  0.17492121889E+04  0.00000000000E+00 0.  1.
         22    1    1    2    0    0 -0.62690276966E+02  0.16835057875E+03  0.14151651420E+03  0.22868955372E+03  0.00000000000E+00 0. -1.
<mgrwt>
<rscale>  0 0.13330472E+04</rscale>
<asrwt>0</asrwt>
<pdfrwt beam="1">  1        2 0.36065962E+00 0.13330472E+04</pdfrwt>
<pdfrwt beam="2">  1       -2 0.29154584E-01 0.13330472E+04</pdfrwt>
<totfact> 0.45384267E+01</totfact>
</mgrwt>
</event>
<event>
 6    1  0.5196787E-004  0.3332971E+04  0.7818608E-02  0.8154556E-01
         -2   -1    0    0    0  501 -0.00000000000E+00  0.00000000000E+00  0.57770910420E+03  0.57770910420E+03  0.00000000000E+00 0. -1.
          2   -1    0    0  501    0  0.00000000000E+00 -0.00000000000E+00 -0.48072189400E+04  0.48072189400E+04  0.00000000000E+00 0.  1.
         23    2    1    2    0    0  0.20030178167E+03 -0.10326363775E+04 -0.30559638208E+02  0.10562283025E+04  0.90695334429E+02 0.  0.
         11    1    3    3    0    0  0.65460875212E+02 -0.51613536447E+03 -0.45074691576E+02  0.52221888941E+03  0.00000000000E+00 0.  1.
        -11    1    3    3    0    0  0.13484090645E+03 -0.51650101302E+03  0.14515053367E+02  0.53400941310E+03  0.00000000000E+00 0. -1.
         22    1    1    2    0    0 -0.20030178167E+03  0.10326363775E+04 -0.41989501976E+04  0.43286997416E+04  0.00000000000E+00 0.  1.
<mgrwt>
<rscale>  0 0.33329711E+04</rscale>
<asrwt>0</asrwt>
<pdfrwt beam="1">  1        2 0.73957212E+00 0.33329711E+04</pdfrwt>
<pdfrwt beam="2">  1       -2 0.88878326E-01 0.33329711E+04</pdfrwt>
<totfact> 0.52677029E-02</totfact>
</mgrwt>
</event>
<event>
 6    1  0.5196787E-004  0.3730594E+04  0.7818608E-02  0.8061215E-01
         -2   -1    0    0    0  501 -0.00000000000E+00  0.00000000000E+00  0.36151237294E+04  0.36151237294E+04  0.00000000000E+00 0. -1.
          2   -1    0    0  501    0  0.00000000000E+00 -0.00000000000E+00 -0.96243803061E+03  0.96243803061E+03  0.00000000000E+00 0.  1.
         23    2    1    2    0    0  0.12290151253E+04 -0.14015523649E+04  0.13433078646E+04  0.22995587921E+04  0.93098922457E+02 0.  0.
         13    1    3    3    0    0  0.53945571619E+03 -0.66917758455E+03  0.58232364772E+03  0.10382253802E+04  0.00000000000E+00 0. -1.
        -13    1    3    3    0    0  0.68955940907E+03 -0.73237478031E+03  0.76098421692E+03  0.12613334119E+04  0.00000000000E+00 0.  1.
         22    1    1    2    0    0 -0.12290151253E+04  0.14015523649E+04  0.13093778342E+04  0.22780029680E+04  0.00000000000E+00 0. -1.
<mgrwt>
<rscale>  0 0.37305938E+04</rscale>
<asrwt>0</asrwt>
<pdfrwt beam="1">  1        2 0.14806739E+00 0.37305938E+04</pdfrwt>
<pdfrwt beam="2">  1       -2 0.55617288E+00 0.37305938E+04</pdfrwt>
<totfact> 0.17033830E-02</totfact>
</mgrwt>
</event>
<event>
 6    1  0.5196787E-004  0.1665075E+04  0.7818608E-02  0.8781538E-01
          2   -1    0    0  501    0  0.00000000000E+00  0.00000000000E+00  0.81196175660E+03  0.81196175660E+03  0.00000000000E+00 0.  1.
         -2   -1    0    0    0  501 -0.00000000000E+00 -0.00000000000E+00 -0.85363505036E+03  0.85363505036E+03  0.00000000000E+00 0. -1.
         23    2    1    2    0    0 -0.53932461285E+03  0.25033445241E+02  0.60955352886E+03  0.81966886327E+03  0.93828724107E+02 0.  0.
         13    1    3    3    0    0 -0.22195190937E+03  0.44161416075E+02  0.30132275587E+03  0.37683986513E+03  0.00000000000E+00 0.  1.
        -13    1    3    3    0    0 -0.31737270348E+03 -0.19127970834E+02  0.30823077299E+03  0.44282899815E+03  0.00000000000E+00 0. -1.
         22    1    1    2    0    0  0.53932461285E+03 -0.25033445241E+02 -0.65122682262E+03  0.84592794368E+03  0.00000000000E+00 0.  1.
<mgrwt>
<rscale>  0 0.16650754E+04</rscale>
<asrwt>0</asrwt>
<pdfrwt beam="1">  1        2 0.12491719E+00 0.16650754E+04</pdfrwt>
<pdfrwt beam="2">  1       -2 0.13132847E+00 0.16650754E+04</pdfrwt>
<totfact> 0.13634449E+01</totfact>
</mgrwt>
</event>
<event>
 6    1  0.5196787E-004  0.2058290E+04  0.7818608E-02  0.8579843E-01
          2   -1    0    0  501    0  0.00000000000E+00  0.00000000000E+00  0.76308432460E+03  0.76308432460E+03  0.00000000000E+00 0.  1.
         -2   -1    0    0    0  501 -0.00000000000E+00 -0.00000000000E+00 -0.13879723176E+04  0.13879723176E+04  0.00000000000E+00 0. -1.
         23    2    1    2    0    0 -0.97599719317E+02 -0.78342178874E+03  0.37355109398E+03  0.87820314918E+03  0.91787510769E+02 0.  0.
         13    1    3    3    0    0 -0.99609905344E+02 -0.43196153226E+03  0.21227085755E+03  0.49149955805E+03  0.00000000000E+00 0.  1.
        -13    1    3    3    0    0  0.20101860265E+01 -0.35146025648E+03  0.16128023643E+03  0.38670359113E+03  0.00000000000E+00 0. -1.
         22    1    1    2    0    0  0.97599719317E+02  0.78342178874E+03 -0.99843908697E+03  0.12728534930E+04  0.00000000000E+00 0. -1.
<mgrwt>
<rscale>  0 0.20582905E+04</rscale>
<asrwt>0</asrwt>
<pdfrwt beam="1">  1        2 0.11739759E+00 0.20582905E+04</pdfrwt>
<pdfrwt beam="2">  1       -2 0.21353420E+00 0.20582905E+04</pdfrwt>
<totfact> 0.36824336E+00</totfact>
</mgrwt>
</event>
<event>
 6    1  0.5196787E-004  0.4333012E+04  0.7818608E-02  0.7940542E-01
         -2   -1    0    0    0  501 -0.00000000000E+00  0.00000000000E+00  0.21775079621E+04  0.21775079621E+04  0.00000000000E+00 0. -1.
          2   -1    0    0  501    0  0.00000000000E+00 -0.00000000000E+00 -0.21555593938E+04  0.21555593938E+04  0.00000000000E+00 0.  1.
         23    2    1    2    0    0  0.81924131391E+01  0.15432149570E+04 -0.15083011675E+04  0.21597648521E+04  0.89623017378E+02 0.  0.
         11    1    3    3    0    0 -0.15530368370E+02  0.14331875484E+04 -0.13965058978E+04  0.20011238002E+04  0.00000000000E+00 0. -1.
        -11    1    3    3    0    0  0.23722781510E+02  0.11002740860E+03 -0.11179526976E+03  0.15864105189E+03  0.00000000000E+00 0.  1.
         22    1    1    2    0    0 -0.81924131391E+01 -0.15432149570E+04  0.15302497358E+04  0.21733025038E+04  0.00000000000E+00 0. -1.
<mgrwt>
<rscale>  0 0.43330118E+04</rscale>
<asrwt>0</asrwt>
<pdfrwt beam="1">  1        2 0.33162452E+00 0.43330118E+04</pdfrwt>
<pdfrwt beam="2">  1       -2 0.33500123E+00 0.43330118E+04</pdfrwt>
<totfact> 0.81158467E-02</totfact>
</mgrwt>
</event>
<event>
 6    1  0.5196787E-004  0.2251268E+04  0.7818608E-02  0.8497387E-01
         -2   -1    0    0    0  501 -0.00000000000E+00  0.00000000000E+00  0.73551776575E+03  0.73551776575E+03  0.00000000000E+00 0. -1.
          2   -1    0    0  501    0  0.00000000000E+00 -0.00000000000E+00 -0.17226673441E+04  0.17226673441E+04  0.00000000000E+00 0.  1.
         23    2    1    2    0    0 -0.59211681354E+03 -0.88900724105E+03 -0.11323767968E+03  0.10780915615E+04  0.92317102207E+02 0.  0.
         11    1    3    3    0    0 -0.19039972100E+03 -0.24441843082E+03 -0.68155612910E+02  0.31723431506E+03  0.00000000000E+00 0. -1.
        -11    1    3    3    0    0 -0.40171709254E+03 -0.64458881023E+03 -0.45082066773E+02  0.76085724644E+03  0.00000000000E+00 0.  1.
         22    1    1    2    0    0  0.59211681354E+03  0.88900724105E+03 -0.87391189864E+03  0.13800935483E+04  0.00000000000E+00 0.  1.
<mgrwt>
<rscale>  0 0.22512685E+04</rscale>
<asrwt>0</asrwt>
<pdfrwt beam="1">  1        2 0.26502574E+00 0.22512685E+04</pdfrwt>
<pdfrwt beam="2">  1       -2 0.11315658E+00 0.22512685E+04</pdfrwt>
<totfact> 0.53188700E+00</totfact>
</mgrwt>
</event>
<event>
 6    1  0.5196787E-004  0.3245742E+04  0.7818608E-02  0.8176840E-01
         -2   -1    0    0    0  501 -0.00000000000E+00  0.00000000000E+00  0.64905153639E+03  0.64905153639E+03  0.00000000000E+00 0. -1.
          2   -1    0    0  501    0  0.00000000000E+00 -0.00000000000E+00 -0.40577828998E+04  0.40577828998E+04  0.00000000000E+00 0.  1.
         23    2    1    2    0    0  0.11893509578E+04  0.11905027568E+03 -0.11665946635E+03  0.12044829341E+04  0.91875124169E+02 0.  0.
         13    1    3    3    0    0  0.48318255557E+03  0.51147269150E+01 -0.33608828339E+02  0.48437701822E+03  0.00000000000E+00 0. -1.
        -13    1    3    3    0    0  0.70616840223E+03  0.11393554877E+03 -0.83050638008E+02  0.72010591586E+03  0.00000000000E+00 0.  1.
         22    1    1    2    0    0 -0.11893509578E+04 -0.11905027568E+03 -0.32920718970E+04  0.35023515021E+04  0.00000000000E+00 0.  1.
<mgrwt>
<rscale>  0 0.32457420E+04</rscale>
<asrwt>0</asrwt>
<pdfrwt beam="1">  1        2 0.62427430E+00 0.32457420E+04</pdfrwt>
<pdfrwt beam="2">  1       -2 0.99854082E-01 0.32457420E+04</pdfrwt>
<totfact> 0.21293864E-01</totfact>
</mgrwt>
</event>
